 Gaussian 09, Revision A.02,
 Gaussian 09:  AM64L-G09RevA.02 11-Jun-2009

 ----------------------------------
 #p b3lyp 6-31G* opt scf(xqc,tight)
 ----------------------------------

 ---------------
 opt calculation
 ---------------
 Symbolic Z-matrix:
 Charge =  0 Multiplicity = 1

 SCF Done:  E(RB3LYP) =  -539.731614586     A.U. after   14 cycles
 SCF Done:  E(RB3LYP) =  -539.735364785     A.U. after   12 cycles
 SCF Done:  E(RB3LYP) =  -539.735588267     A.U. after   11 cycles
 SCF Done:  E(RB3LYP) =  -539.735602820     A.U. after    9 cycles
 SCF Done:  E(RB3LYP) =  -539.735604657     A.U. after    8 cycles
 Optimization completed.
    -- Stationary point found.

                         Standard orientation:
 ---------------------------------------------------------------------
 Center     Atomic      Atomic             Coordinates (Angstroms)
 Number     Number       Type             X           Y           Z
 ---------------------------------------------------------------------
      1          6           0       -4.753814   -0.530722    0.000002
      2          6           0       -3.260239   -0.806488    0.000000
      3          8           0       -2.588486    0.451933   -0.000001
      4          6           0       -1.224600    0.463041   -0.000001
      5          6           0       -0.645088    1.763196   -0.000000
      6          6           0        0.717215    1.914449    0.000000
      7          6           0        1.585064    0.786308    0.000000
      8          6           0        2.997864    0.912247    0.000001
      9          6           0        3.808072   -0.202341    0.000001
     10          6           0        3.231652   -1.494942    0.000000
     11          6           0        1.862395   -1.649396   -0.000000
     12          6           0        0.999786   -0.520607   -0.000000
     13          6           0       -0.416610   -0.656782   -0.000001
     14          1           0       -5.040345    0.042029   -0.887548
     15          1           0       -5.040343    0.042029    0.887551
     16          1           0       -5.310661   -1.473977    0.000002
     17          1           0       -2.966016   -1.384136   -0.888234
     18          1           0       -2.966014   -1.384135    0.888234
     19          1           0       -1.313773    2.618350   -0.000000
     20          1           0        1.152714    2.911043    0.000000
     21          1           0        3.432420    1.909569    0.000001
     22          1           0        4.889115   -0.093233    0.000001
     23          1           0        3.875908   -2.370342    0.000000
     24          1           0        1.422255   -2.644173   -0.000001
     25          1           0       -0.837555   -1.656262   -0.000001
 ---------------------------------------------------------------------

 The electronic state is 1-A.
 Alpha  occ. eigenvalues --  -19.17495 -10.24541 -10.24402 -10.19453 -10.18957
 Alpha  occ. eigenvalues --  -10.18912 -10.18547 -10.18541 -10.18507 -10.18507
 Alpha  occ. eigenvalues --  -10.18358 -10.18293 -10.18170  -1.06159  -0.86528
 Alpha  occ. eigenvalues --   -0.81521  -0.77237  -0.76498  -0.72601  -0.70919
 Alpha  occ. eigenvalues --   -0.64847  -0.60974  -0.59829  -0.58647  -0.53226
 Alpha  occ. eigenvalues --   -0.50842  -0.50258  -0.48420  -0.45207  -0.44607
 Alpha  occ. eigenvalues --   -0.43746  -0.41671  -0.40840  -0.40074  -0.39415
 Alpha  occ. eigenvalues --   -0.39312  -0.37483  -0.36752  -0.34818  -0.34046
 Alpha  occ. eigenvalues --   -0.33383  -0.32018  -0.29461  -0.27476  -0.22465
 Alpha  occ. eigenvalues --   -0.20261
 Alpha virt. eigenvalues --   -0.02905   0.00253   0.03989   0.09696   0.09829
 Alpha virt. eigenvalues --    0.11106   0.11900   0.12122   0.13342   0.14798
 Alpha virt. eigenvalues --    0.15598   0.16918   0.17501   0.17873   0.19064

 Mulliken atomic charges:
              1
     1  C   -0.457261
     2  C   -0.027251
     3  O   -0.520017
     4  C    0.379802
     5  C   -0.171829
     6  C   -0.195666
     7  C    0.135459
     8  C   -0.192910
     9  C   -0.138974
    10  C   -0.134833
    11  C   -0.195128
    12  C    0.136363
    13  C   -0.278624
    14  H    0.163712
    15  H    0.163712
    16  H    0.148628
    17  H    0.141679
    18  H    0.141679
    19  H    0.138212
    20  H    0.131197
    21  H    0.126683
    22  H    0.126062
    23  H    0.126606
    24  H    0.123229
    25  H    0.129470
 Sum of Mulliken atomic charges =  -0.00000

 Dipole moment (field-independent basis, Debye):
    X=             -0.8792    Y=             -0.9264    Z=              0.0000  Tot=              1.2772
 Quadrupole moment (field-independent basis, Debye-Ang):
   XX=            -66.6801   YY=            -68.9667   ZZ=            -79.9120
   XY=              4.1600   XZ=             -0.0000   YZ=              0.0000

 Normal termination of Gaussian 09 at Fri Sep  3 00:24:35 2021.
