 Gaussian 09, Revision A.02,
 Gaussian 09:  AM64L-G09RevA.02 11-Jun-2009

 ----------------------------------
 #p b3lyp 6-31G* opt scf(xqc,tight)
 ----------------------------------

 ---------------
 opt calculation
 ---------------
 Symbolic Z-matrix:
 Charge =  0 Multiplicity = 1

 SCF Done:  E(RB3LYP) =  -930.238295723     A.U. after   14 cycles
 SCF Done:  E(RB3LYP) =  -930.246553951     A.U. after   12 cycles
 SCF Done:  E(RB3LYP) =  -930.247464134     A.U. after   12 cycles
 SCF Done:  E(RB3LYP) =  -930.247539306     A.U. after   11 cycles
 SCF Done:  E(RB3LYP) =  -930.247554114     A.U. after   10 cycles
 SCF Done:  E(RB3LYP) =  -930.247558546     A.U. after   10 cycles
 SCF Done:  E(RB3LYP) =  -930.247559529     A.U. after    7 cycles
 SCF Done:  E(RB3LYP) =  -930.247559661     A.U. after    7 cycles
 SCF Done:  E(RB3LYP) =  -930.247559865     A.U. after    7 cycles
 SCF Done:  E(RB3LYP) =  -930.247560005     A.U. after    7 cycles
 SCF Done:  E(RB3LYP) =  -930.247560162     A.U. after    7 cycles
 SCF Done:  E(RB3LYP) =  -930.247560264     A.U. after    7 cycles
 SCF Done:  E(RB3LYP) =  -930.247560344     A.U. after    7 cycles
 SCF Done:  E(RB3LYP) =  -930.247560401     A.U. after    7 cycles
 Optimization completed.
    -- Stationary point found.

                         Standard orientation:
 ---------------------------------------------------------------------
 Center     Atomic      Atomic             Coordinates (Angstroms)
 Number     Number       Type             X           Y           Z
 ---------------------------------------------------------------------
      1          6           0       -5.938689    0.030593   -0.717799
      2          8           0       -5.077912    0.089914    0.408034
      3          6           0       -3.775058   -0.284473    0.244920
      4          6           0       -3.216630   -0.722765   -0.961105
      5          6           0       -1.865405   -1.080084   -1.009767
      6          6           0       -1.086158   -0.998461    0.134555
      7          8           0        0.237164   -1.456508    0.083277
      8          6           0        1.249529   -0.570885    0.023470
      9          7           0        2.456762   -1.134509    0.003934
     10          6           0        3.454157   -0.243948   -0.060363
     11          8           0        4.710639   -0.688573   -0.087530
     12          6           0        4.915235   -2.107913   -0.046774
     13          7           0        3.338753    1.085693   -0.101690
     14          6           0        2.074763    1.502270   -0.074857
     15          8           0        1.923379    2.826394   -0.115221
     16          6           0        0.585963    3.345097   -0.092521
     17          7           0        0.977831    0.731446   -0.013427
     18          6           0       -1.635223   -0.571560    1.344083
     19          6           0       -2.975436   -0.213167    1.396829
     20          1           0       -6.915316    0.367931   -0.366084
     21          1           0       -5.595630    0.692571   -1.524171
     22          1           0       -6.027146   -0.993103   -1.105409
     23          1           0       -3.814274   -0.793092   -1.862380
     24          1           0       -1.419899   -1.427758   -1.936453
     25          1           0        4.505545   -2.535003    0.872288
     26          1           0        5.997813   -2.236433   -0.079729
     27          1           0        4.444357   -2.594744   -0.904805
     28          1           0        0.065732    3.045645    0.821031
     29          1           0        0.704602    4.428693   -0.128275
     30          1           0        0.015858    2.992651   -0.956122
     31          1           0       -1.013526   -0.526038    2.232385
     32          1           0       -3.429983    0.122245    2.323504
 ---------------------------------------------------------------------

 The electronic state is 1-A.
 Alpha  occ. eigenvalues --  -19.20256 -19.19352 -19.19204 -19.18380 -14.33513
 Alpha  occ. eigenvalues --  -14.33206 -14.32590 -10.32760 -10.32110 -10.31957
 Alpha  occ. eigenvalues --  -10.25429 -10.24875 -10.24697 -10.24030 -10.23849
 Alpha  occ. eigenvalues --  -10.19997 -10.19969 -10.19801 -10.19446  -1.11142
 Alpha  occ. eigenvalues --   -1.09598  -1.09053  -1.06981  -0.99361  -0.89856
 Alpha  occ. eigenvalues --   -0.89305  -0.85739  -0.76704  -0.75717  -0.74644
 Alpha  occ. eigenvalues --   -0.71754  -0.71214  -0.66432  -0.63022  -0.62473
 Alpha  occ. eigenvalues --   -0.59965  -0.57768  -0.56298  -0.53914  -0.51991
 Alpha  occ. eigenvalues --   -0.50601  -0.50378  -0.49250  -0.47420  -0.47344
 Alpha  occ. eigenvalues --   -0.45952  -0.44854  -0.44638  -0.43668  -0.43339
 Alpha  occ. eigenvalues --   -0.42590  -0.42336  -0.40093  -0.39124  -0.38574
 Alpha  occ. eigenvalues --   -0.37783  -0.36863  -0.36754  -0.35563  -0.35218
 Alpha  occ. eigenvalues --   -0.33534  -0.32078  -0.30311  -0.27852  -0.27488
 Alpha  occ. eigenvalues --   -0.27056  -0.26682  -0.25905  -0.22144
 Alpha virt. eigenvalues --   -0.01569  -0.00994  -0.00406   0.00862   0.08295
 Alpha virt. eigenvalues --    0.10113   0.11348   0.11979   0.12405   0.12518
 Alpha virt. eigenvalues --    0.13812   0.13971   0.14502   0.14998   0.15297

 Mulliken atomic charges:
              1
     1  C   -0.216353
     2  O   -0.508100
     3  C    0.384973
     4  C   -0.208725
     5  C   -0.160638
     6  C    0.350139
     7  O   -0.533712
     8  C    0.663282
     9  N   -0.521882
    10  C    0.678427
    11  O   -0.456840
    12  C   -0.209963
    13  N   -0.487974
    14  C    0.677685
    15  O   -0.456933
    16  C   -0.210233
    17  N   -0.526570
    18  C   -0.143194
    19  C   -0.187440
    20  H    0.172268
    21  H    0.152315
    22  H    0.153545
    23  H    0.138147
    24  H    0.144946
    25  H    0.171865
    26  H    0.168293
    27  H    0.171544
    28  H    0.171444
    29  H    0.168803
    30  H    0.171068
    31  H    0.144325
    32  H    0.145488
 Sum of Mulliken atomic charges =  -0.00000

 Dipole moment (field-independent basis, Debye):
    X=             -3.7115    Y=             -0.5055    Z=             -1.0088  Tot=              3.8792
 Quadrupole moment (field-independent basis, Debye-Ang):
   XX=           -100.0253   YY=           -105.8089   ZZ=           -101.4806
   XY=            -13.1333   XZ=              7.8580   YZ=              1.6404

 Normal termination of Gaussian 09 at Fri Sep  3 01:54:01 2021.
