 Gaussian 09, Revision A.02,
 Gaussian 09:  AM64L-G09RevA.02 11-Jun-2009

 ----------------------------------
 #p b3lyp 6-31G* opt scf(xqc,tight)
 ----------------------------------

 ---------------
 opt calculation
 ---------------
 Symbolic Z-matrix:
 Charge =  0 Multiplicity = 1

 SCF Done:  E(RB3LYP) =  -772.182798397     A.U. after   14 cycles
 SCF Done:  E(RB3LYP) =  -772.187541310     A.U. after   12 cycles
 SCF Done:  E(RB3LYP) =  -772.187949504     A.U. after   11 cycles
 SCF Done:  E(RB3LYP) =  -772.188044632     A.U. after   11 cycles
 SCF Done:  E(RB3LYP) =  -772.188114842     A.U. after   11 cycles
 SCF Done:  E(RB3LYP) =  -772.188170515     A.U. after   12 cycles
 SCF Done:  E(RB3LYP) =  -772.188198878     A.U. after   11 cycles
 SCF Done:  E(RB3LYP) =  -772.188207828     A.U. after   10 cycles
 SCF Done:  E(RB3LYP) =  -772.188210240     A.U. after   10 cycles
 SCF Done:  E(RB3LYP) =  -772.188210560     A.U. after    7 cycles
 SCF Done:  E(RB3LYP) =  -772.188210673     A.U. after    7 cycles
 SCF Done:  E(RB3LYP) =  -772.188210672     A.U. after    7 cycles
 SCF Done:  E(RB3LYP) =  -772.188210667     A.U. after    6 cycles
 Optimization completed.
    -- Stationary point found.

                         Standard orientation:
 ---------------------------------------------------------------------
 Center     Atomic      Atomic             Coordinates (Angstroms)
 Number     Number       Type             X           Y           Z
 ---------------------------------------------------------------------
      1          6           0        5.723245    2.201007    0.145124
      2          8           0        5.058043    1.063021    0.645123
      3          6           0        5.250061   -0.086056   -0.161269
      4          6           0        4.499322   -1.258463    0.463575
      5          6           0        2.984956   -1.046967    0.618325
      6          6           0        2.219647   -0.923478   -0.716071
      7          6           0        0.721603   -0.819366   -0.525777
      8          6           0       -0.051415   -1.987881   -0.285835
      9          6           0       -1.410256   -1.921144   -0.076547
     10          6           0       -2.091829   -0.675284   -0.092148
     11          6           0       -3.495325   -0.577168    0.119505
     12          6           0       -4.117457    0.654907    0.092961
     13          8           0       -5.452857    0.868801    0.282787
     14          6           0       -6.278027   -0.257722    0.527577
     15          6           0       -3.359720    1.834758   -0.147240
     16          6           0       -2.006515    1.758531   -0.354481
     17          6           0       -1.326186    0.508374   -0.334150
     18          6           0        0.071883    0.399741   -0.546867
     19          1           0        5.368744    2.473535   -0.862809
     20          1           0        5.512935    3.027269    0.829679
     21          1           0        6.814035    2.048372    0.094817
     22          1           0        6.325649   -0.324982   -0.232953
     23          1           0        4.897470    0.109408   -1.188959
     24          1           0        4.694286   -2.150643   -0.148579
     25          1           0        4.935162   -1.452182    1.451914
     26          1           0        2.569584   -1.889527    1.186610
     27          1           0        2.806086   -0.148185    1.218892
     28          1           0        2.575497   -0.042751   -1.263754
     29          1           0        2.450820   -1.797048   -1.342957
     30          1           0        0.446967   -2.955193   -0.274156
     31          1           0       -1.981438   -2.830062    0.099621
     32          1           0       -4.054730   -1.488652    0.300705
     33          1           0       -7.290918    0.131227    0.647716
     34          1           0       -6.256391   -0.963137   -0.313956
     35          1           0       -5.979142   -0.784104    1.443998
     36          1           0       -3.885828    2.784257   -0.160332
     37          1           0       -1.433741    2.664708   -0.537312
     38          1           0        0.639536    1.310383   -0.731564
 ---------------------------------------------------------------------

 The electronic state is 1-A.
 Alpha  occ. eigenvalues --  -19.17568 -19.14427 -10.24304 -10.23888 -10.22673
 Alpha  occ. eigenvalues --  -10.22504 -10.19125 -10.18689 -10.18640 -10.18558
 Alpha  occ. eigenvalues --  -10.18320 -10.18189 -10.18121 -10.18058 -10.18014
 Alpha  occ. eigenvalues --  -10.17970 -10.17904 -10.17501  -1.06128  -1.02800
 Alpha  occ. eigenvalues --   -0.86414  -0.82044  -0.79102  -0.76542  -0.75286
 Alpha  occ. eigenvalues --   -0.72508  -0.71114  -0.69301  -0.66441  -0.62957
 Alpha  occ. eigenvalues --   -0.61593  -0.59042  -0.58364  -0.56171  -0.52471
 Alpha  occ. eigenvalues --   -0.50476  -0.49806  -0.48529  -0.47801  -0.46585
 Alpha  occ. eigenvalues --   -0.46081  -0.45531  -0.44670  -0.43899  -0.42749
 Alpha  occ. eigenvalues --   -0.41629  -0.41311  -0.40201  -0.39872  -0.39225
 Alpha  occ. eigenvalues --   -0.38174  -0.37264  -0.35967  -0.35646  -0.34784
 Alpha  occ. eigenvalues --   -0.33965  -0.33467  -0.32382  -0.31952  -0.31651
 Alpha  occ. eigenvalues --   -0.30752  -0.28939  -0.26803  -0.25171  -0.22155
 Alpha  occ. eigenvalues --   -0.19796
 Alpha virt. eigenvalues --   -0.02655   0.00440   0.04197   0.08210   0.09874
 Alpha virt. eigenvalues --    0.10480   0.10821   0.11169   0.12270   0.12497
 Alpha virt. eigenvalues --    0.13625   0.14267   0.14659   0.15219   0.15583

 Mulliken atomic charges:
              1
     1  C   -0.189659
     2  O   -0.458295
     3  C   -0.013030
     4  C   -0.276845
     5  C   -0.248614
     6  C   -0.354368
     7  C    0.174186
     8  C   -0.181305
     9  C   -0.197077
    10  C    0.136723
    11  C   -0.278166
    12  C    0.373817
    13  O   -0.509776
    14  C   -0.212509
    15  C   -0.170726
    16  C   -0.195809
    17  C    0.144715
    18  C   -0.265980
    19  H    0.127341
    20  H    0.157485
    21  H    0.128377
    22  H    0.116946
    23  H    0.118499
    24  H    0.128180
    25  H    0.145280
    26  H    0.132791
    27  H    0.160576
    28  H    0.144263
    29  H    0.133589
    30  H    0.119137
    31  H    0.122059
    32  H    0.126665
    33  H    0.168376
    34  H    0.151814
    35  H    0.152067
    36  H    0.137966
    37  H    0.130267
    38  H    0.121039
 Sum of Mulliken atomic charges =  -0.00000

 Dipole moment (field-independent basis, Debye):
    X=              0.3046    Y=             -0.8762    Z=             -0.6058  Tot=              1.1079
 Quadrupole moment (field-independent basis, Debye-Ang):
   XX=            -87.5820   YY=            -99.4628   ZZ=           -111.6992
   XY=              7.7251   XZ=             -7.2291   YZ=             -2.2467

 Normal termination of Gaussian 09 at Fri Sep  3 01:55:12 2021.
