 Gaussian 09, Revision A.02,
 Gaussian 09:  AM64L-G09RevA.02 11-Jun-2009

 ----------------------------------
 #p b3lyp 6-31G* opt scf(xqc,tight)
 ----------------------------------

 ---------------
 opt calculation
 ---------------
 Symbolic Z-matrix:
 Charge =  0 Multiplicity = 1

 SCF Done:  E(RB3LYP) =  -692.585914941     A.U. after   15 cycles
 SCF Done:  E(RB3LYP) =  -692.588762805     A.U. after   12 cycles
 SCF Done:  E(RB3LYP) =  -692.588875234     A.U. after   12 cycles
 SCF Done:  E(RB3LYP) =  -692.588093056     A.U. after   12 cycles
 SCF Done:  E(RB3LYP) =  -692.588913362     A.U. after   12 cycles
 SCF Done:  E(RB3LYP) =  -692.588935532     A.U. after   10 cycles
 SCF Done:  E(RB3LYP) =  -692.588945430     A.U. after   11 cycles
 SCF Done:  E(RB3LYP) =  -692.588954044     A.U. after   11 cycles
 SCF Done:  E(RB3LYP) =  -692.588959020     A.U. after   11 cycles
 SCF Done:  E(RB3LYP) =  -692.588961197     A.U. after   11 cycles
 SCF Done:  E(RB3LYP) =  -692.588964535     A.U. after   10 cycles
 SCF Done:  E(RB3LYP) =  -692.588968585     A.U. after   10 cycles
 SCF Done:  E(RB3LYP) =  -692.588969882     A.U. after    9 cycles
 SCF Done:  E(RB3LYP) =  -692.588970840     A.U. after    9 cycles
 SCF Done:  E(RB3LYP) =  -692.588970877     A.U. after    7 cycles
 SCF Done:  E(RB3LYP) =  -692.588970957     A.U. after    7 cycles
 Optimization completed.
    -- Stationary point found.

                         Standard orientation:
 ---------------------------------------------------------------------
 Center     Atomic      Atomic             Coordinates (Angstroms)
 Number     Number       Type             X           Y           Z
 ---------------------------------------------------------------------
      1          6           0        5.270536   -0.855866    0.030065
      2          8           0        4.520430    0.333443   -0.153623
      3          6           0        3.161564    0.264985   -0.029377
      4          6           0        2.446763   -0.897316    0.282029
      5          6           0        1.053371   -0.858250    0.386393
      6          6           0        0.380177    0.339594    0.172825
      7          8           0       -1.002916    0.474886    0.333155
      8          6           0       -1.869742   -0.402516   -0.265919
      9          8           0       -1.515156   -1.342366   -0.936324
     10          6           0       -3.321498   -0.016939    0.040597
     11          6           0       -4.251468   -1.037087   -0.634646
     12          6           0       -3.535713   -0.030544    1.570776
     13          6           0       -3.595287    1.400042   -0.512097
     14          6           0        1.085940    1.503794   -0.134948
     15          6           0        2.470704    1.468286   -0.234112
     16          1           0        4.991051   -1.626857   -0.700364
     17          1           0        6.315122   -0.577696   -0.121645
     18          1           0        5.147405   -1.259835    1.044006
     19          1           0        2.956770   -1.839357    0.445984
     20          1           0        0.503295   -1.760759    0.621604
     21          1           0       -4.065077   -2.049687   -0.264140
     22          1           0       -5.296460   -0.779240   -0.428638
     23          1           0       -4.104880   -1.050625   -1.718775
     24          1           0       -4.576110    0.228496    1.798700
     25          1           0       -2.883198    0.689706    2.071788
     26          1           0       -3.337981   -1.023921    1.990165
     27          1           0       -2.946712    2.143994   -0.041253
     28          1           0       -3.436389    1.440654   -1.595947
     29          1           0       -4.637411    1.677162   -0.315134
     30          1           0        0.540457    2.429361   -0.290267
     31          1           0        3.039180    2.361799   -0.471255
 ---------------------------------------------------------------------

 The electronic state is 1-A.
 Alpha  occ. eigenvalues --  -19.19633 -19.17787 -19.13723 -10.31338 -10.24740
 Alpha  occ. eigenvalues --  -10.24347 -10.24178 -10.21253 -10.19314 -10.19299
 Alpha  occ. eigenvalues --  -10.19116 -10.18816 -10.18142 -10.18133 -10.17323
 Alpha  occ. eigenvalues --   -1.10259  -1.06370  -1.01997  -0.85378  -0.82162
 Alpha  occ. eigenvalues --   -0.75852  -0.75163  -0.70390  -0.69090  -0.68506
 Alpha  occ. eigenvalues --   -0.64862  -0.61839  -0.58507  -0.55327  -0.53021
 Alpha  occ. eigenvalues --   -0.49774  -0.48365  -0.47741  -0.46854  -0.45716
 Alpha  occ. eigenvalues --   -0.44993  -0.43512  -0.43046  -0.43025  -0.42515
 Alpha  occ. eigenvalues --   -0.40694  -0.39627  -0.39017  -0.38317  -0.37500
 Alpha  occ. eigenvalues --   -0.36775  -0.36535  -0.35191  -0.33726  -0.33316
 Alpha  occ. eigenvalues --   -0.33187  -0.32238  -0.30080  -0.26911  -0.25159
 Alpha  occ. eigenvalues --   -0.21311
 Alpha virt. eigenvalues --   -0.00347  -0.00038   0.02792   0.08369   0.08917
 Alpha virt. eigenvalues --    0.10662   0.12596   0.13034   0.13920   0.15172
 Alpha virt. eigenvalues --    0.15258   0.15475   0.15947   0.16197   0.16388

 Mulliken atomic charges:
              1
     1  C   -0.215506
     2  O   -0.509047
     3  C    0.383504
     4  C   -0.210529
     5  C   -0.144870
     6  C    0.341481
     7  O   -0.537451
     8  C    0.634253
     9  O   -0.467179
    10  C   -0.008407
    11  C   -0.433278
    12  C   -0.451122
    13  C   -0.451087
    14  C   -0.167263
    15  C   -0.182628
    16  H    0.153703
    17  H    0.170178
    18  H    0.151392
    19  H    0.136758
    20  H    0.153189
    21  H    0.154184
    22  H    0.136310
    23  H    0.156750
    24  H    0.147500
    25  H    0.165518
    26  H    0.149125
    27  H    0.161821
    28  H    0.151934
    29  H    0.147719
    30  H    0.140607
    31  H    0.142440
 Sum of Mulliken atomic charges =  -0.00000

 Dipole moment (field-independent basis, Debye):
    X=              0.3936    Y=              0.1035    Z=              1.1692  Tot=              1.2380
 Quadrupole moment (field-independent basis, Debye-Ang):
   XX=            -73.5579   YY=            -86.5391   ZZ=            -91.7756
   XY=             -8.6054   XZ=             -0.7485   YZ=             -4.1986

 Normal termination of Gaussian 09 at Fri Sep  3 01:44:45 2021.
