 Gaussian 09, Revision A.02,
 Gaussian 09:  AM64L-G09RevA.02 11-Jun-2009

 ----------------------------------
 #p b3lyp 6-31G* opt scf(xqc,tight)
 ----------------------------------

 ---------------
 opt calculation
 ---------------
 Symbolic Z-matrix:
 Charge =  0 Multiplicity = 1

 SCF Done:  E(RB3LYP) =  -948.440667089     A.U. after   14 cycles
 SCF Done:  E(RB3LYP) =  -948.447379009     A.U. after   12 cycles
 SCF Done:  E(RB3LYP) =  -948.448163694     A.U. after   11 cycles
 SCF Done:  E(RB3LYP) =  -948.448251316     A.U. after   11 cycles
 SCF Done:  E(RB3LYP) =  -948.448268692     A.U. after   10 cycles
 SCF Done:  E(RB3LYP) =  -948.448270767     A.U. after    8 cycles
 SCF Done:  E(RB3LYP) =  -948.448271359     A.U. after    7 cycles
 SCF Done:  E(RB3LYP) =  -948.448271664     A.U. after    7 cycles
 SCF Done:  E(RB3LYP) =  -948.448272048     A.U. after    7 cycles
 SCF Done:  E(RB3LYP) =  -948.448272578     A.U. after    8 cycles
 SCF Done:  E(RB3LYP) =  -948.448273359     A.U. after    9 cycles
 SCF Done:  E(RB3LYP) =  -948.448274212     A.U. after    8 cycles
 SCF Done:  E(RB3LYP) =  -948.448274723     A.U. after    8 cycles
 SCF Done:  E(RB3LYP) =  -948.448275064     A.U. after    7 cycles
 SCF Done:  E(RB3LYP) =  -948.448275917     A.U. after    9 cycles
 SCF Done:  E(RB3LYP) =  -948.448278221     A.U. after   10 cycles
 SCF Done:  E(RB3LYP) =  -948.448278964     A.U. after    9 cycles
 SCF Done:  E(RB3LYP) =  -948.448278897     A.U. after    9 cycles
 SCF Done:  E(RB3LYP) =  -948.448279159     A.U. after    8 cycles
 Optimization completed.
    -- Stationary point found.

                         Standard orientation:
 ---------------------------------------------------------------------
 Center     Atomic      Atomic             Coordinates (Angstroms)
 Number     Number       Type             X           Y           Z
 ---------------------------------------------------------------------
      1          6           0        5.126279   -0.375723   -0.339049
      2          6           0        3.881076    0.529925   -0.257608
      3          6           0        4.042078    1.593948    0.844704
      4         14           0        2.277972   -0.468236   -0.083465
      5          6           0        2.219964   -1.418407    1.547013
      6          6           0        2.051062   -1.627151   -1.555814
      7          8           0        1.081245    0.733208   -0.106755
      8          6           0       -0.280627    0.692156   -0.091557
      9          6           0       -0.938926    1.943738   -0.244464
     10          6           0       -2.309589    2.015268   -0.241574
     11          6           0       -3.108432    0.849161   -0.087521
     12          6           0       -4.527012    0.890823   -0.082465
     13          6           0       -5.268340   -0.260155    0.069285
     14          6           0       -4.615708   -1.507240    0.223445
     15          6           0       -3.240327   -1.580571    0.222935
     16          6           0       -2.446430   -0.411705    0.067925
     17          6           0       -1.026509   -0.460390    0.063341
     18          1           0        5.064962   -1.095057   -1.164428
     19          1           0        6.033912    0.222554   -0.493684
     20          1           0        5.271979   -0.945121    0.588188
     21          1           0        3.787417    1.057823   -1.219616
     22          1           0        4.940543    2.201848    0.672892
     23          1           0        3.181385    2.269636    0.883468
     24          1           0        4.149651    1.131891    1.834531
     25          1           0        3.051260   -2.131800    1.607911
     26          1           0        2.301960   -0.738545    2.402617
     27          1           0        1.290893   -1.986289    1.666311
     28          1           0        2.150936   -1.080450   -2.500885
     29          1           0        2.806772   -2.421946   -1.548773
     30          1           0        1.066808   -2.107525   -1.556811
     31          1           0       -0.324627    2.830908   -0.362800
     32          1           0       -2.802967    2.977300   -0.359668
     33          1           0       -5.021135    1.852628   -0.201510
     34          1           0       -6.353977   -0.215589    0.071280
     35          1           0       -5.206790   -2.411536    0.342821
     36          1           0       -2.741737   -2.540022    0.341744
     37          1           0       -0.540170   -1.423124    0.187394
 ---------------------------------------------------------------------

 The electronic state is 1-A.
 Alpha  occ. eigenvalues --  -66.14706 -19.15515 -10.24801 -10.19426 -10.18936
 Alpha  occ. eigenvalues --  -10.18850 -10.18552 -10.18506 -10.18381 -10.18352
 Alpha  occ. eigenvalues --  -10.18300 -10.18113 -10.17903 -10.17496 -10.17295
 Alpha  occ. eigenvalues --  -10.16631 -10.16580  -5.28832  -3.64958  -3.64611
 Alpha  occ. eigenvalues --   -3.64593  -1.02691  -0.86384  -0.80936  -0.77734
 Alpha  occ. eigenvalues --   -0.76573  -0.73086  -0.71074  -0.70370  -0.68389
 Alpha  occ. eigenvalues --   -0.67864  -0.62750  -0.60663  -0.59235  -0.57995
 Alpha  occ. eigenvalues --   -0.53551  -0.50961  -0.50206  -0.46236  -0.45063
 Alpha  occ. eigenvalues --   -0.44520  -0.43775  -0.43269  -0.41958  -0.41665
 Alpha  occ. eigenvalues --   -0.41136  -0.40813  -0.40238  -0.39982  -0.39284
 Alpha  occ. eigenvalues --   -0.39111  -0.38670  -0.37843  -0.37406  -0.36718
 Alpha  occ. eigenvalues --   -0.34447  -0.33833  -0.33549  -0.33175  -0.31161
 Alpha  occ. eigenvalues --   -0.31112  -0.29189  -0.27430  -0.27166  -0.22570
 Alpha  occ. eigenvalues --   -0.20222
 Alpha virt. eigenvalues --   -0.03021   0.00289   0.03795   0.06134   0.07506
 Alpha virt. eigenvalues --    0.08982   0.09729   0.10301   0.11417   0.11676
 Alpha virt. eigenvalues --    0.11944   0.12257   0.13648   0.14432   0.15330

 Mulliken atomic charges:
              1
     1  C   -0.458797
     2  C   -0.270757
     3  C   -0.452976
     4  Si   0.912975
     5  C   -0.693355
     6  C   -0.688591
     7  O   -0.632509
     8  C    0.392215
     9  C   -0.170960
    10  C   -0.199939
    11  C    0.135773
    12  C   -0.192098
    13  C   -0.139394
    14  C   -0.134224
    15  C   -0.196933
    16  C    0.138784
    17  C   -0.280947
    18  H    0.145874
    19  H    0.144238
    20  H    0.143921
    21  H    0.147062
    22  H    0.137291
    23  H    0.163834
    24  H    0.140345
    25  H    0.162561
    26  H    0.172257
    27  H    0.167490
    28  H    0.169610
    29  H    0.163015
    30  H    0.169555
    31  H    0.137152
    32  H    0.130912
    33  H    0.126778
    34  H    0.126117
    35  H    0.126575
    36  H    0.123033
    37  H    0.134114
 Sum of Mulliken atomic charges =  -0.00000

 Dipole moment (field-independent basis, Debye):
    X=              0.9598    Y=             -0.8230    Z=             -0.0744  Tot=              1.2665
 Quadrupole moment (field-independent basis, Debye-Ang):
   XX=           -101.6589   YY=           -102.7429   ZZ=           -112.5734
   XY=             -2.2863   XZ=             -0.3758   YZ=             -1.4688

 Normal termination of Gaussian 09 at Fri Sep  3 02:52:21 2021.
