 Gaussian 09, Revision A.02,
 Gaussian 09:  AM64L-G09RevA.02 11-Jun-2009

 ----------------------------------
 #p b3lyp 6-31G* opt scf(xqc,tight)
 ----------------------------------

 ---------------
 opt calculation
 ---------------
 Symbolic Z-matrix:
 Charge =  0 Multiplicity = 1

 SCF Done:  E(RB3LYP) =  -711.800319518     A.U. after   14 cycles
 SCF Done:  E(RB3LYP) =  -711.805931502     A.U. after   12 cycles
 SCF Done:  E(RB3LYP) =  -711.806262287     A.U. after   11 cycles
 SCF Done:  E(RB3LYP) =  -711.806286245     A.U. after    9 cycles
 SCF Done:  E(RB3LYP) =  -711.806289437     A.U. after    8 cycles
 SCF Done:  E(RB3LYP) =  -711.806290106     A.U. after    8 cycles
 SCF Done:  E(RB3LYP) =  -711.806290534     A.U. after    8 cycles
 SCF Done:  E(RB3LYP) =  -711.806291253     A.U. after    8 cycles
 SCF Done:  E(RB3LYP) =  -711.806292755     A.U. after    9 cycles
 SCF Done:  E(RB3LYP) =  -711.806294166     A.U. after    9 cycles
 SCF Done:  E(RB3LYP) =  -711.806294709     A.U. after    7 cycles
 SCF Done:  E(RB3LYP) =  -711.806294774     A.U. after    6 cycles
 Optimization completed.
    -- Stationary point found.

                         Standard orientation:
 ---------------------------------------------------------------------
 Center     Atomic      Atomic             Coordinates (Angstroms)
 Number     Number       Type             X           Y           Z
 ---------------------------------------------------------------------
      1          6           0        5.884518   -0.538408    0.049223
      2          8           0        4.899821    0.477337   -0.002639
      3          6           0        3.578202    0.108626    0.004069
      4          6           0        3.133209   -1.236989    0.059179
      5          6           0        1.783002   -1.519970    0.060670
      6          6           0        0.804999   -0.493277    0.008922
      7          6           0       -0.585566   -0.769180    0.014963
      8          6           0       -1.531154    0.252154   -0.034503
      9          7           0       -2.888064   -0.006632   -0.039649
     10          6           0       -3.920915    1.018551    0.092938
     11          6           0       -5.196179    0.213973    0.392935
     12          6           0       -4.938640   -1.131823   -0.302972
     13          6           0       -3.436408   -1.356781   -0.079643
     14          6           0       -1.058156    1.603981   -0.091620
     15          6           0        0.283566    1.890066   -0.094079
     16          6           0        1.265782    0.862860   -0.044108
     17          6           0        2.652635    1.134686   -0.046443
     18          1           0        6.847236   -0.023061    0.033067
     19          1           0        5.824468   -1.212386   -0.816560
     20          1           0        5.811871   -1.132982    0.970445
     21          1           0        3.847295   -2.051989    0.100266
     22          1           0        1.454439   -2.556088    0.102896
     23          1           0       -0.900148   -1.806457    0.070007
     24          1           0       -3.683181    1.723643    0.899997
     25          1           0       -4.027933    1.606122   -0.833833
     26          1           0       -6.100948    0.718422    0.040565
     27          1           0       -5.295007    0.064565    1.474760
     28          1           0       -5.548664   -1.948230    0.095219
     29          1           0       -5.147556   -1.048594   -1.376248
     30          1           0       -3.245921   -1.898399    0.862897
     31          1           0       -2.977586   -1.942096   -0.887499
     32          1           0       -1.773479    2.417732   -0.146244
     33          1           0        0.611135    2.926238   -0.140447
     34          1           0        3.008476    2.160469   -0.087821
 ---------------------------------------------------------------------

 The electronic state is 1-A.
 Alpha  occ. eigenvalues --  -19.16440 -14.34117 -10.23293 -10.23138 -10.21879
 Alpha  occ. eigenvalues --  -10.21684 -10.21663 -10.19292 -10.19233 -10.18012
 Alpha  occ. eigenvalues --  -10.17965 -10.17907 -10.17810 -10.17803 -10.17744
 Alpha  occ. eigenvalues --  -10.16876 -10.16617  -1.04947  -0.94758  -0.85446
 Alpha  occ. eigenvalues --   -0.81437  -0.77946  -0.75798  -0.73958  -0.72058
 Alpha  occ. eigenvalues --   -0.71437  -0.67570  -0.62548  -0.61264  -0.59515
 Alpha  occ. eigenvalues --   -0.57607  -0.56755  -0.52812  -0.51818  -0.50155
 Alpha  occ. eigenvalues --   -0.49253  -0.46453  -0.45782  -0.45434  -0.43597
 Alpha  occ. eigenvalues --   -0.43081  -0.42922  -0.41535  -0.40822  -0.40203
 Alpha  occ. eigenvalues --   -0.39674  -0.38985  -0.37587  -0.36807  -0.35170
 Alpha  occ. eigenvalues --   -0.35079  -0.34370  -0.34029  -0.33638  -0.32831
 Alpha  occ. eigenvalues --   -0.30913  -0.29816  -0.27434  -0.23084  -0.21197
 Alpha  occ. eigenvalues --   -0.16515
 Alpha virt. eigenvalues --   -0.02166   0.02182   0.04915   0.08080   0.10141
 Alpha virt. eigenvalues --    0.10856   0.11257   0.12223   0.12631   0.13127
 Alpha virt. eigenvalues --    0.13826   0.14715   0.15265   0.15582   0.16128

 Mulliken atomic charges:
              1
     1  C   -0.210311
     2  O   -0.515055
     3  C    0.372348
     4  C   -0.193361
     5  C   -0.213527
     6  C    0.153945
     7  C   -0.295714
     8  C    0.379446
     9  N   -0.532483
    10  C   -0.104534
    11  C   -0.298847
    12  C   -0.296958
    13  C   -0.101407
    14  C   -0.187543
    15  C   -0.206651
    16  C    0.144555
    17  C   -0.263393
    18  H    0.165430
    19  H    0.147340
    20  H    0.147322
    21  H    0.126317
    22  H    0.121619
    23  H    0.117691
    24  H    0.147529
    25  H    0.138895
    26  H    0.146371
    27  H    0.150513
    28  H    0.146055
    29  H    0.150476
    30  H    0.137125
    31  H    0.147911
    32  H    0.125165
    33  H    0.125114
    34  H    0.128616
 Sum of Mulliken atomic charges =  -0.00000

 Dipole moment (field-independent basis, Debye):
    X=             -2.0045    Y=             -1.2713    Z=              0.1241  Tot=              2.3769
 Quadrupole moment (field-independent basis, Debye-Ang):
   XX=            -78.1046   YY=            -93.4649   ZZ=           -104.0150
   XY=             -6.0425   XZ=              0.1262   YZ=             -0.2599

 Normal termination of Gaussian 09 at Fri Sep  3 01:36:12 2021.
