 Gaussian 09, Revision A.02,
 Gaussian 09:  AM64L-G09RevA.02 11-Jun-2009

 ----------------------------------
 #p b3lyp 6-31G* opt scf(xqc,tight)
 ----------------------------------

 ---------------
 opt calculation
 ---------------
 Symbolic Z-matrix:
 Charge =  0 Multiplicity = 1

 SCF Done:  E(RB3LYP) =  -894.352512755     A.U. after   14 cycles
 SCF Done:  E(RB3LYP) =  -894.360973158     A.U. after   12 cycles
 SCF Done:  E(RB3LYP) =  -894.361925878     A.U. after   12 cycles
 SCF Done:  E(RB3LYP) =  -894.361994090     A.U. after   11 cycles
 SCF Done:  E(RB3LYP) =  -894.362009471     A.U. after    9 cycles
 SCF Done:  E(RB3LYP) =  -894.362013022     A.U. after   10 cycles
 SCF Done:  E(RB3LYP) =  -894.362015972     A.U. after   10 cycles
 SCF Done:  E(RB3LYP) =  -894.362007668     A.U. after   12 cycles
 SCF Done:  E(RB3LYP) =  -894.361993601     A.U. after   12 cycles
 SCF Done:  E(RB3LYP) =  -894.361988416     A.U. after   15 cycles
 SCF Done:  E(RB3LYP) =  -894.361994062     A.U. after    7 cycles
 SCF Done:  E(RB3LYP) =  -894.361994917     A.U. after    9 cycles
 SCF Done:  E(RB3LYP) =  -894.361996062     A.U. after    9 cycles
 SCF Done:  E(RB3LYP) =  -894.361997369     A.U. after   10 cycles
 SCF Done:  E(RB3LYP) =  -894.361999131     A.U. after   15 cycles
 SCF Done:  E(RB3LYP) =  -894.362000196     A.U. after   15 cycles
 SCF Done:  E(RB3LYP) =  -894.362000263     A.U. after   16 cycles
 SCF Done:  E(RB3LYP) =  -894.362000391     A.U. after    7 cycles
 SCF Done:  E(RB3LYP) =  -894.362000392     A.U. after    6 cycles
 SCF Done:  E(RB3LYP) =  -894.362000402     A.U. after    6 cycles
 Optimization completed.
    -- Stationary point found.

                         Standard orientation:
 ---------------------------------------------------------------------
 Center     Atomic      Atomic             Coordinates (Angstroms)
 Number     Number       Type             X           Y           Z
 ---------------------------------------------------------------------
      1          6           0        0.460184    3.369324   -0.004901
      2          8           0        1.786585    2.822785   -0.003297
      3          6           0        1.908597    1.494913   -0.002114
      4          7           0        3.163727    1.051390   -0.000817
      5          6           0        3.249395   -0.281127    0.000272
      6          8           0        4.496406   -0.752645    0.001638
      7          6           0        4.669149   -2.176765    0.003036
      8          7           0        2.231796   -1.150869    0.000171
      9          6           0        1.036845   -0.561305   -0.001130
     10          8           0        0.003803   -1.423738   -0.001369
     11          6           0       -1.310060   -0.934002   -0.000431
     12          6           0       -1.954981   -0.741659    1.215633
     13          6           0       -3.296024   -0.342381    1.226650
     14          6           0       -4.029152   -0.151498    2.534544
     15          6           0       -3.947016   -0.146114    0.002187
     16          6           0       -3.300556   -0.348423   -1.222991
     17          6           0       -4.035829   -0.160702   -2.530155
     18          6           0       -1.959002   -0.748300   -1.214699
     19          7           0        0.794103    0.747399   -0.002328
     20          1           0       -0.093004    3.055092    0.884044
     21          1           0        0.602193    4.450716   -0.005555
     22          1           0       -0.091331    3.053825   -0.894442
     23          1           0        5.749238   -2.328428    0.004155
     24          1           0        4.219245   -2.625295   -0.886538
     25          1           0        4.217621   -2.623747    0.892565
     26          1           0       -1.410129   -0.904914    2.140861
     27          1           0       -4.896772    0.505131    2.413728
     28          1           0       -3.378001    0.283849    3.300338
     29          1           0       -4.395405   -1.109309    2.927276
     30          1           0       -4.988112    0.170389    0.003131
     31          1           0       -4.337606   -1.125809   -2.957968
     32          1           0       -4.943301    0.436325   -2.395223
     33          1           0       -3.408272    0.340155   -3.275734
     34          1           0       -1.417392   -0.916406   -2.141008
 ---------------------------------------------------------------------

 The electronic state is 1-A.
 Alpha  occ. eigenvalues --  -19.20229 -19.19346 -19.19195 -14.33497 -14.33197
 Alpha  occ. eigenvalues --  -14.32580 -10.32789 -10.32096 -10.31948 -10.25172
 Alpha  occ. eigenvalues --  -10.24035 -10.23844 -10.20421 -10.20417 -10.19017
 Alpha  occ. eigenvalues --  -10.19014 -10.18878 -10.18878 -10.18756  -1.11162
 Alpha  occ. eigenvalues --   -1.09607  -1.09045  -0.99353  -0.89850  -0.89295
 Alpha  occ. eigenvalues --   -0.86167  -0.78651  -0.76851  -0.74639  -0.71698
 Alpha  occ. eigenvalues --   -0.69839  -0.69058  -0.67473  -0.62964  -0.60117
 Alpha  occ. eigenvalues --   -0.58277  -0.57598  -0.55110  -0.51805  -0.50407
 Alpha  occ. eigenvalues --   -0.50192  -0.49809  -0.48735  -0.47340  -0.44426
 Alpha  occ. eigenvalues --   -0.44129  -0.43309  -0.42669  -0.42430  -0.41813
 Alpha  occ. eigenvalues --   -0.41213  -0.41199  -0.40163  -0.40072  -0.38581
 Alpha  occ. eigenvalues --   -0.37490  -0.36754  -0.35964  -0.35680  -0.35162
 Alpha  occ. eigenvalues --   -0.34649  -0.33862  -0.30252  -0.27907  -0.27464
 Alpha  occ. eigenvalues --   -0.27039  -0.26621  -0.24237  -0.24228
 Alpha virt. eigenvalues --   -0.01429  -0.00865  -0.00231  -0.00049   0.09056
 Alpha virt. eigenvalues --    0.11336   0.11541   0.11971   0.12272   0.12521
 Alpha virt. eigenvalues --    0.12830   0.13628   0.13845   0.14346   0.15269

 Mulliken atomic charges:
              1
     1  C   -0.210015
     2  O   -0.457035
     3  C    0.677303
     4  N   -0.488147
     5  C    0.678481
     6  O   -0.456917
     7  C   -0.209913
     8  N   -0.521523
     9  C    0.663830
    10  O   -0.534753
    11  C    0.363558
    12  C   -0.204165
    13  C    0.169668
    14  C   -0.530224
    15  C   -0.228989
    16  C    0.169465
    17  C   -0.530347
    18  C   -0.203744
    19  N   -0.526260
    20  H    0.171162
    21  H    0.168555
    22  H    0.171083
    23  H    0.168220
    24  H    0.171658
    25  H    0.171658
    26  H    0.132943
    27  H    0.157627
    28  H    0.160562
    29  H    0.169359
    30  H    0.116324
    31  H    0.169056
    32  H    0.157303
    33  H    0.161238
    34  H    0.132979
 Sum of Mulliken atomic charges =  -0.00000

 Dipole moment (field-independent basis, Debye):
    X=             -3.3912    Y=             -0.3171    Z=             -0.0028  Tot=              3.4060
 Quadrupole moment (field-independent basis, Debye-Ang):
   XX=           -106.3391   YY=           -106.6322   ZZ=           -101.5573
   XY=            -13.8184   XZ=              0.0131   YZ=              0.0027

 Normal termination of Gaussian 09 at Fri Sep  3 03:41:10 2021.
