 Gaussian 09, Revision A.02,
 Gaussian 09:  AM64L-G09RevA.02 11-Jun-2009

 ----------------------------------
 #p b3lyp 6-31G* opt scf(xqc,tight)
 ----------------------------------

 ---------------
 opt calculation
 ---------------
 Symbolic Z-matrix:
 Charge =  0 Multiplicity = 1

 SCF Done:  E(RB3LYP) =  -386.087304233     A.U. after   14 cycles
 SCF Done:  E(RB3LYP) =  -386.088634868     A.U. after   11 cycles
 SCF Done:  E(RB3LYP) =  -386.088696275     A.U. after    9 cycles
 SCF Done:  E(RB3LYP) =  -386.088701141     A.U. after    8 cycles
 SCF Done:  E(RB3LYP) =  -386.088704211     A.U. after    8 cycles
 SCF Done:  E(RB3LYP) =  -386.088709989     A.U. after    9 cycles
 SCF Done:  E(RB3LYP) =  -386.088722555     A.U. after   10 cycles
 SCF Done:  E(RB3LYP) =  -386.088746556     A.U. after   11 cycles
 SCF Done:  E(RB3LYP) =  -386.088759378     A.U. after   11 cycles
 SCF Done:  E(RB3LYP) =  -386.088765154     A.U. after   10 cycles
 SCF Done:  E(RB3LYP) =  -386.088770674     A.U. after   10 cycles
 SCF Done:  E(RB3LYP) =  -386.088777801     A.U. after   10 cycles
 SCF Done:  E(RB3LYP) =  -386.088780814     A.U. after   10 cycles
 SCF Done:  E(RB3LYP) =  -386.088781198     A.U. after    8 cycles
 SCF Done:  E(RB3LYP) =  -386.088781255     A.U. after    7 cycles
 SCF Done:  E(RB3LYP) =  -386.088781260     A.U. after    6 cycles
 Optimization completed.
    -- Stationary point found.

                         Standard orientation:
 ---------------------------------------------------------------------
 Center     Atomic      Atomic             Coordinates (Angstroms)
 Number     Number       Type             X           Y           Z
 ---------------------------------------------------------------------
      1          6           0        3.224634   -0.505217    0.000006
      2          8           0        2.303919    0.571881    0.000065
      3          6           0        0.968129    0.276983    0.000025
      4          6           0        0.434015   -1.014091   -0.000015
      5          6           0       -0.955208   -1.186297   -0.000066
      6          6           0       -1.833983   -0.102442   -0.000068
      7          6           0       -3.332702   -0.296606    0.000089
      8          6           0       -1.273299    1.186496   -0.000068
      9          6           0        0.101046    1.380267   -0.000012
     10          1           0        3.113868   -1.133365   -0.894366
     11          1           0        3.113868   -1.133454    0.894315
     12          1           0        4.217848   -0.051875    0.000029
     13          1           0        1.077071   -1.886963   -0.000040
     14          1           0       -1.355348   -2.197972   -0.000117
     15          1           0       -3.596720   -1.359183   -0.001325
     16          1           0       -3.799997    0.161660   -0.880959
     17          1           0       -3.799481    0.159114    0.882748
     18          1           0       -1.928932    2.055001   -0.000128
     19          1           0        0.530693    2.377433   -0.000031
 ---------------------------------------------------------------------

 The electronic state is 1-A.
 Alpha  occ. eigenvalues --  -19.17229 -10.23946 -10.23777 -10.18506 -10.18283
 Alpha  occ. eigenvalues --  -10.18178 -10.18153 -10.17842 -10.17841  -1.05781
 Alpha  occ. eigenvalues --   -0.84541  -0.76594  -0.74027  -0.71056  -0.65950
 Alpha  occ. eigenvalues --   -0.60396  -0.57189  -0.52692  -0.47875  -0.46389
 Alpha  occ. eigenvalues --   -0.45868  -0.43762  -0.41791  -0.41343  -0.41211
 Alpha  occ. eigenvalues --   -0.37950  -0.36522  -0.35274  -0.34526  -0.31924
 Alpha  occ. eigenvalues --   -0.30560  -0.24370  -0.20793
 Alpha virt. eigenvalues --    0.00553   0.01985   0.09465   0.10790   0.12727
 Alpha virt. eigenvalues --    0.14088   0.14300   0.15423   0.15777   0.16991
 Alpha virt. eigenvalues --    0.17185   0.19087   0.20774   0.20909   0.24060

 Mulliken atomic charges:
              1
     1  C   -0.212857
     2  O   -0.508535
     3  C    0.370322
     4  C   -0.192697
     5  C   -0.194641
     6  C    0.179337
     7  C   -0.530349
     8  C   -0.182004
     9  C   -0.169541
    10  H    0.149883
    11  H    0.149883
    12  H    0.167561
    13  H    0.127612
    14  H    0.120250
    15  H    0.151811
    16  H    0.158622
    17  H    0.158651
    18  H    0.121738
    19  H    0.134954
 Sum of Mulliken atomic charges =  -0.00000

 Dipole moment (field-independent basis, Debye):
    X=              0.3716    Y=             -1.0945    Z=              0.0001  Tot=              1.1559
 Quadrupole moment (field-independent basis, Debye-Ang):
   XX=            -45.9431   YY=            -50.4083   ZZ=            -56.2494
   XY=             -3.7042   XZ=             -0.0006   YZ=             -0.0001

 Normal termination of Gaussian 09 at Fri Sep  3 00:24:46 2021.
