 Gaussian 09, Revision A.02,
 Gaussian 09:  AM64L-G09RevA.02 11-Jun-2009

 ----------------------------------
 #p b3lyp 6-31G* opt scf(xqc,tight)
 ----------------------------------

 ---------------
 opt calculation
 ---------------
 Symbolic Z-matrix:
 Charge =  0 Multiplicity = 1

 SCF Done:  E(RB3LYP) =  -461.288963960     A.U. after   14 cycles
 SCF Done:  E(RB3LYP) =  -461.290498360     A.U. after   12 cycles
 SCF Done:  E(RB3LYP) =  -461.290687005     A.U. after   11 cycles
 SCF Done:  E(RB3LYP) =  -461.291102799     A.U. after   12 cycles
 SCF Done:  E(RB3LYP) =  -461.290688790     A.U. after   13 cycles
 SCF Done:  E(RB3LYP) =  -461.291237182     A.U. after   12 cycles
 SCF Done:  E(RB3LYP) =  -461.291845014     A.U. after   12 cycles
 SCF Done:  E(RB3LYP) =  -461.292458292     A.U. after   12 cycles
 SCF Done:  E(RB3LYP) =  -461.292636677     A.U. after   11 cycles
 SCF Done:  E(RB3LYP) =  -461.292805841     A.U. after   12 cycles
 SCF Done:  E(RB3LYP) =  -461.292941397     A.U. after   12 cycles
 SCF Done:  E(RB3LYP) =  -461.293185920     A.U. after   15 cycles
 SCF Done:  E(RB3LYP) =  -461.293198980     A.U. after   15 cycles
 SCF Done:  E(RB3LYP) =  -461.293207148     A.U. after   15 cycles
 SCF Done:  E(RB3LYP) =  -461.293207385     A.U. after    7 cycles
 Optimization completed.
    -- Stationary point found.

                         Standard orientation:
 ---------------------------------------------------------------------
 Center     Atomic      Atomic             Coordinates (Angstroms)
 Number     Number       Type             X           Y           Z
 ---------------------------------------------------------------------
      1          6           0        3.556106   -0.788139   -0.042038
      2          8           0        2.771652    0.391602   -0.105705
      3          6           0        1.414042    0.270117   -0.014419
      4          6           0        0.729697   -0.942794    0.132895
      5          6           0       -0.664528   -0.942915    0.216138
      6          6           0       -1.399535    0.243786    0.149921
      7          6           0       -2.910179    0.224605    0.266919
      8          8           0       -3.515176   -0.899563   -0.365267
      9          6           0       -0.698050    1.447652   -0.007263
     10          6           0        0.689299    1.468494   -0.084089
     11          1           0        3.320381   -1.475574   -0.865474
     12          1           0        4.594329   -0.462862   -0.130711
     13          1           0        3.421102   -1.312761    0.913235
     14          1           0        1.266399   -1.883425    0.185039
     15          1           0       -1.194952   -1.884785    0.325809
     16          1           0       -3.218102    0.149734    1.316993
     17          1           0       -3.322682    1.171334   -0.118643
     18          1           0       -3.207305   -0.906410   -1.285790
     19          1           0       -1.247233    2.384928   -0.072664
     20          1           0        1.235136    2.398664   -0.208399
 ---------------------------------------------------------------------

 The electronic state is 1-A.
 Alpha  occ. eigenvalues --  -19.17774 -19.14257 -10.24634 -10.24188 -10.23125
 Alpha  occ. eigenvalues --  -10.18979 -10.18777 -10.18723 -10.18600 -10.18398
 Alpha  occ. eigenvalues --   -1.06342  -1.01402  -0.84982  -0.76448  -0.74627
 Alpha  occ. eigenvalues --   -0.70886  -0.65878  -0.60941  -0.57968  -0.53379
 Alpha  occ. eigenvalues --   -0.50473  -0.48526  -0.46856  -0.45428  -0.44522
 Alpha  occ. eigenvalues --   -0.43235  -0.41970  -0.40982  -0.38570  -0.37346
 Alpha  occ. eigenvalues --   -0.35594  -0.33028  -0.32126  -0.31461  -0.26985
 Alpha  occ. eigenvalues --   -0.25005  -0.21459
 Alpha virt. eigenvalues --   -0.00120   0.00926   0.08936   0.09537   0.10667
 Alpha virt. eigenvalues --    0.13036   0.13970   0.14510   0.15402   0.15964
 Alpha virt. eigenvalues --    0.16644   0.18265   0.19029   0.20022   0.22912

 Mulliken atomic charges:
              1
     1  C   -0.214729
     2  O   -0.507179
     3  C    0.375423
     4  C   -0.194538
     5  C   -0.184698
     6  C    0.101243
     7  C   -0.091487
     8  O   -0.610431
     9  C   -0.186219
    10  C   -0.171403
    11  H    0.151369
    12  H    0.169702
    13  H    0.152448
    14  H    0.131528
    15  H    0.142938
    16  H    0.160780
    17  H    0.126349
    18  H    0.386588
    19  H    0.124732
    20  H    0.137582
 Sum of Mulliken atomic charges =  -0.00000

 Dipole moment (field-independent basis, Debye):
    X=              1.6747    Y=             -0.2999    Z=             -0.6521  Tot=              1.8220
 Quadrupole moment (field-independent basis, Debye-Ang):
   XX=            -59.1710   YY=            -55.7519   ZZ=            -58.2099
   XY=             -8.4905   XZ=              2.0343   YZ=              0.5428

 Normal termination of Gaussian 09 at Fri Sep  3 00:30:11 2021.
