 Gaussian 09, Revision A.02,
 Gaussian 09:  AM64L-G09RevA.02 11-Jun-2009

 ----------------------------------
 #p b3lyp 6-31G* opt scf(xqc,tight)
 ----------------------------------

 ---------------
 opt calculation
 ---------------
 Symbolic Z-matrix:
 Charge =  0 Multiplicity = 1

 SCF Done:  E(RB3LYP) =  -969.356045833     A.U. after   14 cycles
 SCF Done:  E(RB3LYP) =  -969.366640115     A.U. after   12 cycles
 SCF Done:  E(RB3LYP) =  -969.367799395     A.U. after   12 cycles
 SCF Done:  E(RB3LYP) =  -969.367887975     A.U. after   12 cycles
 SCF Done:  E(RB3LYP) =  -969.367913249     A.U. after   10 cycles
 SCF Done:  E(RB3LYP) =  -969.367921263     A.U. after   12 cycles
 SCF Done:  E(RB3LYP) =  -969.367927386     A.U. after   10 cycles
 SCF Done:  E(RB3LYP) =  -969.367935947     A.U. after   10 cycles
 SCF Done:  E(RB3LYP) =  -969.367938754     A.U. after   10 cycles
 SCF Done:  E(RB3LYP) =  -969.367942780     A.U. after   10 cycles
 SCF Done:  E(RB3LYP) =  -969.367946176     A.U. after   10 cycles
 SCF Done:  E(RB3LYP) =  -969.367947776     A.U. after   10 cycles
 SCF Done:  E(RB3LYP) =  -969.367948623     A.U. after   10 cycles
 SCF Done:  E(RB3LYP) =  -969.367949254     A.U. after   10 cycles
 SCF Done:  E(RB3LYP) =  -969.367949557     A.U. after    7 cycles
 SCF Done:  E(RB3LYP) =  -969.367949567     A.U. after    7 cycles
 Optimization completed.
    -- Stationary point found.

                         Standard orientation:
 ---------------------------------------------------------------------
 Center     Atomic      Atomic             Coordinates (Angstroms)
 Number     Number       Type             X           Y           Z
 ---------------------------------------------------------------------
      1          6           0       -3.518797    2.325847    1.894776
      2          8           0       -2.238330    2.023343    1.325935
      3          6           0       -2.142257    0.943713    0.549649
      4          7           0       -3.230282    0.197731    0.332323
      5          6           0       -3.003330   -0.858381   -0.461902
      6          8           0       -4.014734   -1.678859   -0.749062
      7          6           0       -5.298288   -1.383616   -0.184216
      8          7           0       -1.841733   -1.197443   -1.018712
      9          6           0       -0.851617   -0.358847   -0.711698
     10          8           0        0.328215   -0.697314   -1.267258
     11          6           0        1.466752    0.084018   -1.038349
     12          6           0        1.660686    1.241407   -1.750008
     13          6           0        2.856321    1.975674   -1.573486
     14          6           0        3.824521    1.534281   -0.700699
     15          6           0        3.645712    0.332230    0.034663
     16          6           0        4.628445   -0.155093    0.937978
     17          6           0        4.432125   -1.326370    1.633361
     18          6           0        3.240743   -2.071191    1.455149
     19          6           0        2.264444   -1.631602    0.589845
     20          6           0        2.438472   -0.422677   -0.134578
     21          7           0       -0.919925    0.724573    0.059011
     22          1           0       -3.863725    1.510333    2.536185
     23          1           0       -3.359364    3.230905    2.481980
     24          1           0       -4.261492    2.504198    1.112353
     25          1           0       -5.656172   -0.405092   -0.515856
     26          1           0       -5.955438   -2.173251   -0.550338
     27          1           0       -5.257107   -1.397703    0.908364
     28          1           0        0.893574    1.583505   -2.436598
     29          1           0        3.001956    2.893628   -2.135566
     30          1           0        4.743239    2.099311   -0.565042
     31          1           0        5.543736    0.417267    1.069067
     32          1           0        5.193390   -1.686119    2.320319
     33          1           0        3.099514   -2.997846    2.004749
     34          1           0        1.356663   -2.206876    0.442203
 ---------------------------------------------------------------------

 The electronic state is 1-A.
 Alpha  occ. eigenvalues --  -19.20069 -19.20021 -19.19873 -14.33988 -14.33333
 Alpha  occ. eigenvalues --  -14.33045 -10.32745 -10.32619 -10.32585 -10.24936
 Alpha  occ. eigenvalues --  -10.24766 -10.24674 -10.19914 -10.19870 -10.19293
 Alpha  occ. eigenvalues --  -10.19160 -10.19037 -10.18973 -10.18948 -10.18942
 Alpha  occ. eigenvalues --  -10.18837  -1.11388  -1.09934  -1.09676  -0.99754
 Alpha  occ. eigenvalues --   -0.90074  -0.89849  -0.86996  -0.81981  -0.77457
 Alpha  occ. eigenvalues --   -0.74508  -0.74159  -0.73867  -0.72065  -0.66549
 Alpha  occ. eigenvalues --   -0.64556  -0.62117  -0.61668  -0.59767  -0.57882
 Alpha  occ. eigenvalues --   -0.55928  -0.52577  -0.51934  -0.51101  -0.50392
 Alpha  occ. eigenvalues --   -0.49738  -0.48283  -0.47925  -0.45955  -0.44679
 Alpha  occ. eigenvalues --   -0.44227  -0.43766  -0.42946  -0.42171  -0.41460
 Alpha  occ. eigenvalues --   -0.40346  -0.39015  -0.38616  -0.38016  -0.37821
 Alpha  occ. eigenvalues --   -0.37310  -0.37228  -0.35157  -0.34245  -0.33641
 Alpha  occ. eigenvalues --   -0.32326  -0.30529  -0.28434  -0.28115  -0.27784
 Alpha  occ. eigenvalues --   -0.27119  -0.26875  -0.24259  -0.21117
 Alpha virt. eigenvalues --   -0.03727  -0.01651  -0.01161  -0.00553   0.03720
 Alpha virt. eigenvalues --    0.09535   0.09786   0.10017   0.10743   0.11543
 Alpha virt. eigenvalues --    0.12229   0.13081   0.13461   0.13802   0.15060

 Mulliken atomic charges:
              1
     1  C   -0.209596
     2  O   -0.455305
     3  C    0.682814
     4  N   -0.549640
     5  C    0.681349
     6  O   -0.454983
     7  C   -0.209050
     8  N   -0.489938
     9  C    0.662732
    10  O   -0.533251
    11  C    0.284409
    12  C   -0.143056
    13  C   -0.149537
    14  C   -0.178064
    15  C    0.122879
    16  C   -0.195563
    17  C   -0.130121
    18  C   -0.136399
    19  C   -0.186966
    20  C    0.113850
    21  N   -0.492618
    22  H    0.168199
    23  H    0.172515
    24  H    0.167640
    25  H    0.167226
    26  H    0.172470
    27  H    0.167121
    28  H    0.140727
    29  H    0.135232
    30  H    0.130067
    31  H    0.130975
    32  H    0.130789
    33  H    0.132039
    34  H    0.151054
 Sum of Mulliken atomic charges =  -0.00000

 Dipole moment (field-independent basis, Debye):
    X=             -2.2909    Y=              1.7388    Z=              2.0237  Tot=              3.5167
 Quadrupole moment (field-independent basis, Debye-Ang):
   XX=            -88.7141   YY=           -115.6558   ZZ=           -116.6393
   XY=             -2.0749   XZ=             -3.6154   YZ=             -7.5203

 Normal termination of Gaussian 09 at Fri Sep  3 03:04:39 2021.
