 Gaussian 09, Revision A.02,
 Gaussian 09:  AM64L-G09RevA.02 11-Jun-2009

 ----------------------------------
 #p b3lyp 6-31G* opt scf(xqc,tight)
 ----------------------------------

 ---------------
 opt calculation
 ---------------
 Symbolic Z-matrix:
 Charge =  0 Multiplicity = 1

 SCF Done:  E(RB3LYP) =  -461.290185703     A.U. after   13 cycles
 SCF Done:  E(RB3LYP) =  -461.291366534     A.U. after   13 cycles
 SCF Done:  E(RB3LYP) =  -461.291426940     A.U. after   13 cycles
 SCF Done:  E(RB3LYP) =  -461.291429685     A.U. after   13 cycles
 Optimization completed.
    -- Stationary point found.

                         Standard orientation:
 ---------------------------------------------------------------------
 Center     Atomic      Atomic             Coordinates (Angstroms)
 Number     Number       Type             X           Y           Z
 ---------------------------------------------------------------------
      1          6           0       -3.681544   -0.330386    0.000008
      2          8           0       -2.689572    0.680323   -0.000004
      3          6           0       -1.375139    0.290603   -0.000003
      4          6           0       -0.430311    1.320854   -0.000002
      5          6           0        0.934789    1.039603   -0.000002
      6          6           0        1.375139   -0.290603   -0.000002
      7          8           0        2.689572   -0.680323   -0.000003
      8          6           0        3.681544    0.330386    0.000007
      9          6           0        0.430311   -1.320854   -0.000003
     10          6           0       -0.934789   -1.039603   -0.000003
     11          1           0       -4.641170    0.190301    0.000014
     12          1           0       -3.615580   -0.965528   -0.894251
     13          1           0       -3.615565   -0.965520    0.894272
     14          1           0       -0.782374    2.347888   -0.000002
     15          1           0        1.640531    1.862609   -0.000002
     16          1           0        4.641170   -0.190302    0.000012
     17          1           0        3.615567    0.965520    0.894271
     18          1           0        3.615579    0.965527   -0.894252
     19          1           0        0.782373   -2.347888   -0.000003
     20          1           0       -1.640531   -1.862608   -0.000004
 ---------------------------------------------------------------------

 The electronic state is 1-A.
 Alpha  occ. eigenvalues --  -19.16945 -19.16945 -10.23642 -10.23642 -10.23624
 Alpha  occ. eigenvalues --  -10.23623 -10.18517 -10.18516 -10.18159 -10.18158
 Alpha  occ. eigenvalues --   -1.05515  -1.05435  -0.84264  -0.75612  -0.74090
 Alpha  occ. eigenvalues --   -0.71247  -0.66769  -0.61064  -0.57816  -0.53486
 Alpha  occ. eigenvalues --   -0.50952  -0.48951  -0.46341  -0.46058  -0.44911
 Alpha  occ. eigenvalues --   -0.43774  -0.41819  -0.40195  -0.39854  -0.37634
 Alpha  occ. eigenvalues --   -0.36248  -0.33918  -0.33092  -0.31623  -0.28332
 Alpha  occ. eigenvalues --   -0.24697  -0.19393
 Alpha virt. eigenvalues --    0.00246   0.03080   0.09240   0.10519   0.11670
 Alpha virt. eigenvalues --    0.12713   0.15031   0.15430   0.15951   0.16131
 Alpha virt. eigenvalues --    0.16792   0.17187   0.18060   0.18787   0.21414

 Mulliken atomic charges:
              1
     1  C   -0.212036
     2  O   -0.512743
     3  C    0.372555
     4  C   -0.182828
     5  C   -0.196668
     6  C    0.372555
     7  O   -0.512743
     8  C   -0.212036
     9  C   -0.182828
    10  C   -0.196668
    11  H    0.166733
    12  H    0.148374
    13  H    0.148374
    14  H    0.136994
    15  H    0.131247
    16  H    0.166733
    17  H    0.148374
    18  H    0.148374
    19  H    0.136994
    20  H    0.131247
 Sum of Mulliken atomic charges =  -0.00000

 Dipole moment (field-independent basis, Debye):
    X=              0.0000    Y=             -0.0000    Z=              0.0000  Tot=              0.0000
 Quadrupole moment (field-independent basis, Debye-Ang):
   XX=            -46.6209   YY=            -56.4731   ZZ=            -61.4109
   XY=              7.7313   XZ=             -0.0000   YZ=              0.0000

 Normal termination of Gaussian 09 at Fri Sep  3 00:15:14 2021.
