 Gaussian 09, Revision A.02,
 Gaussian 09:  AM64L-G09RevA.02 11-Jun-2009

 ----------------------------------
 #p b3lyp 6-31G* opt scf(xqc,tight)
 ----------------------------------

 ---------------
 opt calculation
 ---------------
 Symbolic Z-matrix:
 Charge =  0 Multiplicity = 1

 SCF Done:  E(RB3LYP) =  -614.933124843     A.U. after   15 cycles
 SCF Done:  E(RB3LYP) =  -614.937162308     A.U. after   12 cycles
 SCF Done:  E(RB3LYP) =  -614.937395588     A.U. after   11 cycles
 SCF Done:  E(RB3LYP) =  -614.937408575     A.U. after    9 cycles
 SCF Done:  E(RB3LYP) =  -614.937410382     A.U. after    8 cycles
 SCF Done:  E(RB3LYP) =  -614.937410580     A.U. after    7 cycles
 Optimization completed.
    -- Stationary point found.

                         Standard orientation:
 ---------------------------------------------------------------------
 Center     Atomic      Atomic             Coordinates (Angstroms)
 Number     Number       Type             X           Y           Z
 ---------------------------------------------------------------------
      1          6           0        4.507532   -0.835145    0.000005
      2          8           0        3.648551    0.292922   -0.000003
      3          6           0        2.296609    0.087265   -0.000002
      4          6           0        1.694134   -1.195864   -0.000002
      5          6           0        0.319014   -1.309853   -0.000002
      6          6           0       -0.513771   -0.166979   -0.000001
      7          6           0       -1.943987   -0.260710    0.000000
      8          8           0       -2.435494   -1.535057    0.000000
      9          6           0       -3.842026   -1.711576    0.000001
     10          6           0       -2.723231    0.878729    0.000001
     11          6           0       -2.102865    2.154618    0.000001
     12          6           0       -0.737085    2.287379    0.000000
     13          6           0        0.094471    1.129995   -0.000001
     14          6           0        1.504628    1.222184   -0.000001
     15          1           0        4.364948   -1.455803    0.894715
     16          1           0        5.523616   -0.435664    0.000009
     17          1           0        4.364957   -1.455810   -0.894702
     18          1           0        2.302908   -2.092713   -0.000003
     19          1           0       -0.140527   -2.291924   -0.000002
     20          1           0       -4.302221   -1.271661   -0.894541
     21          1           0       -4.302221   -1.271662    0.894543
     22          1           0       -4.009410   -2.790330   -0.000000
     23          1           0       -3.805060    0.817492    0.000002
     24          1           0       -2.734669    3.039125    0.000002
     25          1           0       -0.273417    3.270083    0.000000
     26          1           0        1.986111    2.195699   -0.000001
 ---------------------------------------------------------------------

 The electronic state is 1-A.
 Alpha  occ. eigenvalues --  -19.17781 -19.17296 -10.24367 -10.24221 -10.24062
 Alpha  occ. eigenvalues --  -10.23869 -10.19163 -10.18597 -10.18552 -10.18470
 Alpha  occ. eigenvalues --  -10.18439 -10.17819 -10.17455 -10.17419  -1.06345
 Alpha  occ. eigenvalues --   -1.05851  -0.86125  -0.81057  -0.76940  -0.73921
 Alpha  occ. eigenvalues --   -0.73275  -0.69199  -0.68473  -0.61954  -0.59779
 Alpha  occ. eigenvalues --   -0.57919  -0.53243  -0.51582  -0.51216  -0.48181
 Alpha  occ. eigenvalues --   -0.46786  -0.46459  -0.46385  -0.44898  -0.43105
 Alpha  occ. eigenvalues --   -0.41840  -0.41175  -0.39724  -0.38838  -0.38106
 Alpha  occ. eigenvalues --   -0.35630  -0.35606  -0.34654  -0.32952  -0.31884
 Alpha  occ. eigenvalues --   -0.31363  -0.29527  -0.25157  -0.21954  -0.19001
 Alpha virt. eigenvalues --   -0.02452   0.00646   0.04929   0.09639   0.10241
 Alpha virt. eigenvalues --    0.11126   0.11456   0.11645   0.13355   0.14864
 Alpha virt. eigenvalues --    0.15095   0.15682   0.16029   0.16713   0.16950

 Mulliken atomic charges:
              1
     1  C   -0.213465
     2  O   -0.511851
     3  C    0.386498
     4  C   -0.197778
     5  C   -0.183767
     6  C    0.061386
     7  C    0.325895
     8  O   -0.510001
     9  C   -0.213240
    10  C   -0.215011
    11  C   -0.142858
    12  C   -0.192111
    13  C    0.144654
    14  C   -0.272376
    15  H    0.151189
    16  H    0.168827
    17  H    0.151189
    18  H    0.130208
    19  H    0.148652
    20  H    0.153466
    21  H    0.153466
    22  H    0.167828
    23  H    0.126399
    24  H    0.126118
    25  H    0.123311
    26  H    0.133372
 Sum of Mulliken atomic charges =  -0.00000

 Dipole moment (field-independent basis, Debye):
    X=             -0.6672    Y=             -1.5383    Z=              0.0000  Tot=              1.6768
 Quadrupole moment (field-independent basis, Debye-Ang):
   XX=            -61.5956   YY=            -75.1197   ZZ=            -84.9856
   XY=             -3.0900   XZ=              0.0000   YZ=              0.0000

 Normal termination of Gaussian 09 at Fri Sep  3 00:35:32 2021.
