 Gaussian 09, Revision A.02,
 Gaussian 09:  AM64L-G09RevA.02 11-Jun-2009

 ----------------------------------
 #p b3lyp 6-31G* opt scf(xqc,tight)
 ----------------------------------

 ---------------
 opt calculation
 ---------------
 Symbolic Z-matrix:
 Charge =  0 Multiplicity = 1

 SCF Done:  E(RB3LYP) =  -500.606466434     A.U. after   14 cycles
 SCF Done:  E(RB3LYP) =  -500.608517151     A.U. after   12 cycles
 SCF Done:  E(RB3LYP) =  -500.608861408     A.U. after   12 cycles
 SCF Done:  E(RB3LYP) =  -500.609005265     A.U. after   15 cycles
 SCF Done:  E(RB3LYP) =  -500.609042710     A.U. after   11 cycles
 SCF Done:  E(RB3LYP) =  -500.609053919     A.U. after   10 cycles
 SCF Done:  E(RB3LYP) =  -500.609055330     A.U. after   10 cycles
 SCF Done:  E(RB3LYP) =  -500.609056377     A.U. after    8 cycles
 SCF Done:  E(RB3LYP) =  -500.609056471     A.U. after    7 cycles
 Optimization completed.
    -- Stationary point found.

                         Standard orientation:
 ---------------------------------------------------------------------
 Center     Atomic      Atomic             Coordinates (Angstroms)
 Number     Number       Type             X           Y           Z
 ---------------------------------------------------------------------
      1          6           0       -3.973054    0.324714    0.492673
      2          8           0       -3.024280   -0.659741    0.116311
      3          6           0       -1.730081   -0.268140   -0.078144
      4          6           0       -0.837511   -1.279031   -0.461190
      5          6           0        0.500951   -0.979265   -0.688572
      6          6           0        0.995190    0.329706   -0.543096
      7          6           0        2.464504    0.632168   -0.738395
      8          6           0        3.296244    0.381781    0.534164
      9          8           0        3.256881   -0.970586    0.963777
     10          6           0        0.088744    1.322522   -0.158502
     11          6           0       -1.260819    1.041932    0.072160
     12          1           0       -4.925916   -0.198946    0.589503
     13          1           0       -3.715786    0.788478    1.454436
     14          1           0       -4.066938    1.108884   -0.270540
     15          1           0       -1.217684   -2.288792   -0.581937
     16          1           0        1.177408   -1.771982   -0.999627
     17          1           0        2.874142    0.007613   -1.541587
     18          1           0        2.599368    1.679189   -1.040220
     19          1           0        2.960029    1.062917    1.333215
     20          1           0        4.350747    0.599862    0.335023
     21          1           0        2.330952   -1.174897    1.173814
     22          1           0        0.436997    2.346592   -0.040102
     23          1           0       -1.929133    1.845375    0.360728
 ---------------------------------------------------------------------

 The electronic state is 1-A.
 Alpha  occ. eigenvalues --  -19.17924 -19.13522 -10.24806 -10.24330 -10.22630
 Alpha  occ. eigenvalues --  -10.19202 -10.19109 -10.19029 -10.18999 -10.18622
 Alpha  occ. eigenvalues --  -10.18513  -1.06499  -1.00833  -0.85406  -0.78028
 Alpha  occ. eigenvalues --   -0.74919  -0.72998  -0.68876  -0.62399  -0.61013
 Alpha  occ. eigenvalues --   -0.57466  -0.53340  -0.50047  -0.48476  -0.47217
 Alpha  occ. eigenvalues --   -0.47000  -0.44560  -0.43764  -0.42267  -0.41604
 Alpha  occ. eigenvalues --   -0.40781  -0.38138  -0.37279  -0.35465  -0.35056
 Alpha  occ. eigenvalues --   -0.32603  -0.31980  -0.31395  -0.26182  -0.25260
 Alpha  occ. eigenvalues --   -0.21604
 Alpha virt. eigenvalues --   -0.00535   0.00958   0.08855   0.10025   0.10844
 Alpha virt. eigenvalues --    0.12018   0.13210   0.13845   0.15254   0.15815
 Alpha virt. eigenvalues --    0.16177   0.16653   0.17056   0.17822   0.18811

 Mulliken atomic charges:
              1
     1  C   -0.214977
     2  O   -0.506586
     3  C    0.373449
     4  C   -0.169317
     5  C   -0.210173
     6  C    0.148538
     7  C   -0.353781
     8  C   -0.024281
     9  O   -0.618472
    10  C   -0.192326
    11  C   -0.192119
    12  H    0.170562
    13  H    0.151370
    14  H    0.152048
    15  H    0.140094
    16  H    0.140578
    17  H    0.152607
    18  H    0.136973
    19  H    0.120805
    20  H    0.144555
    21  H    0.393558
    22  H    0.125097
    23  H    0.131797
 Sum of Mulliken atomic charges =  -0.00000

 Dipole moment (field-independent basis, Debye):
    X=             -2.1864    Y=              2.0195    Z=              0.0712  Tot=              2.9772
 Quadrupole moment (field-independent basis, Debye-Ang):
   XX=            -64.0114   YY=            -62.8969   ZZ=            -67.2689
   XY=              1.2457   XZ=             -5.3511   YZ=              1.9485

 Normal termination of Gaussian 09 at Fri Sep  3 00:23:07 2021.
