 Gaussian 09, Revision A.02,
 Gaussian 09:  AM64L-G09RevA.02 11-Jun-2009

 ----------------------------------
 #p b3lyp 6-31G* opt scf(xqc,tight)
 ----------------------------------

 ---------------
 opt calculation
 ---------------
 Symbolic Z-matrix:
 Charge =  0 Multiplicity = 1

 SCF Done:  E(RB3LYP) =  -516.446532188     A.U. after   14 cycles
 SCF Done:  E(RB3LYP) =  -516.452021527     A.U. after   12 cycles
 SCF Done:  E(RB3LYP) =  -516.452410519     A.U. after   16 cycles
 SCF Done:  E(RB3LYP) =  -516.452437700     A.U. after    9 cycles
 SCF Done:  E(RB3LYP) =  -516.452440645     A.U. after    9 cycles
 SCF Done:  E(RB3LYP) =  -516.452440950     A.U. after    8 cycles
 Optimization completed.
    -- Stationary point found.

                         Standard orientation:
 ---------------------------------------------------------------------
 Center     Atomic      Atomic             Coordinates (Angstroms)
 Number     Number       Type             X           Y           Z
 ---------------------------------------------------------------------
      1          6           0       -4.028542    0.021623    0.000001
      2          8           0       -2.889862   -0.825297   -0.000001
      3          6           0       -1.647531   -0.259055   -0.000001
      4          6           0       -1.420330    1.143679   -0.000001
      5          6           0       -0.133718    1.636643   -0.000000
      6          6           0        0.985304    0.767924   -0.000000
      7          7           0        2.237792    1.312529    0.000000
      8          6           0        3.263226    0.486363    0.000000
      9          6           0        3.145509   -0.928664    0.000000
     10          6           0        1.892698   -1.491343    0.000000
     11          6           0        0.750069   -0.645986   -0.000000
     12          6           0       -0.575185   -1.134132   -0.000000
     13          1           0       -4.893259   -0.644526    0.000002
     14          1           0       -4.063180    0.656546   -0.895125
     15          1           0       -4.063178    0.656545    0.895129
     16          1           0       -2.256243    1.833809   -0.000001
     17          1           0        0.056868    2.705320   -0.000000
     18          1           0        4.252859    0.942764    0.000000
     19          1           0        4.040368   -1.544240    0.000001
     20          1           0        1.759327   -2.570751    0.000000
     21          1           0       -0.768202   -2.203111   -0.000000
 ---------------------------------------------------------------------

 The electronic state is 1-A.
 Alpha  occ. eigenvalues --  -19.18180 -14.32319 -10.25335 -10.24560 -10.21791
 Alpha  occ. eigenvalues --  -10.21691 -10.20336 -10.20242 -10.19708 -10.19533
 Alpha  occ. eigenvalues --  -10.19226 -10.18695  -1.06760  -0.93566  -0.84500
 Alpha  occ. eigenvalues --   -0.80222  -0.75713  -0.74464  -0.69857  -0.64248
 Alpha  occ. eigenvalues --   -0.61521  -0.60166  -0.53678  -0.52569  -0.51374
 Alpha  occ. eigenvalues --   -0.47279  -0.47242  -0.45946  -0.43765  -0.42444
 Alpha  occ. eigenvalues --   -0.41184  -0.40622  -0.40192  -0.38326  -0.36414
 Alpha  occ. eigenvalues --   -0.35799  -0.33027  -0.30666  -0.29929  -0.24889
 Alpha  occ. eigenvalues --   -0.24132  -0.21202
 Alpha virt. eigenvalues --   -0.04776  -0.00469   0.02567   0.09193   0.10056
 Alpha virt. eigenvalues --    0.10239   0.11558   0.13787   0.14372   0.15159
 Alpha virt. eigenvalues --    0.16307   0.17099   0.17981   0.19725   0.20044

 Mulliken atomic charges:
              1
     1  C   -0.216511
     2  O   -0.509256
     3  C    0.385468
     4  C   -0.196636
     5  C   -0.149277
     6  C    0.234610
     7  N   -0.497122
     8  C    0.039530
     9  C   -0.154838
    10  C   -0.149108
    11  C    0.166201
    12  C   -0.267720
    13  H    0.172290
    14  H    0.153984
    15  H    0.153984
    16  H    0.137384
    17  H    0.146537
    18  H    0.137065
    19  H    0.135527
    20  H    0.140140
    21  H    0.137746
 Sum of Mulliken atomic charges =  -0.00000

 Dipole moment (field-independent basis, Debye):
    X=             -1.7357    Y=             -0.8200    Z=              0.0000  Tot=              1.9196
 Quadrupole moment (field-independent basis, Debye-Ang):
   XX=            -55.0803   YY=            -67.3679   ZZ=            -71.8224
   XY=             -8.8231   XZ=             -0.0000   YZ=             -0.0000

 Normal termination of Gaussian 09 at Fri Sep  3 00:18:13 2021.
