 Gaussian 09, Revision A.02,
 Gaussian 09:  AM64L-G09RevA.02 11-Jun-2009

 ----------------------------------
 #p b3lyp 6-31G* opt scf(xqc,tight)
 ----------------------------------

 ---------------
 opt calculation
 ---------------
 Symbolic Z-matrix:
 Charge =  0 Multiplicity = 1

 SCF Done:  E(RB3LYP) =  -671.296272930     A.U. after   15 cycles
 SCF Done:  E(RB3LYP) =  -671.301336602     A.U. after   12 cycles
 SCF Done:  E(RB3LYP) =  -671.301592809     A.U. after   11 cycles
 SCF Done:  E(RB3LYP) =  -671.301611351     A.U. after    9 cycles
 SCF Done:  E(RB3LYP) =  -671.301618890     A.U. after    9 cycles
 SCF Done:  E(RB3LYP) =  -671.301625185     A.U. after    9 cycles
 SCF Done:  E(RB3LYP) =  -671.301629689     A.U. after   10 cycles
 SCF Done:  E(RB3LYP) =  -671.301630950     A.U. after    8 cycles
 SCF Done:  E(RB3LYP) =  -671.301631558     A.U. after    7 cycles
 SCF Done:  E(RB3LYP) =  -671.301632481     A.U. after    9 cycles
 SCF Done:  E(RB3LYP) =  -671.301633650     A.U. after    9 cycles
 SCF Done:  E(RB3LYP) =  -671.301633916     A.U. after    7 cycles
 Optimization completed.
    -- Stationary point found.

                         Standard orientation:
 ---------------------------------------------------------------------
 Center     Atomic      Atomic             Coordinates (Angstroms)
 Number     Number       Type             X           Y           Z
 ---------------------------------------------------------------------
      1          6           0       -4.957589   -0.570512    0.007200
      2          8           0       -3.697244   -1.213713    0.003779
      3          6           0       -2.567672   -0.433122   -0.000176
      4          6           0       -2.582114    0.974225    0.004530
      5          6           0       -1.389978    1.703377    0.001105
      6          6           0       -0.183716    1.006960   -0.011750
      7          6           0       -0.159440   -0.413745   -0.008135
      8          6           0       -1.356069   -1.129851   -0.005177
      9          6           0        1.236405   -0.801436   -0.006850
     10          6           0        1.898472   -2.033601   -0.002274
     11          6           0        3.290680   -2.057396    0.005799
     12          6           0        4.024955   -0.858996    0.011314
     13          6           0        3.391700    0.382354    0.006636
     14          6           0        1.993233    0.402199   -0.009585
     15          7           0        1.125307    1.486340   -0.033065
     16          6           0        1.505493    2.879477    0.016067
     17          1           0       -5.702461   -1.369045    0.006019
     18          1           0       -5.097121    0.049957    0.903495
     19          1           0       -5.099255    0.054931   -0.885270
     20          1           0       -3.521840    1.514007    0.015253
     21          1           0       -1.422382    2.788754    0.014342
     22          1           0       -1.375534   -2.215343   -0.003973
     23          1           0        1.331209   -2.960926   -0.002027
     24          1           0        3.815565   -3.008391    0.011154
     25          1           0        5.111009   -0.897966    0.023780
     26          1           0        3.973832    1.299018    0.021772
     27          1           0        2.484651    3.009302   -0.452122
     28          1           0        0.783624    3.477727   -0.547927
     29          1           0        1.553343    3.263696    1.044503
 ---------------------------------------------------------------------

 The electronic state is 1-A.
 Alpha  occ. eigenvalues --  -19.16684 -14.37212 -10.23554 -10.23496 -10.22971
 Alpha  occ. eigenvalues --  -10.21786 -10.21409 -10.18862 -10.18448 -10.18440
 Alpha  occ. eigenvalues --  -10.18437 -10.18334 -10.18314 -10.18112 -10.17838
 Alpha  occ. eigenvalues --  -10.17564  -1.05212  -0.97957  -0.84298  -0.83765
 Alpha  occ. eigenvalues --   -0.78063  -0.75234  -0.74193  -0.71182  -0.70501
 Alpha  occ. eigenvalues --   -0.67152  -0.62889  -0.59436  -0.57421  -0.57239
 Alpha  occ. eigenvalues --   -0.52573  -0.51543  -0.50247  -0.47094  -0.46559
 Alpha  occ. eigenvalues --   -0.46521  -0.45975  -0.44221  -0.43663  -0.42404
 Alpha  occ. eigenvalues --   -0.41605  -0.40618  -0.40296  -0.39631  -0.38226
 Alpha  occ. eigenvalues --   -0.36378  -0.35885  -0.34459  -0.33404  -0.32747
 Alpha  occ. eigenvalues --   -0.31822  -0.29007  -0.27223  -0.23371  -0.20670
 Alpha  occ. eigenvalues --   -0.18264
 Alpha virt. eigenvalues --   -0.02320   0.01564   0.03864   0.05201   0.08611
 Alpha virt. eigenvalues --    0.10146   0.10903   0.11804   0.13203   0.13887
 Alpha virt. eigenvalues --    0.14312   0.15095   0.15784   0.16668   0.17145

 Mulliken atomic charges:
              1
     1  C   -0.210218
     2  O   -0.516367
     3  C    0.375066
     4  C   -0.209753
     5  C   -0.192335
     6  C    0.326523
     7  C    0.073677
     8  C   -0.262328
     9  C    0.052660
    10  C   -0.193981
    11  C   -0.148600
    12  C   -0.139146
    13  C   -0.184000
    14  C    0.326232
    15  N   -0.628136
    16  C   -0.325223
    17  H    0.166073
    18  H    0.146670
    19  H    0.146740
    20  H    0.127224
    21  H    0.126064
    22  H    0.136051
    23  H    0.129894
    24  H    0.121945
    25  H    0.123910
    26  H    0.123771
    27  H    0.171487
    28  H    0.169545
    29  H    0.166555
 Sum of Mulliken atomic charges =  -0.00000

 Dipole moment (field-independent basis, Debye):
    X=             -0.5204    Y=              2.5718    Z=              0.0221  Tot=              2.6240
 Quadrupole moment (field-independent basis, Debye-Ang):
   XX=            -77.7645   YY=            -82.2385   ZZ=            -97.3838
   XY=              0.1835   XZ=             -0.0097   YZ=             -0.0767

 Normal termination of Gaussian 09 at Fri Sep  3 01:23:09 2021.
