 Gaussian 09, Revision A.02,
 Gaussian 09:  AM64L-G09RevA.02 11-Jun-2009

 ----------------------------------
 #p b3lyp 6-31G* opt scf(xqc,tight)
 ----------------------------------

 ---------------
 opt calculation
 ---------------
 Symbolic Z-matrix:
 Charge =  0 Multiplicity = 1

 SCF Done:  E(RB3LYP) =  -855.035838838     A.U. after   14 cycles
 SCF Done:  E(RB3LYP) =  -855.044312730     A.U. after   12 cycles
 SCF Done:  E(RB3LYP) =  -855.045304760     A.U. after   11 cycles
 SCF Done:  E(RB3LYP) =  -855.045407676     A.U. after   11 cycles
 SCF Done:  E(RB3LYP) =  -855.045470606     A.U. after   11 cycles
 SCF Done:  E(RB3LYP) =  -855.045561571     A.U. after   12 cycles
 SCF Done:  E(RB3LYP) =  -855.045582984     A.U. after   12 cycles
 SCF Done:  E(RB3LYP) =  -855.045596941     A.U. after   12 cycles
 SCF Done:  E(RB3LYP) =  -855.045612737     A.U. after   11 cycles
 SCF Done:  E(RB3LYP) =  -855.045620590     A.U. after   11 cycles
 SCF Done:  E(RB3LYP) =  -855.045621571     A.U. after   10 cycles
 SCF Done:  E(RB3LYP) =  -855.045623052     A.U. after    7 cycles
 SCF Done:  E(RB3LYP) =  -855.045624197     A.U. after    9 cycles
 SCF Done:  E(RB3LYP) =  -855.045624298     A.U. after    7 cycles
 Optimization completed.
    -- Stationary point found.

                         Standard orientation:
 ---------------------------------------------------------------------
 Center     Atomic      Atomic             Coordinates (Angstroms)
 Number     Number       Type             X           Y           Z
 ---------------------------------------------------------------------
      1          6           0       -2.684217    3.369559   -0.019027
      2          8           0       -1.437427    2.659502   -0.055062
      3          6           0       -1.489655    1.328165   -0.074520
      4          7           0       -2.674051    0.722355   -0.056256
      5          6           0       -2.586707   -0.616077   -0.072955
      6          8           0       -3.764651   -1.239240   -0.050689
      7          6           0       -3.754261   -2.674772   -0.066061
      8          7           0       -1.468597   -1.337776   -0.108223
      9          6           0       -0.357128   -0.589440   -0.127837
     10          8           0        0.774260   -1.314589   -0.167231
     11          6           0        2.018977   -0.665630   -0.232749
     12          6           0        2.618764   -0.541866   -1.480475
     13          6           0        3.899710    0.002796   -1.571964
     14          6           0        4.560758    0.407300   -0.412371
     15          6           0        3.940868    0.263886    0.829843
     16          6           0        2.655060   -0.276566    0.951417
     17          6           0        1.977931   -0.426882    2.289540
     18          7           0       -0.285449    0.734362   -0.110082
     19          1           0       -2.406680    4.424206   -0.009499
     20          1           0       -3.288750    3.138369   -0.899840
     21          1           0       -3.252569    3.112651    0.878652
     22          1           0       -3.270193   -3.050465   -0.971131
     23          1           0       -3.228622   -3.069247    0.807312
     24          1           0       -4.805714   -2.963565   -0.044393
     25          1           0        2.080271   -0.875934   -2.361778
     26          1           0        4.375437    0.105616   -2.543079
     27          1           0        5.560175    0.829250   -0.471793
     28          1           0        4.462403    0.575555    1.731685
     29          1           0        1.147034    0.282472    2.388523
     30          1           0        1.564026   -1.433034    2.418914
     31          1           0        2.681799   -0.236674    3.105165
 ---------------------------------------------------------------------

 The electronic state is 1-A.
 Alpha  occ. eigenvalues --  -19.20064 -19.19718 -19.19578 -14.33398 -14.33301
 Alpha  occ. eigenvalues --  -14.33265 -10.32693 -10.32419 -10.32324 -10.24565
 Alpha  occ. eigenvalues --  -10.24238 -10.24111 -10.19924 -10.19063 -10.19000
 Alpha  occ. eigenvalues --  -10.18887 -10.18799 -10.18196  -1.11225  -1.09761
 Alpha  occ. eigenvalues --   -1.09392  -0.99533  -0.89882  -0.89662  -0.85410
 Alpha  occ. eigenvalues --   -0.77252  -0.75261  -0.74160  -0.73071  -0.69238
 Alpha  occ. eigenvalues --   -0.66301  -0.63165  -0.60606  -0.59314  -0.57968
 Alpha  occ. eigenvalues --   -0.55656  -0.52251  -0.50887  -0.50294  -0.48681
 Alpha  occ. eigenvalues --   -0.47869  -0.47570  -0.44730  -0.43977  -0.43926
 Alpha  occ. eigenvalues --   -0.43448  -0.42260  -0.41185  -0.40110  -0.39227
 Alpha  occ. eigenvalues --   -0.38948  -0.38637  -0.37279  -0.36071  -0.35682
 Alpha  occ. eigenvalues --   -0.35263  -0.34700  -0.34561  -0.30214  -0.27803
 Alpha  occ. eigenvalues --   -0.27666  -0.27473  -0.27183  -0.24619  -0.23764
 Alpha virt. eigenvalues --   -0.01293  -0.01172   0.00209   0.00320   0.09422
 Alpha virt. eigenvalues --    0.11110   0.11731   0.11887   0.12685   0.12840
 Alpha virt. eigenvalues --    0.13852   0.14476   0.14839   0.15459   0.15696

 Mulliken atomic charges:
              1
     1  C   -0.211080
     2  O   -0.457543
     3  C    0.677508
     4  N   -0.520983
     5  C    0.682502
     6  O   -0.459698
     7  C   -0.211249
     8  N   -0.524067
     9  C    0.668965
    10  O   -0.532959
    11  C    0.286393
    12  C   -0.142398
    13  C   -0.147235
    14  C   -0.113832
    15  C   -0.203570
    16  C    0.184391
    17  C   -0.541132
    18  N   -0.496964
    19  H    0.168640
    20  H    0.173381
    21  H    0.172775
    22  H    0.173938
    23  H    0.173364
    24  H    0.168362
    25  H    0.139839
    26  H    0.133467
    27  H    0.129689
    28  H    0.127143
    29  H    0.176998
    30  H    0.171239
    31  H    0.154120
 Sum of Mulliken atomic charges =  -0.00000

 Dipole moment (field-independent basis, Debye):
    X=             -0.5541    Y=              0.0677    Z=              0.2564  Tot=              0.6143
 Quadrupole moment (field-independent basis, Debye-Ang):
   XX=            -93.2246   YY=            -96.3988   ZZ=            -95.9389
   XY=              2.6284   XZ=              0.1528   YZ=              0.5922

 Normal termination of Gaussian 09 at Fri Sep  3 01:59:08 2021.
