 Gaussian 09, Revision A.02,
 Gaussian 09:  AM64L-G09RevA.02 11-Jun-2009

 ----------------------------------
 #p b3lyp 6-31G* opt scf(xqc,tight)
 ----------------------------------

 ---------------
 opt calculation
 ---------------
 Symbolic Z-matrix:
 Charge =  0 Multiplicity = 1

 SCF Done:  E(RB3LYP) =  -575.627022079     A.U. after   14 cycles
 SCF Done:  E(RB3LYP) =  -575.630898322     A.U. after   12 cycles
 SCF Done:  E(RB3LYP) =  -575.631162798     A.U. after   10 cycles
 SCF Done:  E(RB3LYP) =  -575.631175586     A.U. after    9 cycles
 SCF Done:  E(RB3LYP) =  -575.631177206     A.U. after    8 cycles
 SCF Done:  E(RB3LYP) =  -575.631177379     A.U. after    7 cycles
 Optimization completed.
    -- Stationary point found.

                         Standard orientation:
 ---------------------------------------------------------------------
 Center     Atomic      Atomic             Coordinates (Angstroms)
 Number     Number       Type             X           Y           Z
 ---------------------------------------------------------------------
      1          6           0        4.407462   -0.346511    0.000002
      2          8           0        3.173420   -1.044910   -0.000001
      3          6           0        2.011323   -0.324504   -0.000001
      4          6           0        1.965615    1.093789   -0.000001
      5          6           0        0.744436    1.734519   -0.000000
      6          6           0       -0.473178    1.014065   -0.000000
      7          6           0       -1.743271    1.654074    0.000000
      8          6           0       -2.908456    0.929637    0.000000
      9          6           0       -2.853334   -0.490118    0.000000
     10          8           0       -4.059560   -1.134727    0.000000
     11          6           0       -1.642942   -1.149248   -0.000000
     12          6           0       -0.421943   -0.419906   -0.000000
     13          6           0        0.838535   -1.059885   -0.000001
     14          1           0        4.521008    0.279880    0.894799
     15          1           0        4.521012    0.279881   -0.894794
     16          1           0        5.183837   -1.114093    0.000003
     17          1           0        2.878770    1.677498   -0.000001
     18          1           0        0.709326    2.821653   -0.000000
     19          1           0       -1.780724    2.741018    0.000000
     20          1           0       -3.881677    1.409751    0.000001
     21          1           0       -3.902160   -2.092066    0.000000
     22          1           0       -1.609291   -2.237801   -0.000000
     23          1           0        0.903528   -2.144092   -0.000001
 ---------------------------------------------------------------------

 The electronic state is 1-A.
 Alpha  occ. eigenvalues --  -19.17776 -19.17530 -10.24765 -10.24507 -10.24072
 Alpha  occ. eigenvalues --  -10.19702 -10.19095 -10.19026 -10.18731 -10.18681
 Alpha  occ. eigenvalues --  -10.18340 -10.18118 -10.17645  -1.06084  -1.05751
 Alpha  occ. eigenvalues --   -0.86522  -0.81204  -0.76946  -0.74251  -0.72197
 Alpha  occ. eigenvalues --   -0.68758  -0.63516  -0.59900  -0.59693  -0.54477
 Alpha  occ. eigenvalues --   -0.52957  -0.51139  -0.47393  -0.46685  -0.46331
 Alpha  occ. eigenvalues --   -0.44884  -0.42751  -0.41783  -0.40899  -0.40619
 Alpha  occ. eigenvalues --   -0.39578  -0.37734  -0.37552  -0.35087  -0.33730
 Alpha  occ. eigenvalues --   -0.33576  -0.32164  -0.28206  -0.27421  -0.21281
 Alpha  occ. eigenvalues --   -0.19788
 Alpha virt. eigenvalues --   -0.02964   0.00840   0.04017   0.06997   0.09427
 Alpha virt. eigenvalues --    0.10744   0.11705   0.12294   0.12631   0.14458
 Alpha virt. eigenvalues --    0.15536   0.16741   0.18010   0.19028   0.20233

 Mulliken atomic charges:
              1
     1  C   -0.213781
     2  O   -0.510665
     3  C    0.381183
     4  C   -0.198295
     5  C   -0.205560
     6  C    0.138902
     7  C   -0.197384
     8  C   -0.161194
     9  C    0.353914
    10  O   -0.644644
    11  C   -0.279134
    12  C    0.147689
    13  C   -0.267642
    14  H    0.151537
    15  H    0.151537
    16  H    0.169340
    17  H    0.130277
    18  H    0.130256
    19  H    0.130853
    20  H    0.139577
    21  H    0.407939
    22  H    0.115016
    23  H    0.130280
 Sum of Mulliken atomic charges =  -0.00000

 Dipole moment (field-independent basis, Debye):
    X=              1.6262    Y=             -0.0270    Z=              0.0000  Tot=              1.6264
 Quadrupole moment (field-independent basis, Debye-Ang):
   XX=            -65.8940   YY=            -64.9452   ZZ=            -78.7301
   XY=              6.6388   XZ=              0.0000   YZ=             -0.0000

 Normal termination of Gaussian 09 at Fri Sep  3 00:23:12 2021.
