 Gaussian 09, Revision A.02,
 Gaussian 09:  AM64L-G09RevA.02 11-Jun-2009

 ----------------------------------
 #p b3lyp 6-31G* opt scf(xqc,tight)
 ----------------------------------

 ---------------
 opt calculation
 ---------------
 Symbolic Z-matrix:
 Charge =  0 Multiplicity = 1

 SCF Done:  E(RB3LYP) =  -869.822242357     A.U. after   14 cycles
 SCF Done:  E(RB3LYP) =  -869.826902992     A.U. after   12 cycles
 SCF Done:  E(RB3LYP) =  -869.827373760     A.U. after   11 cycles
 SCF Done:  E(RB3LYP) =  -869.827455408     A.U. after   11 cycles
 SCF Done:  E(RB3LYP) =  -869.827488952     A.U. after   11 cycles
 SCF Done:  E(RB3LYP) =  -869.827497389     A.U. after   11 cycles
 SCF Done:  E(RB3LYP) =  -869.827500556     A.U. after   10 cycles
 SCF Done:  E(RB3LYP) =  -869.827500261     A.U. after   10 cycles
 SCF Done:  E(RB3LYP) =  -869.827497997     A.U. after   10 cycles
 SCF Done:  E(RB3LYP) =  -869.827496554     A.U. after    8 cycles
 SCF Done:  E(RB3LYP) =  -869.827495334     A.U. after    8 cycles
 SCF Done:  E(RB3LYP) =  -869.827494541     A.U. after    8 cycles
 SCF Done:  E(RB3LYP) =  -869.827494073     A.U. after    8 cycles
 SCF Done:  E(RB3LYP) =  -869.827493716     A.U. after    7 cycles
 SCF Done:  E(RB3LYP) =  -869.827493601     A.U. after    6 cycles
 SCF Done:  E(RB3LYP) =  -869.827493554     A.U. after    6 cycles
 SCF Done:  E(RB3LYP) =  -869.827493603     A.U. after    6 cycles
 Optimization completed.
    -- Stationary point found.

                         Standard orientation:
 ---------------------------------------------------------------------
 Center     Atomic      Atomic             Coordinates (Angstroms)
 Number     Number       Type             X           Y           Z
 ---------------------------------------------------------------------
      1          6           0       -4.469520    0.044867   -0.940275
      2         14           0       -2.932186    0.183500    0.130066
      3          6           0       -2.684268    1.951969    0.735847
      4          6           0       -2.996571   -0.999946    1.596478
      5          8           0       -1.670846   -0.266971   -0.905290
      6          6           0       -0.346156   -0.408213   -0.583682
      7          6           0        0.162732   -1.717702   -0.370505
      8          6           0        1.495525   -1.905840   -0.091257
      9          6           0        2.393126   -0.806976   -0.011817
     10          6           0        3.774371   -0.970844    0.274471
     11          6           0        4.616992    0.116275    0.337959
     12          6           0        4.111044    1.420689    0.115901
     13          6           0        2.776663    1.613337   -0.163667
     14          6           0        1.879600    0.512681   -0.235162
     15          6           0        0.499195    0.681030   -0.522404
     16          1           0       -5.369954    0.320984   -0.378157
     17          1           0       -4.604002   -0.978663   -1.307811
     18          1           0       -4.402891    0.705888   -1.811795
     19          1           0       -1.759400    2.056454    1.314675
     20          1           0       -2.637743    2.657817   -0.101741
     21          1           0       -3.515242    2.259151    1.383415
     22          1           0       -3.800050   -0.720891    2.289553
     23          1           0       -2.056497   -0.991237    2.160388
     24          1           0       -3.180482   -2.030617    1.271550
     25          1           0       -0.522073   -2.557208   -0.442350
     26          1           0        1.880703   -2.910021    0.070537
     27          1           0        4.157037   -1.975060    0.443039
     28          1           0        5.672122   -0.022100    0.557610
     29          1           0        4.783590    2.272951    0.166666
     30          1           0        2.389516    2.615099   -0.335188
     31          1           0        0.106358    1.676256   -0.710306
 ---------------------------------------------------------------------

 The electronic state is 1-A.
 Alpha  occ. eigenvalues --  -66.14775 -19.14874 -10.24494 -10.19513 -10.19170
 Alpha  occ. eigenvalues --  -10.19014 -10.18694 -10.18668 -10.18605 -10.18528
 Alpha  occ. eigenvalues --  -10.18509 -10.18119 -10.16370 -10.16346 -10.16284
 Alpha  occ. eigenvalues --   -5.28856  -3.64971  -3.64646  -3.64632  -1.02147
 Alpha  occ. eigenvalues --   -0.86511  -0.81026  -0.76686  -0.73204  -0.71632
 Alpha  occ. eigenvalues --   -0.70702  -0.68001  -0.67983  -0.62303  -0.60556
 Alpha  occ. eigenvalues --   -0.59243  -0.53662  -0.50993  -0.50048  -0.46035
 Alpha  occ. eigenvalues --   -0.44524  -0.43964  -0.42447  -0.42201  -0.41544
 Alpha  occ. eigenvalues --   -0.40993  -0.40781  -0.40329  -0.39295  -0.39044
 Alpha  occ. eigenvalues --   -0.38798  -0.38259  -0.37533  -0.36727  -0.34487
 Alpha  occ. eigenvalues --   -0.33335  -0.31913  -0.31104  -0.29561  -0.27820
 Alpha  occ. eigenvalues --   -0.27495  -0.23017  -0.20574
 Alpha virt. eigenvalues --   -0.03237   0.00013   0.03723   0.07237   0.07908
 Alpha virt. eigenvalues --    0.09726   0.10203   0.10577   0.10849   0.12020
 Alpha virt. eigenvalues --    0.12849   0.13575   0.13878   0.14506   0.16740

 Mulliken atomic charges:
              1
     1  C   -0.663354
     2  Si   0.875733
     3  C   -0.677535
     4  C   -0.677150
     5  O   -0.642846
     6  C    0.382970
     7  C   -0.167125
     8  C   -0.201687
     9  C    0.139590
    10  C   -0.192721
    11  C   -0.137859
    12  C   -0.135567
    13  C   -0.193592
    14  C    0.136977
    15  C   -0.254201
    16  H    0.160540
    17  H    0.170131
    18  H    0.171152
    19  H    0.169893
    20  H    0.164810
    21  H    0.161549
    22  H    0.161404
    23  H    0.172137
    24  H    0.164752
    25  H    0.136391
    26  H    0.131350
    27  H    0.127461
    28  H    0.127231
    29  H    0.127910
    30  H    0.127330
    31  H    0.134324
 Sum of Mulliken atomic charges =  -0.00000

 Dipole moment (field-independent basis, Debye):
    X=             -0.7849    Y=              0.1851    Z=              1.1307  Tot=              1.3888
 Quadrupole moment (field-independent basis, Debye-Ang):
   XX=            -86.3223   YY=            -88.8174   ZZ=           -100.4225
   XY=             -0.8895   XZ=             -0.6569   YZ=             -1.1592

 Normal termination of Gaussian 09 at Fri Sep  3 01:54:02 2021.
