 Gaussian 09, Revision A.02,
 Gaussian 09:  AM64L-G09RevA.02 11-Jun-2009

 ----------------------------------
 #p b3lyp 6-31G* opt scf(xqc,tight)
 ----------------------------------

 ---------------
 opt calculation
 ---------------
 Symbolic Z-matrix:
 Charge =  0 Multiplicity = 1

 SCF Done:  E(RB3LYP) =  -731.705479343     A.U. after   15 cycles
 SCF Done:  E(RB3LYP) =  -731.710719984     A.U. after   12 cycles
 SCF Done:  E(RB3LYP) =  -731.711012573     A.U. after   16 cycles
 SCF Done:  E(RB3LYP) =  -731.709841962     A.U. after   13 cycles
 SCF Done:  E(RB3LYP) =  -731.711055307     A.U. after   13 cycles
 SCF Done:  E(RB3LYP) =  -731.711090535     A.U. after   11 cycles
 SCF Done:  E(RB3LYP) =  -731.711107863     A.U. after   11 cycles
 SCF Done:  E(RB3LYP) =  -731.711126149     A.U. after   11 cycles
 SCF Done:  E(RB3LYP) =  -731.711137278     A.U. after   11 cycles
 SCF Done:  E(RB3LYP) =  -731.711139716     A.U. after   10 cycles
 SCF Done:  E(RB3LYP) =  -731.711139883     A.U. after    8 cycles
 SCF Done:  E(RB3LYP) =  -731.711139900     A.U. after    8 cycles
 Optimization completed.
    -- Stationary point found.

                         Standard orientation:
 ---------------------------------------------------------------------
 Center     Atomic      Atomic             Coordinates (Angstroms)
 Number     Number       Type             X           Y           Z
 ---------------------------------------------------------------------
      1          6           0        4.714006   -0.432294   -0.859724
      2          6           0        3.657635    0.248084    0.025004
      3          6           0        3.669985    1.775573   -0.209163
      4          6           0        3.934273   -0.053742    1.515256
      5          6           0        2.279203   -0.306219   -0.348821
      6          8           0        2.053397   -1.135447   -1.196410
      7          8           0        1.300089    0.274749    0.419894
      8          6           0       -0.036309   -0.096952    0.255316
      9          6           0       -0.436356   -1.452057    0.337935
     10          6           0       -1.773556   -1.761377    0.256621
     11          6           0       -2.760154   -0.750912    0.097391
     12          6           0       -4.146412   -1.047996    0.013315
     13          6           0       -5.075787   -0.043282   -0.136428
     14          6           0       -4.658775    1.308534   -0.208833
     15          6           0       -3.322442    1.630444   -0.130181
     16          6           0       -2.338606    0.616777    0.023462
     17          6           0       -0.952860    0.914572    0.104933
     18          1           0        4.712732   -1.517029   -0.716260
     19          1           0        4.526992   -0.239731   -1.920379
     20          1           0        5.709634   -0.050270   -0.607740
     21          1           0        3.460677    2.017894   -1.257492
     22          1           0        2.928743    2.281436    0.415631
     23          1           0        4.660053    2.176239    0.036937
     24          1           0        3.921557   -1.132349    1.710887
     25          1           0        4.926094    0.324245    1.788667
     26          1           0        3.193391    0.422151    2.163626
     27          1           0        0.310403   -2.227632    0.455668
     28          1           0       -2.091841   -2.799243    0.315912
     29          1           0       -4.462569   -2.087087    0.069358
     30          1           0       -6.133501   -0.283750   -0.199850
     31          1           0       -5.400702    2.093624   -0.327341
     32          1           0       -3.001203    2.667838   -0.186116
     33          1           0       -0.611418    1.944327    0.054114
 ---------------------------------------------------------------------

 The electronic state is 1-A.
 Alpha  occ. eigenvalues --  -19.20027 -19.14118 -10.31712 -10.25292 -10.21527
 Alpha  occ. eigenvalues --  -10.20174 -10.19875 -10.19548 -10.19472 -10.19292
 Alpha  occ. eigenvalues --  -10.19241 -10.19196 -10.19151 -10.19109 -10.18372
 Alpha  occ. eigenvalues --  -10.18359 -10.17533  -1.10728  -1.02418  -0.87435
 Alpha  occ. eigenvalues --   -0.83093  -0.81612  -0.77529  -0.74404  -0.72560
 Alpha  occ. eigenvalues --   -0.69318  -0.68841  -0.66133  -0.62820  -0.60010
 Alpha  occ. eigenvalues --   -0.59753  -0.55940  -0.51685  -0.50774  -0.48967
 Alpha  occ. eigenvalues --   -0.48584  -0.46559  -0.45929  -0.44997  -0.43874
 Alpha  occ. eigenvalues --   -0.43414  -0.42572  -0.42118  -0.41694  -0.40425
 Alpha  occ. eigenvalues --   -0.39315  -0.38863  -0.38413  -0.37778  -0.36961
 Alpha  occ. eigenvalues --   -0.35932  -0.34807  -0.34124  -0.33672  -0.33513
 Alpha  occ. eigenvalues --   -0.32652  -0.30802  -0.28523  -0.27039  -0.23906
 Alpha  occ. eigenvalues --   -0.21478
 Alpha virt. eigenvalues --   -0.03903  -0.01226   0.01075   0.03268   0.08185
 Alpha virt. eigenvalues --    0.09223   0.10134   0.11352   0.11833   0.12628
 Alpha virt. eigenvalues --    0.14600   0.15060   0.15324   0.15695   0.16873

 Mulliken atomic charges:
              1
     1  C   -0.433855
     2  C   -0.009510
     3  C   -0.451332
     4  C   -0.451993
     5  C    0.635016
     6  O   -0.463808
     7  O   -0.538269
     8  C    0.352439
     9  C   -0.136972
    10  C   -0.209952
    11  C    0.146436
    12  C   -0.192602
    13  C   -0.134906
    14  C   -0.136313
    15  C   -0.189269
    16  C    0.130924
    17  C   -0.244215
    18  H    0.155255
    19  H    0.157285
    20  H    0.137387
    21  H    0.152341
    22  H    0.162822
    23  H    0.148649
    24  H    0.149836
    25  H    0.148983
    26  H    0.165777
    27  H    0.150039
    28  H    0.136904
    29  H    0.131416
    30  H    0.130929
    31  H    0.131316
    32  H    0.130903
    33  H    0.138339
 Sum of Mulliken atomic charges =  -0.00000

 Dipole moment (field-independent basis, Debye):
    X=              0.0768    Y=              1.0045    Z=              1.2226  Tot=              1.5843
 Quadrupole moment (field-independent basis, Debye-Ang):
   XX=            -85.5372   YY=            -93.2041   ZZ=           -105.2907
   XY=              3.0944   XZ=              3.4877   YZ=             -3.9041

 Normal termination of Gaussian 09 at Fri Sep  3 01:43:34 2021.
