 Gaussian 09, Revision A.02,
 Gaussian 09:  AM64L-G09RevA.02 11-Jun-2009

 ----------------------------------
 #p b3lyp 6-31G* opt scf(xqc,tight)
 ----------------------------------

 ---------------
 opt calculation
 ---------------
 Symbolic Z-matrix:
 Charge =  0 Multiplicity = 1

 SCF Done:  E(RB3LYP) =  -930.234826355     A.U. after   14 cycles
 SCF Done:  E(RB3LYP) =  -930.243417546     A.U. after   15 cycles
 SCF Done:  E(RB3LYP) =  -930.244439048     A.U. after   13 cycles
 SCF Done:  E(RB3LYP) =  -930.244526861     A.U. after   13 cycles
 SCF Done:  E(RB3LYP) =  -930.244665235     A.U. after   11 cycles
 SCF Done:  E(RB3LYP) =  -930.244688365     A.U. after   10 cycles
 SCF Done:  E(RB3LYP) =  -930.244692589     A.U. after    9 cycles
 SCF Done:  E(RB3LYP) =  -930.244695566     A.U. after    9 cycles
 SCF Done:  E(RB3LYP) =  -930.244697686     A.U. after    9 cycles
 SCF Done:  E(RB3LYP) =  -930.244699592     A.U. after    9 cycles
 SCF Done:  E(RB3LYP) =  -930.244700163     A.U. after    7 cycles
 SCF Done:  E(RB3LYP) =  -930.244700772     A.U. after    8 cycles
 SCF Done:  E(RB3LYP) =  -930.244701214     A.U. after    7 cycles
 SCF Done:  E(RB3LYP) =  -930.244700890     A.U. after    7 cycles
 Optimization completed.
    -- Stationary point found.

                         Standard orientation:
 ---------------------------------------------------------------------
 Center     Atomic      Atomic             Coordinates (Angstroms)
 Number     Number       Type             X           Y           Z
 ---------------------------------------------------------------------
      1          6           0        2.911457    2.910985   -0.811383
      2          8           0        1.633300    2.263749   -0.805795
      3          6           0        1.595504    0.967689   -0.487135
      4          7           0        2.736147    0.339340   -0.183879
      5          6           0        2.566589   -0.956699    0.114978
      6          8           0        3.636117   -1.690859    0.429339
      7          6           0        4.914397   -1.044793    0.429146
      8          7           0        1.413771   -1.621831    0.137578
      9          6           0        0.366306   -0.861961   -0.182415
     10          8           0       -0.802326   -1.528945   -0.182040
     11          6           0       -1.994762   -0.836161   -0.388673
     12          6           0       -2.699968   -1.056741   -1.560155
     13          6           0       -3.949144   -0.456304   -1.746252
     14          6           0       -4.470806    0.358999   -0.746356
     15          6           0       -3.763439    0.576618    0.440953
     16          6           0       -2.517210   -0.025732    0.636050
     17          8           0       -1.747887    0.096236    1.750557
     18          6           0       -2.208213    0.942239    2.792389
     19          7           0        0.376032    0.428958   -0.511537
     20          1           0        3.374203    2.872265    0.178617
     21          1           0        3.583085    2.444310   -1.537237
     22          1           0        2.703779    3.943655   -1.094583
     23          1           0        5.624705   -1.824615    0.706691
     24          1           0        5.152534   -0.647329   -0.561361
     25          1           0        4.941027   -0.228843    1.156770
     26          1           0       -2.261302   -1.701566   -2.315143
     27          1           0       -4.501367   -0.626972   -2.665238
     28          1           0       -5.439332    0.833384   -0.878223
     29          1           0       -4.189529    1.211443    1.209456
     30          1           0       -1.441232    0.903102    3.567739
     31          1           0       -2.325098    1.977417    2.446575
     32          1           0       -3.161029    0.588188    3.207436
 ---------------------------------------------------------------------

 The electronic state is 1-A.
 Alpha  occ. eigenvalues --  -19.19593 -19.19527 -19.19409 -19.18037 -14.33502
 Alpha  occ. eigenvalues --  -14.32777 -14.32480 -10.32216 -10.32055 -10.31992
 Alpha  occ. eigenvalues --  -10.24953 -10.24476 -10.24327 -10.24315 -10.24200
 Alpha  occ. eigenvalues --  -10.18959 -10.18915 -10.18890 -10.18421  -1.10956
 Alpha  occ. eigenvalues --   -1.09613  -1.09206  -1.06497  -0.99231  -0.89524
 Alpha  occ. eigenvalues --   -0.89298  -0.84861  -0.76082  -0.75177  -0.73741
 Alpha  occ. eigenvalues --   -0.73271  -0.70036  -0.65862  -0.64112  -0.60722
 Alpha  occ. eigenvalues --   -0.59609  -0.57658  -0.56261  -0.53205  -0.51410
 Alpha  occ. eigenvalues --   -0.50587  -0.50224  -0.48886  -0.47546  -0.47015
 Alpha  occ. eigenvalues --   -0.46322  -0.44742  -0.44271  -0.43922  -0.43757
 Alpha  occ. eigenvalues --   -0.42223  -0.40839  -0.38979  -0.38411  -0.37755
 Alpha  occ. eigenvalues --   -0.37398  -0.36866  -0.36453  -0.35620  -0.34759
 Alpha  occ. eigenvalues --   -0.33135  -0.31936  -0.30142  -0.27685  -0.27663
 Alpha  occ. eigenvalues --   -0.26923  -0.26372  -0.24401  -0.21621
 Alpha virt. eigenvalues --   -0.00995  -0.00859   0.00664   0.01396   0.08463
 Alpha virt. eigenvalues --    0.09811   0.10490   0.11884   0.12513   0.12985
 Alpha virt. eigenvalues --    0.13430   0.14215   0.15046   0.15351   0.15362

 Mulliken atomic charges:
              1
     1  C   -0.208284
     2  O   -0.458228
     3  C    0.680593
     4  N   -0.551836
     5  C    0.680568
     6  O   -0.455945
     7  C   -0.207778
     8  N   -0.491552
     9  C    0.682060
    10  O   -0.526154
    11  C    0.305226
    12  C   -0.161400
    13  C   -0.145264
    14  C   -0.128004
    15  C   -0.208042
    16  C    0.387890
    17  O   -0.510318
    18  C   -0.215867
    19  N   -0.495341
    20  H    0.166275
    21  H    0.167108
    22  H    0.169900
    23  H    0.170796
    24  H    0.166021
    25  H    0.165475
    26  H    0.143824
    27  H    0.130611
    28  H    0.129761
    29  H    0.135341
    30  H    0.172264
    31  H    0.157182
    32  H    0.153117
 Sum of Mulliken atomic charges =  -0.00000

 Dipole moment (field-independent basis, Debye):
    X=              1.3996    Y=              3.5509    Z=              0.7789  Tot=              3.8955
 Quadrupole moment (field-independent basis, Debye-Ang):
   XX=            -81.6888   YY=           -110.7848   ZZ=            -98.8120
   XY=              2.9735   XZ=             -2.8932   YZ=              6.0351

 Normal termination of Gaussian 09 at Fri Sep  3 02:09:43 2021.
