 Gaussian 09, Revision A.02,
 Gaussian 09:  AM64L-G09RevA.02 11-Jun-2009

 ----------------------------------
 #p b3lyp 6-31G* opt scf(xqc,tight)
 ----------------------------------

 ---------------
 opt calculation
 ---------------
 Symbolic Z-matrix:
 Charge =  0 Multiplicity = 1

 SCF Done:  E(RB3LYP) =  -909.087998092     A.U. after   14 cycles
 SCF Done:  E(RB3LYP) =  -909.092526584     A.U. after   12 cycles
 SCF Done:  E(RB3LYP) =  -909.092801780     A.U. after   11 cycles
 SCF Done:  E(RB3LYP) =  -909.092825890     A.U. after   10 cycles
 SCF Done:  E(RB3LYP) =  -909.092833667     A.U. after    8 cycles
 SCF Done:  E(RB3LYP) =  -909.092839820     A.U. after    8 cycles
 SCF Done:  E(RB3LYP) =  -909.092845300     A.U. after    9 cycles
 SCF Done:  E(RB3LYP) =  -909.092847276     A.U. after   16 cycles
 SCF Done:  E(RB3LYP) =  -909.092847451     A.U. after    6 cycles
 Optimization completed.
    -- Stationary point found.

                         Standard orientation:
 ---------------------------------------------------------------------
 Center     Atomic      Atomic             Coordinates (Angstroms)
 Number     Number       Type             X           Y           Z
 ---------------------------------------------------------------------
      1          6           0        5.542940   -0.989468    0.000007
      2          8           0        4.920857    0.285199   -0.000003
      3          6           0        3.557351    0.332666   -0.000002
      4          6           0        3.013244    1.647502   -0.000001
      5          6           0        1.654994    1.833196   -0.000001
      6          6           0        0.759163    0.726931   -0.000001
      7          6           0       -0.650559    0.889914   -0.000000
      8          6           0       -1.524365   -0.187343   -0.000001
      9         14           0       -3.403083    0.028402    0.000001
     10          6           0       -4.130931   -0.795406    1.544848
     11          6           0       -4.130937   -0.795439   -1.544826
     12          6           0       -3.848441    1.868749   -0.000017
     13          6           0       -0.949266   -1.494414   -0.000003
     14          6           0        0.412458   -1.693088   -0.000003
     15          6           0        1.310541   -0.592447   -0.000002
     16          6           0        2.721669   -0.766904   -0.000003
     17          1           0        5.275134   -1.567600   -0.894402
     18          1           0        6.617795   -0.799442    0.000015
     19          1           0        5.275120   -1.567592    0.894418
     20          1           0        3.704075    2.484856   -0.000000
     21          1           0        1.244797    2.840450    0.000000
     22          1           0       -1.036476    1.907840    0.000000
     23          1           0       -3.759860   -0.318954    2.459902
     24          1           0       -5.225769   -0.724512    1.551342
     25          1           0       -3.869115   -1.859004    1.598364
     26          1           0       -3.759858   -0.319016   -2.459892
     27          1           0       -5.225773   -0.724533   -1.551325
     28          1           0       -3.869133   -1.859042   -1.598312
     29          1           0       -3.459059    2.384321    0.885863
     30          1           0       -3.459063    2.384302   -0.885911
     31          1           0       -4.937884    1.996546   -0.000016
     32          1           0       -1.602387   -2.365454   -0.000003
     33          1           0        0.819687   -2.702137   -0.000004
     34          1           0        3.116909   -1.776949   -0.000004
 ---------------------------------------------------------------------

 The electronic state is 1-A.
 Alpha  occ. eigenvalues --  -66.11403 -19.17906 -10.24704 -10.24131 -10.19485
 Alpha  occ. eigenvalues --  -10.19011 -10.18824 -10.18600 -10.18525 -10.18501
 Alpha  occ. eigenvalues --  -10.18279 -10.18242 -10.16763 -10.15812 -10.15597
 Alpha  occ. eigenvalues --  -10.15597  -5.25850  -3.61743  -3.61721  -3.61706
 Alpha  occ. eigenvalues --   -1.06474  -0.86447  -0.81141  -0.76608  -0.74562
 Alpha  occ. eigenvalues --   -0.71514  -0.70676  -0.68954  -0.67227  -0.67015
 Alpha  occ. eigenvalues --   -0.61636  -0.59483  -0.59048  -0.52743  -0.50782
 Alpha  occ. eigenvalues --   -0.50345  -0.46863  -0.46225  -0.45368  -0.44314
 Alpha  occ. eigenvalues --   -0.42946  -0.41597  -0.41007  -0.40459  -0.40219
 Alpha  occ. eigenvalues --   -0.39625  -0.38855  -0.38379  -0.38278  -0.37760
 Alpha  occ. eigenvalues --   -0.37517  -0.36477  -0.34870  -0.34205  -0.32054
 Alpha  occ. eigenvalues --   -0.30291  -0.29313  -0.28848  -0.28670  -0.27160
 Alpha  occ. eigenvalues --   -0.22424  -0.20317
 Alpha virt. eigenvalues --   -0.03021  -0.00469   0.03913   0.07719   0.09270
 Alpha virt. eigenvalues --    0.09441   0.09822   0.10479   0.11612   0.12165
 Alpha virt. eigenvalues --    0.12203   0.13242   0.14330   0.14599   0.14824

 Mulliken atomic charges:
              1
     1  C   -0.213581
     2  O   -0.508357
     3  C    0.375910
     4  C   -0.170057
     5  C   -0.195182
     6  C    0.153369
     7  C   -0.263482
     8  C   -0.035872
     9  Si   0.666885
    10  C   -0.656537
    11  C   -0.656537
    12  C   -0.665175
    13  C   -0.180500
    14  C   -0.189618
    15  C    0.131962
    16  C   -0.277936
    17  H    0.153145
    18  H    0.169613
    19  H    0.153145
    20  H    0.139283
    21  H    0.131828
    22  H    0.125217
    23  H    0.163110
    24  H    0.156376
    25  H    0.158645
    26  H    0.163110
    27  H    0.156376
    28  H    0.158644
    29  H    0.161453
    30  H    0.161453
    31  H    0.161556
    32  H    0.122036
    33  H    0.121607
    34  H    0.128109
 Sum of Mulliken atomic charges =  -0.00000

 Dipole moment (field-independent basis, Debye):
    X=              0.6127    Y=             -0.9623    Z=              0.0000  Tot=              1.1408
 Quadrupole moment (field-independent basis, Debye-Ang):
   XX=            -91.0436   YY=            -95.4664   ZZ=           -106.5885
   XY=             -7.0621   XZ=              0.0001   YZ=              0.0000

 Normal termination of Gaussian 09 at Fri Sep  3 01:12:37 2021.
