 Gaussian 09, Revision A.02,
 Gaussian 09:  AM64L-G09RevA.02 11-Jun-2009

 ----------------------------------
 #p b3lyp 6-31G* opt scf(xqc,tight)
 ----------------------------------

 ---------------
 opt calculation
 ---------------
 Symbolic Z-matrix:
 Charge =  0 Multiplicity = 1

 SCF Done:  E(RB3LYP) =  -579.045110390     A.U. after   14 cycles
 SCF Done:  E(RB3LYP) =  -579.049519512     A.U. after   12 cycles
 SCF Done:  E(RB3LYP) =  -579.049822214     A.U. after   11 cycles
 SCF Done:  E(RB3LYP) =  -579.049866945     A.U. after   10 cycles
 SCF Done:  E(RB3LYP) =  -579.049898295     A.U. after   11 cycles
 SCF Done:  E(RB3LYP) =  -579.049928522     A.U. after   11 cycles
 SCF Done:  E(RB3LYP) =  -579.049949729     A.U. after   11 cycles
 SCF Done:  E(RB3LYP) =  -579.049965688     A.U. after   10 cycles
 SCF Done:  E(RB3LYP) =  -579.049968783     A.U. after    9 cycles
 SCF Done:  E(RB3LYP) =  -579.049968961     A.U. after    7 cycles
 Optimization completed.
    -- Stationary point found.

                         Standard orientation:
 ---------------------------------------------------------------------
 Center     Atomic      Atomic             Coordinates (Angstroms)
 Number     Number       Type             X           Y           Z
 ---------------------------------------------------------------------
      1          6           0        4.437107   -0.809938   -0.644810
      2          6           0        3.314411    0.108007   -0.173165
      3          6           0        3.607515    0.741134    1.187832
      4          8           0        2.141371   -0.722413   -0.107088
      5          6           0        0.887526   -0.178264   -0.106058
      6          6           0        0.612550    1.206703   -0.270663
      7          6           0       -0.690765    1.654061   -0.279454
      8          6           0       -1.784364    0.766111   -0.126140
      9          6           0       -3.135362    1.206462   -0.130971
     10          6           0       -4.169430    0.311718    0.021447
     11          6           0       -3.894261   -1.069841    0.186607
     12          6           0       -2.597475   -1.528925    0.196355
     13          6           0       -1.503775   -0.630674    0.041327
     14          6           0       -0.159623   -1.070024    0.048359
     15          1           0        5.373960   -0.250187   -0.738003
     16          1           0        4.588634   -1.624311    0.071824
     17          1           0        4.192905   -1.248021   -1.617274
     18          1           0        3.158099    0.890525   -0.928090
     19          1           0        4.500728    1.373720    1.130881
     20          1           0        2.773045    1.358970    1.533295
     21          1           0        3.784172   -0.040909    1.934350
     22          1           0        1.419218    1.920607   -0.388362
     23          1           0       -0.890914    2.715735   -0.405295
     24          1           0       -3.338067    2.267655   -0.258395
     25          1           0       -5.199061    0.658800    0.015904
     26          1           0       -4.717769   -1.769096    0.306327
     27          1           0       -2.388962   -2.588641    0.323357
     28          1           0        0.068724   -2.124716    0.172182
 ---------------------------------------------------------------------

 The electronic state is 1-A.
 Alpha  occ. eigenvalues --  -19.16875 -10.24882 -10.24494 -10.19257 -10.19067
 Alpha  occ. eigenvalues --  -10.18911 -10.18841 -10.18474 -10.18461 -10.18234
 Alpha  occ. eigenvalues --  -10.18222 -10.18171 -10.18102 -10.17646  -1.05474
 Alpha  occ. eigenvalues --   -0.86467  -0.81636  -0.78888  -0.76248  -0.72983
 Alpha  occ. eigenvalues --   -0.70943  -0.69503  -0.62613  -0.62030  -0.59067
 Alpha  occ. eigenvalues --   -0.57672  -0.53052  -0.50909  -0.49902  -0.46378
 Alpha  occ. eigenvalues --   -0.45757  -0.44430  -0.43843  -0.42510  -0.41145
 Alpha  occ. eigenvalues --   -0.40682  -0.39689  -0.39271  -0.38721  -0.38128
 Alpha  occ. eigenvalues --   -0.36851  -0.36177  -0.33969  -0.33791  -0.33080
 Alpha  occ. eigenvalues --   -0.31327  -0.29566  -0.27091  -0.22705  -0.19691
 Alpha virt. eigenvalues --   -0.03157   0.00465   0.04013   0.08840   0.09783
 Alpha virt. eigenvalues --    0.11046   0.11445   0.12195   0.13137   0.14080
 Alpha virt. eigenvalues --    0.15108   0.16017   0.17470   0.17844   0.18221

 Mulliken atomic charges:
              1
     1  C   -0.449772
     2  C    0.138821
     3  C   -0.458628
     4  O   -0.537660
     5  C    0.389867
     6  C   -0.190859
     7  C   -0.207211
     8  C    0.138946
     9  C   -0.190516
    10  C   -0.139994
    11  C   -0.136135
    12  C   -0.192448
    13  C    0.143975
    14  C   -0.269681
    15  H    0.144717
    16  H    0.157574
    17  H    0.160104
    18  H    0.132234
    19  H    0.145389
    20  H    0.160295
    21  H    0.158201
    22  H    0.134140
    23  H    0.130399
    24  H    0.125713
    25  H    0.125713
    26  H    0.126952
    27  H    0.127617
    28  H    0.132246
 Sum of Mulliken atomic charges =  -0.00000

 Dipole moment (field-independent basis, Debye):
    X=              1.3708    Y=              1.0475    Z=             -0.0288  Tot=              1.7255
 Quadrupole moment (field-independent basis, Debye-Ang):
   XX=            -71.0656   YY=            -77.0222   ZZ=            -86.1671
   XY=              2.4343   XZ=             -0.5659   YZ=             -1.4461

 Normal termination of Gaussian 09 at Fri Sep  3 00:55:37 2021.
