 Gaussian 09, Revision A.02,
 Gaussian 09:  AM64L-G09RevA.02 11-Jun-2009

 ----------------------------------
 #p b3lyp 6-31G* opt scf(xqc,tight)
 ----------------------------------

 ---------------
 opt calculation
 ---------------
 Symbolic Z-matrix:
 Charge =  0 Multiplicity = 1

 SCF Done:  E(RB3LYP) =  -984.343375299     A.U. after   14 cycles
 SCF Done:  E(RB3LYP) =  -984.348981301     A.U. after   12 cycles
 SCF Done:  E(RB3LYP) =  -984.349562586     A.U. after   12 cycles
 SCF Done:  E(RB3LYP) =  -984.349643706     A.U. after   11 cycles
 SCF Done:  E(RB3LYP) =  -984.349667586     A.U. after   10 cycles
 SCF Done:  E(RB3LYP) =  -984.349673234     A.U. after    8 cycles
 SCF Done:  E(RB3LYP) =  -984.349673919     A.U. after    7 cycles
 Optimization completed.
    -- Stationary point found.

                         Standard orientation:
 ---------------------------------------------------------------------
 Center     Atomic      Atomic             Coordinates (Angstroms)
 Number     Number       Type             X           Y           Z
 ---------------------------------------------------------------------
      1          6           0        5.815178   -1.342711    0.000001
      2          8           0        5.359699   -0.000758    0.000001
      3          6           0        4.009952    0.215304    0.000000
      4          6           0        3.631945    1.587148    0.000000
      5          6           0        2.308523    1.944321   -0.000000
      6          6           0        1.278194    0.960123   -0.000001
      7          6           0       -0.094906    1.303321   -0.000001
      8          6           0       -1.073574    0.327340   -0.000002
      9          8           0       -2.377780    0.730699   -0.000003
     10         14           0       -3.855354   -0.088924    0.000001
     11          6           0       -4.029446   -1.144581    1.554754
     12          6           0       -5.122471    1.298079   -0.000001
     13          6           0       -4.029449   -1.144588   -1.554747
     14          6           0       -0.694575   -1.040704   -0.000002
     15          6           0        0.636615   -1.396060   -0.000001
     16          6           0        1.663631   -0.418249   -0.000001
     17          6           0        3.043400   -0.768895   -0.000000
     18          1           0        5.476366   -1.883110    0.894274
     19          1           0        5.476367   -1.883109   -0.894272
     20          1           0        6.905662   -1.291426    0.000001
     21          1           0        4.421475    2.332360    0.000001
     22          1           0        2.029954    2.995307   -0.000000
     23          1           0       -0.394846    2.347387   -0.000002
     24          1           0       -5.028120   -1.597348    1.599676
     25          1           0       -3.296617   -1.957788    1.598337
     26          1           0       -3.901281   -0.535162    2.456923
     27          1           0       -6.145290    0.902012    0.000000
     28          1           0       -5.009093    1.934392   -0.884877
     29          1           0       -5.009092    1.934396    0.884871
     30          1           0       -5.028125   -1.597351   -1.599668
     31          1           0       -3.296624   -1.957799   -1.598325
     32          1           0       -3.901281   -0.535175   -2.456919
     33          1           0       -1.457945   -1.812018   -0.000003
     34          1           0        0.912009   -2.448300   -0.000001
     35          1           0        3.307986   -1.820936    0.000000
 ---------------------------------------------------------------------

 The electronic state is 1-A.
 Alpha  occ. eigenvalues --  -66.14856 -19.17408 -19.15067 -10.24232 -10.24083
 Alpha  occ. eigenvalues --  -10.23800 -10.19006 -10.18865 -10.18680 -10.18582
 Alpha  occ. eigenvalues --  -10.18529 -10.18280 -10.17995 -10.17453 -10.16466
 Alpha  occ. eigenvalues --  -10.16466 -10.16208  -5.28946  -3.65061  -3.64734
 Alpha  occ. eigenvalues --   -3.64724  -1.05957  -1.02218  -0.86184  -0.80877
 Alpha  occ. eigenvalues --   -0.76413  -0.74162  -0.71959  -0.71002  -0.68894
 Alpha  occ. eigenvalues --   -0.68110  -0.67900  -0.62084  -0.59961  -0.59227
 Alpha  occ. eigenvalues --   -0.54228  -0.52498  -0.50731  -0.47233  -0.46475
 Alpha  occ. eigenvalues --   -0.46057  -0.44568  -0.44074  -0.42822  -0.41754
 Alpha  occ. eigenvalues --   -0.41748  -0.40926  -0.40401  -0.40179  -0.39568
 Alpha  occ. eigenvalues --   -0.38995  -0.38903  -0.38282  -0.37895  -0.37197
 Alpha  occ. eigenvalues --   -0.36386  -0.34252  -0.33559  -0.32765  -0.31629
 Alpha  occ. eigenvalues --   -0.30110  -0.28905  -0.28660  -0.25665  -0.22243
 Alpha  occ. eigenvalues --   -0.18959
 Alpha virt. eigenvalues --   -0.02736   0.01045   0.04169   0.06850   0.07976
 Alpha virt. eigenvalues --    0.09355   0.09804   0.10292   0.11043   0.11922
 Alpha virt. eigenvalues --    0.12742   0.13011   0.13922   0.13946   0.14977

 Mulliken atomic charges:
              1
     1  C   -0.211634
     2  O   -0.510873
     3  C    0.370925
     4  C   -0.169640
     5  C   -0.197211
     6  C    0.141273
     7  C   -0.265843
     8  C    0.396652
     9  O   -0.628781
    10  Si   0.892669
    11  C   -0.684237
    12  C   -0.661423
    13  C   -0.684238
    14  C   -0.193867
    15  C   -0.210757
    16  C    0.142258
    17  C   -0.277660
    18  H    0.150730
    19  H    0.150731
    20  H    0.167781
    21  H    0.137990
    22  H    0.131150
    23  H    0.132378
    24  H    0.161595
    25  H    0.164360
    26  H    0.171414
    27  H    0.160194
    28  H    0.171405
    29  H    0.171405
    30  H    0.161595
    31  H    0.164360
    32  H    0.171415
    33  H    0.132674
    34  H    0.125467
    35  H    0.125744
 Sum of Mulliken atomic charges =  -0.00000

 Dipole moment (field-independent basis, Debye):
    X=             -0.7656    Y=             -2.0444    Z=              0.0000  Tot=              2.1831
 Quadrupole moment (field-independent basis, Debye-Ang):
   XX=            -93.0546   YY=            -99.8952   ZZ=           -110.9096
   XY=             -4.6633   XZ=             -0.0000   YZ=              0.0000

 Normal termination of Gaussian 09 at Fri Sep  3 01:05:07 2021.
