 Gaussian 09, Revision A.02,
 Gaussian 09:  AM64L-G09RevA.02 11-Jun-2009

 ----------------------------------
 #p b3lyp 6-31G* opt scf(xqc,tight)
 ----------------------------------

 ---------------
 opt calculation
 ---------------
 Symbolic Z-matrix:
 Charge =  0 Multiplicity = 1

 SCF Done:  E(RB3LYP) =  -815.715975895     A.U. after   14 cycles
 SCF Done:  E(RB3LYP) =  -815.723574277     A.U. after   12 cycles
 SCF Done:  E(RB3LYP) =  -815.724613067     A.U. after   12 cycles
 SCF Done:  E(RB3LYP) =  -815.724732745     A.U. after   11 cycles
 SCF Done:  E(RB3LYP) =  -815.724772544     A.U. after   11 cycles
 SCF Done:  E(RB3LYP) =  -815.724793279     A.U. after   11 cycles
 SCF Done:  E(RB3LYP) =  -815.724793777     A.U. after    7 cycles
 SCF Done:  E(RB3LYP) =  -815.724793984     A.U. after    7 cycles
 Optimization completed.
    -- Stationary point found.

                         Standard orientation:
 ---------------------------------------------------------------------
 Center     Atomic      Atomic             Coordinates (Angstroms)
 Number     Number       Type             X           Y           Z
 ---------------------------------------------------------------------
      1          6           0        2.710638    2.991363   -0.268913
      2          8           0        1.415635    2.378964   -0.219001
      3          6           0        1.360185    1.051083   -0.108197
      4          7           0        2.499122    0.354118   -0.046079
      5          6           0        2.309358   -0.968710    0.065425
      6          8           0        3.373937   -1.769123    0.134272
      7          6           0        4.671947   -1.164229    0.083336
      8          7           0        1.138509   -1.600982    0.117650
      9          6           0        0.094474   -0.774581    0.042953
     10          8           0       -1.092376   -1.406961    0.082506
     11          6           0       -2.290088   -0.683964    0.058472
     12          6           0       -2.686552    0.076607    1.155813
     13          6           0       -3.935896    0.695234    1.130428
     14          6           0       -4.777283    0.546209    0.024925
     15          6           0       -4.365906   -0.227161   -1.061521
     16          6           0       -3.115569   -0.848205   -1.049090
     17          7           0        0.122362    0.552361   -0.070500
     18          1           0        2.513571    4.060126   -0.360756
     19          1           0        3.279310    2.632331   -1.130929
     20          1           0        3.275921    2.784233    0.643835
     21          1           0        4.813907   -0.621464   -0.855167
     22          1           0        5.373413   -1.996624    0.151446
     23          1           0        4.815453   -0.475184    0.920137
     24          1           0       -2.024481    0.181251    2.008584
     25          1           0       -4.252952    1.293538    1.980111
     26          1           0       -5.750449    1.028813    0.012973
     27          1           0       -5.016819   -0.350888   -1.922575
     28          1           0       -2.776258   -1.459522   -1.879172
 ---------------------------------------------------------------------

 The electronic state is 1-A.
 Alpha  occ. eigenvalues --  -19.20004 -19.19992 -19.19820 -14.33947 -14.33306
 Alpha  occ. eigenvalues --  -14.32970 -10.32714 -10.32569 -10.32529 -10.24968
 Alpha  occ. eigenvalues --  -10.24763 -10.24636 -10.19318 -10.19308 -10.19192
 Alpha  occ. eigenvalues --  -10.19123 -10.18963  -1.11338  -1.09875  -1.09634
 Alpha  occ. eigenvalues --   -0.99698  -0.89996  -0.89792  -0.85245  -0.75963
 Alpha  occ. eigenvalues --   -0.74898  -0.74025  -0.73450  -0.66480  -0.64531
 Alpha  occ. eigenvalues --   -0.61356  -0.60144  -0.57939  -0.56248  -0.52810
 Alpha  occ. eigenvalues --   -0.51116  -0.50464  -0.49600  -0.47900  -0.47315
 Alpha  occ. eigenvalues --   -0.45191  -0.44364  -0.44135  -0.43835  -0.42466
 Alpha  occ. eigenvalues --   -0.41114  -0.39100  -0.38799  -0.37797  -0.37209
 Alpha  occ. eigenvalues --   -0.36409  -0.35469  -0.35117  -0.34864  -0.30558
 Alpha  occ. eigenvalues --   -0.28342  -0.28113  -0.27414  -0.26885  -0.25127
 Alpha  occ. eigenvalues --   -0.23945
 Alpha virt. eigenvalues --   -0.01560  -0.01402  -0.00017   0.00577   0.08884
 Alpha virt. eigenvalues --    0.09565   0.11554   0.12149   0.13144   0.13734
 Alpha virt. eigenvalues --    0.14327   0.15029   0.15072   0.15168   0.15446

 Mulliken atomic charges:
              1
     1  C   -0.209471
     2  O   -0.455823
     3  C    0.681964
     4  N   -0.549891
     5  C    0.681447
     6  O   -0.454675
     7  C   -0.208882
     8  N   -0.488073
     9  C    0.658975
    10  O   -0.526112
    11  C    0.348311
    12  C   -0.126987
    13  C   -0.143148
    14  C   -0.121047
    15  C   -0.141443
    16  C   -0.152522
    17  N   -0.495848
    18  H    0.172123
    19  H    0.168211
    20  H    0.167572
    21  H    0.167168
    22  H    0.172353
    23  H    0.166786
    24  H    0.142215
    25  H    0.135477
    26  H    0.131191
    27  H    0.135542
    28  H    0.144588
 Sum of Mulliken atomic charges =  -0.00000

 Dipole moment (field-independent basis, Debye):
    X=              2.1792    Y=              2.6842    Z=             -0.1483  Tot=              3.4607
 Quadrupole moment (field-independent basis, Debye-Ang):
   XX=            -71.2222   YY=           -100.2425   ZZ=            -90.9953
   XY=              3.9607   XZ=              0.5415   YZ=              3.0725

 Normal termination of Gaussian 09 at Fri Sep  3 00:58:22 2021.
