 Gaussian 09, Revision A.02,
 Gaussian 09:  AM64L-G09RevA.02 11-Jun-2009

 ----------------------------------
 #p b3lyp 6-31G* opt scf(xqc,tight)
 ----------------------------------

 ---------------
 opt calculation
 ---------------
 Symbolic Z-matrix:
 Charge =  0 Multiplicity = 1

 SCF Done:  E(RB3LYP) =  -969.357423268     A.U. after   14 cycles
 SCF Done:  E(RB3LYP) =  -969.368033508     A.U. after   12 cycles
 SCF Done:  E(RB3LYP) =  -969.369172193     A.U. after   12 cycles
 SCF Done:  E(RB3LYP) =  -969.369275942     A.U. after   15 cycles
 SCF Done:  E(RB3LYP) =  -969.369309296     A.U. after   10 cycles
 SCF Done:  E(RB3LYP) =  -969.369355288     A.U. after   11 cycles
 SCF Done:  E(RB3LYP) =  -969.369447736     A.U. after   12 cycles
 SCF Done:  E(RB3LYP) =  -969.369481371     A.U. after   12 cycles
 SCF Done:  E(RB3LYP) =  -969.369597458     A.U. after   14 cycles
 SCF Done:  E(RB3LYP) =  -969.369688377     A.U. after   12 cycles
 SCF Done:  E(RB3LYP) =  -969.369641439     A.U. after   12 cycles
 SCF Done:  E(RB3LYP) =  -969.369743923     A.U. after   14 cycles
 SCF Done:  E(RB3LYP) =  -969.369732194     A.U. after   11 cycles
 SCF Done:  E(RB3LYP) =  -969.369756825     A.U. after   12 cycles
 SCF Done:  E(RB3LYP) =  -969.369755457     A.U. after   11 cycles
 SCF Done:  E(RB3LYP) =  -969.369756599     A.U. after    8 cycles
 SCF Done:  E(RB3LYP) =  -969.369756091     A.U. after    7 cycles
 SCF Done:  E(RB3LYP) =  -969.369755932     A.U. after    7 cycles
 Optimization completed.
    -- Stationary point found.

                         Standard orientation:
 ---------------------------------------------------------------------
 Center     Atomic      Atomic             Coordinates (Angstroms)
 Number     Number       Type             X           Y           Z
 ---------------------------------------------------------------------
      1          6           0        1.064127    3.366126   -0.421859
      2          8           0        2.374482    2.781724   -0.442584
      3          6           0        2.469998    1.465406   -0.257377
      4          7           0        3.710963    0.985745   -0.297610
      5          6           0        3.770951   -0.334974   -0.110918
      6          8           0        5.002935   -0.841275   -0.149291
      7          6           0        5.147790   -2.256424    0.038819
      8          7           0        2.740181   -1.162579    0.103708
      9          6           0        1.562723   -0.540825    0.117276
     10          8           0        0.515257   -1.363375    0.320381
     11          6           0       -0.776954   -0.837957    0.422656
     12          6           0       -1.155641   -0.132101    1.587906
     13          6           0       -2.456339    0.291028    1.723337
     14          6           0       -3.425538    0.027159    0.716746
     15          6           0       -4.775498    0.452430    0.833148
     16          6           0       -5.690155    0.176935   -0.158527
     17          6           0       -5.294542   -0.539931   -1.314187
     18          6           0       -3.993639   -0.967933   -1.457191
     19          6           0       -3.025686   -0.698313   -0.453035
     20          6           0       -1.675483   -1.124095   -0.572765
     21          7           0        1.345344    0.760531   -0.054629
     22          1           0        0.434874    2.941451   -1.208286
     23          1           0        1.228842    4.430082   -0.595791
     24          1           0        0.579877    3.206166    0.545041
     25          1           0        4.771498   -2.560092    1.019112
     26          1           0        6.220260   -2.440655   -0.034059
     27          1           0        4.609385   -2.809424   -0.735201
     28          1           0       -0.415796    0.060282    2.357615
     29          1           0       -2.760851    0.833587    2.614908
     30          1           0       -5.075767    1.001410    1.722646
     31          1           0       -6.720048    0.508087   -0.057653
     32          1           0       -6.024776   -0.752334   -2.090307
     33          1           0       -3.688872   -1.518960   -2.343619
     34          1           0       -1.352112   -1.681261   -1.446906
 ---------------------------------------------------------------------

 The electronic state is 1-A.
 Alpha  occ. eigenvalues --  -19.20698 -19.19586 -19.19431 -14.33832 -14.33498
 Alpha  occ. eigenvalues --  -14.32851 -10.33098 -10.32386 -10.32224 -10.25797
 Alpha  occ. eigenvalues --  -10.24212 -10.24026 -10.20697 -10.20446 -10.20188
 Alpha  occ. eigenvalues --  -10.20122 -10.19809 -10.19704 -10.19686 -10.19613
 Alpha  occ. eigenvalues --  -10.19592  -1.11543  -1.09931  -1.09293  -0.99668
 Alpha  occ. eigenvalues --   -0.90179  -0.89602  -0.87824  -0.82688  -0.78087
 Alpha  occ. eigenvalues --   -0.75298  -0.74739  -0.73119  -0.71895  -0.67926
 Alpha  occ. eigenvalues --   -0.63728  -0.62952  -0.61167  -0.60421  -0.58209
 Alpha  occ. eigenvalues --   -0.56760  -0.52759  -0.52195  -0.51488  -0.50634
 Alpha  occ. eigenvalues --   -0.49847  -0.47551  -0.47400  -0.45941  -0.45301
 Alpha  occ. eigenvalues --   -0.44507  -0.43676  -0.43063  -0.42527  -0.42262
 Alpha  occ. eigenvalues --   -0.41520  -0.39837  -0.38982  -0.38873  -0.37852
 Alpha  occ. eigenvalues --   -0.36993  -0.35792  -0.35611  -0.35203  -0.34101
 Alpha  occ. eigenvalues --   -0.32828  -0.30625  -0.29039  -0.28176  -0.27702
 Alpha  occ. eigenvalues --   -0.27307  -0.26983  -0.24414  -0.22112
 Alpha virt. eigenvalues --   -0.04438  -0.01823  -0.01241  -0.00798   0.02697
 Alpha virt. eigenvalues --    0.08716   0.09317   0.10706   0.11305   0.11563
 Alpha virt. eigenvalues --    0.11932   0.12340   0.13619   0.14179   0.15130

 Mulliken atomic charges:
              1
     1  C   -0.211075
     2  O   -0.456208
     3  C    0.678733
     4  N   -0.486902
     5  C    0.678936
     6  O   -0.456103
     7  C   -0.210504
     8  N   -0.521658
     9  C    0.664759
    10  O   -0.531515
    11  C    0.353681
    12  C   -0.137297
    13  C   -0.209976
    14  C    0.147060
    15  C   -0.193826
    16  C   -0.134405
    17  C   -0.135901
    18  C   -0.189118
    19  C    0.126982
    20  C   -0.233827
    21  N   -0.526846
    22  H    0.173449
    23  H    0.170062
    24  H    0.170107
    25  H    0.172229
    26  H    0.169239
    27  H    0.172283
    28  H    0.143478
    29  H    0.137428
    30  H    0.132104
    31  H    0.132792
    32  H    0.133575
    33  H    0.134017
    34  H    0.144247
 Sum of Mulliken atomic charges =  -0.00000

 Dipole moment (field-independent basis, Debye):
    X=             -2.9469    Y=             -0.1630    Z=              0.3113  Tot=              2.9678
 Quadrupole moment (field-independent basis, Debye-Ang):
   XX=           -116.4769   YY=           -114.2391   ZZ=           -111.4935
   XY=            -14.5176   XZ=              3.3988   YZ=              5.0140

 Normal termination of Gaussian 09 at Fri Sep  3 03:27:07 2021.
