 Gaussian 09, Revision A.02,
 Gaussian 09:  AM64L-G09RevA.02 11-Jun-2009

 ----------------------------------
 #p b3lyp 6-31G* opt scf(xqc,tight)
 ----------------------------------

 ---------------
 opt calculation
 ---------------
 Symbolic Z-matrix:
 Charge =  0 Multiplicity = 1

 SCF Done:  E(RB3LYP) =  -909.131081913     A.U. after   14 cycles
 SCF Done:  E(RB3LYP) =  -909.136610775     A.U. after   12 cycles
 SCF Done:  E(RB3LYP) =  -909.137229100     A.U. after   12 cycles
 SCF Done:  E(RB3LYP) =  -909.137335319     A.U. after   11 cycles
 SCF Done:  E(RB3LYP) =  -909.137365156     A.U. after   11 cycles
 SCF Done:  E(RB3LYP) =  -909.137369492     A.U. after    9 cycles
 SCF Done:  E(RB3LYP) =  -909.137371212     A.U. after    8 cycles
 SCF Done:  E(RB3LYP) =  -909.137372376     A.U. after    9 cycles
 SCF Done:  E(RB3LYP) =  -909.137373347     A.U. after    9 cycles
 SCF Done:  E(RB3LYP) =  -909.137373881     A.U. after    8 cycles
 SCF Done:  E(RB3LYP) =  -909.137374084     A.U. after    8 cycles
 SCF Done:  E(RB3LYP) =  -909.137374067     A.U. after    7 cycles
 SCF Done:  E(RB3LYP) =  -909.137374060     A.U. after    6 cycles
 SCF Done:  E(RB3LYP) =  -909.137374032     A.U. after    7 cycles
 SCF Done:  E(RB3LYP) =  -909.137373942     A.U. after    7 cycles
 SCF Done:  E(RB3LYP) =  -909.137373703     A.U. after    7 cycles
 SCF Done:  E(RB3LYP) =  -909.137373254     A.U. after    8 cycles
 SCF Done:  E(RB3LYP) =  -909.137372966     A.U. after    7 cycles
 Optimization completed.
    -- Stationary point found.

                         Standard orientation:
 ---------------------------------------------------------------------
 Center     Atomic      Atomic             Coordinates (Angstroms)
 Number     Number       Type             X           Y           Z
 ---------------------------------------------------------------------
      1          6           0        4.456417    1.498789    0.728080
      2          6           0        4.221968    0.387465   -0.310645
      3         14           0        2.602054   -0.560571   -0.122644
      4          6           0        2.415787   -1.807619   -1.526149
      5          6           0        2.489836   -1.406546    1.560509
      6          8           0        1.427061    0.654451   -0.248585
      7          6           0        0.066665    0.649866   -0.178205
      8          6           0       -0.561828    1.922317   -0.273496
      9          6           0       -1.928859    2.030269   -0.216262
     10          6           0       -2.753127    0.882200   -0.060886
     11          6           0       -4.168635    0.962079    0.002505
     12          6           0       -4.935473   -0.172177    0.153345
     13          6           0       -4.312515   -1.440288    0.247254
     14          6           0       -2.940857   -1.550792    0.188951
     15          6           0       -2.121017   -0.399957    0.034083
     16          6           0       -0.704299   -0.486608   -0.028714
     17          1           0        5.400117    2.026724    0.545170
     18          1           0        3.649590    2.238762    0.700983
     19          1           0        4.500252    1.095854    1.746860
     20          1           0        4.242904    0.816416   -1.322287
     21          1           0        5.049070   -0.337178   -0.278771
     22          1           0        2.443021   -1.304520   -2.499707
     23          1           0        1.477838   -2.370735   -1.471284
     24          1           0        3.238343   -2.533745   -1.504924
     25          1           0        2.594784   -0.680371    2.374605
     26          1           0        1.537201   -1.927344    1.705461
     27          1           0        3.291980   -2.147329    1.670411
     28          1           0        0.072051    2.795568   -0.392099
     29          1           0       -2.399519    3.007944   -0.290288
     30          1           0       -4.639663    1.939919   -0.070653
     31          1           0       -6.018484   -0.098296    0.200617
     32          1           0       -4.923645   -2.331219    0.366138
     33          1           0       -2.465287   -2.526371    0.261594
     34          1           0       -0.240178   -1.465676    0.041654
 ---------------------------------------------------------------------

 The electronic state is 1-A.
 Alpha  occ. eigenvalues --  -66.14810 -19.15502 -10.24782 -10.19412 -10.18921
 Alpha  occ. eigenvalues --  -10.18833 -10.18539 -10.18492 -10.18366 -10.18334
 Alpha  occ. eigenvalues --  -10.18287 -10.18098 -10.17562 -10.16920 -10.16621
 Alpha  occ. eigenvalues --  -10.16602  -5.28932  -3.65055  -3.64711  -3.64701
 Alpha  occ. eigenvalues --   -1.02690  -0.86369  -0.80914  -0.76572  -0.75137
 Alpha  occ. eigenvalues --   -0.72989  -0.71032  -0.70329  -0.68263  -0.62779
 Alpha  occ. eigenvalues --   -0.61334  -0.60234  -0.59220  -0.53954  -0.50948
 Alpha  occ. eigenvalues --   -0.50187  -0.45532  -0.44607  -0.44467  -0.43498
 Alpha  occ. eigenvalues --   -0.42242  -0.41847  -0.41696  -0.41144  -0.40632
 Alpha  occ. eigenvalues --   -0.40188  -0.39850  -0.39066  -0.38863  -0.37443
 Alpha  occ. eigenvalues --   -0.36803  -0.36053  -0.34561  -0.34270  -0.33232
 Alpha  occ. eigenvalues --   -0.31334  -0.31176  -0.29182  -0.28104  -0.27411
 Alpha  occ. eigenvalues --   -0.22554  -0.20207
 Alpha virt. eigenvalues --   -0.03003   0.00304   0.03822   0.06720   0.07356
 Alpha virt. eigenvalues --    0.09055   0.09847   0.10339   0.11422   0.11744
 Alpha virt. eigenvalues --    0.12010   0.13030   0.14176   0.14967   0.15641

 Mulliken atomic charges:
              1
     1  C   -0.446856
     2  C   -0.463788
     3  Si   0.899645
     4  C   -0.685578
     5  C   -0.688302
     6  O   -0.631030
     7  C    0.391127
     8  C   -0.170482
     9  C   -0.199874
    10  C    0.135628
    11  C   -0.191995
    12  C   -0.139472
    13  C   -0.134253
    14  C   -0.196910
    15  C    0.138820
    16  C   -0.280138
    17  H    0.141971
    18  H    0.164075
    19  H    0.144622
    20  H    0.157500
    21  H    0.148097
    22  H    0.171801
    23  H    0.167272
    24  H    0.162765
    25  H    0.172279
    26  H    0.167620
    27  H    0.161841
    28  H    0.137180
    29  H    0.130829
    30  H    0.126725
    31  H    0.126054
    32  H    0.126507
    33  H    0.122935
    34  H    0.133385
 Sum of Mulliken atomic charges =  -0.00000

 Dipole moment (field-independent basis, Debye):
    X=              1.0127    Y=             -0.8781    Z=              0.0651  Tot=              1.3420
 Quadrupole moment (field-independent basis, Debye-Ang):
   XX=            -93.9348   YY=            -95.8033   ZZ=           -106.0907
   XY=             -3.0435   XZ=             -0.4787   YZ=             -0.9756

 Normal termination of Gaussian 09 at Fri Sep  3 02:16:00 2021.
