 Gaussian 09, Revision A.02,
 Gaussian 09:  AM64L-G09RevA.02 11-Jun-2009

 ----------------------------------
 #p b3lyp 6-31G* opt scf(xqc,tight)
 ----------------------------------

 ---------------
 opt calculation
 ---------------
 Symbolic Z-matrix:
 Charge =  0 Multiplicity = 1

 SCF Done:  E(RB3LYP) =  -517.644433969     A.U. after   14 cycles
 SCF Done:  E(RB3LYP) =  -517.647982493     A.U. after   12 cycles
 SCF Done:  E(RB3LYP) =  -517.648267444     A.U. after   11 cycles
 SCF Done:  E(RB3LYP) =  -517.648277357     A.U. after    8 cycles
 SCF Done:  E(RB3LYP) =  -517.648278165     A.U. after   17 cycles
 SCF Done:  E(RB3LYP) =  -517.648278306     A.U. after    7 cycles
 Optimization completed.
    -- Stationary point found.

                         Standard orientation:
 ---------------------------------------------------------------------
 Center     Atomic      Atomic             Coordinates (Angstroms)
 Number     Number       Type             X           Y           Z
 ---------------------------------------------------------------------
      1          6           0       -4.043796   -0.470660   -0.000002
      2          8           0       -3.078605    0.562892    0.000001
      3          6           0       -1.748159    0.216492    0.000001
      4          6           0       -1.288117   -1.118715    0.000001
      5          6           0        0.076921   -1.401012    0.000000
      6          6           0        0.972985   -0.332171   -0.000000
      7          6           0        0.524558    1.020235    0.000000
      8          6           0        1.701904    1.842728   -0.000000
      9          6           0        2.779206    0.995703   -0.000001
     10          7           0        2.358803   -0.321683   -0.000001
     11          6           0        3.206891   -1.493080    0.000000
     12          6           0       -0.851450    1.283912    0.000000
     13          1           0       -3.965321   -1.105066   -0.894181
     14          1           0       -5.016415    0.026307   -0.000003
     15          1           0       -3.965324   -1.105068    0.894177
     16          1           0       -1.992764   -1.941929    0.000001
     17          1           0        0.419396   -2.432171    0.000000
     18          1           0        1.742190    2.923229   -0.000000
     19          1           0        3.837844    1.220126   -0.000001
     20          1           0        3.030078   -2.109227    0.890359
     21          1           0        4.252338   -1.176425   -0.000006
     22          1           0        3.030069   -2.109233   -0.890353
     23          1           0       -1.240532    2.297513    0.000000
 ---------------------------------------------------------------------

 The electronic state is 1-A.
 Alpha  occ. eigenvalues --  -19.16084 -14.37418 -10.23087 -10.23052 -10.22906
 Alpha  occ. eigenvalues --  -10.21081 -10.20277 -10.18404 -10.17649 -10.17636
 Alpha  occ. eigenvalues --  -10.16862 -10.16469  -1.04593  -0.97735  -0.83290
 Alpha  occ. eigenvalues --   -0.78986  -0.74654  -0.71342  -0.69958  -0.66619
 Alpha  occ. eigenvalues --   -0.61221  -0.57104  -0.56058  -0.51927  -0.50133
 Alpha  occ. eigenvalues --   -0.48220  -0.46285  -0.45485  -0.44838  -0.43636
 Alpha  occ. eigenvalues --   -0.41710  -0.40783  -0.40528  -0.38453  -0.38290
 Alpha  occ. eigenvalues --   -0.36972  -0.34420  -0.34197  -0.31251  -0.28677
 Alpha  occ. eigenvalues --   -0.26067  -0.20041  -0.18429
 Alpha virt. eigenvalues --   -0.00255   0.04466   0.08139   0.08967   0.10655
 Alpha virt. eigenvalues --    0.11724   0.12546   0.14621   0.15557   0.15897
 Alpha virt. eigenvalues --    0.16159   0.16424   0.16837   0.17566   0.18606

 Mulliken atomic charges:
              1
     1  C   -0.208294
     2  O   -0.516521
     3  C    0.378261
     4  C   -0.219337
     5  C   -0.176660
     6  C    0.302903
     7  C    0.122964
     8  C   -0.243430
     9  C    0.038960
    10  N   -0.492199
    11  C   -0.319636
    12  C   -0.272306
    13  H    0.145088
    14  H    0.163651
    15  H    0.145088
    16  H    0.123597
    17  H    0.122548
    18  H    0.127011
    19  H    0.143785
    20  H    0.168912
    21  H    0.166944
    22  H    0.168912
    23  H    0.129762
 Sum of Mulliken atomic charges =  -0.00000

 Dipole moment (field-independent basis, Debye):
    X=              1.5443    Y=             -2.2598    Z=             -0.0000  Tot=              2.7371
 Quadrupole moment (field-independent basis, Debye-Ang):
   XX=            -54.1692   YY=            -64.8816   ZZ=            -73.9131
   XY=              1.2323   XZ=              0.0000   YZ=             -0.0000

 Normal termination of Gaussian 09 at Fri Sep  3 00:20:58 2021.
