 Gaussian 09, Revision A.02,
 Gaussian 09:  AM64L-G09RevA.02 11-Jun-2009

 ----------------------------------
 #p b3lyp 6-31G* opt scf(xqc,tight)
 ----------------------------------

 ---------------
 opt calculation
 ---------------
 Symbolic Z-matrix:
 Charge =  0 Multiplicity = 1

 SCF Done:  E(RB3LYP) =  -751.117188272     A.U. after   14 cycles
 SCF Done:  E(RB3LYP) =  -751.123045324     A.U. after   12 cycles
 SCF Done:  E(RB3LYP) =  -751.123484869     A.U. after   12 cycles
 SCF Done:  E(RB3LYP) =  -751.123551880     A.U. after   11 cycles
 SCF Done:  E(RB3LYP) =  -751.123571091     A.U. after   10 cycles
 SCF Done:  E(RB3LYP) =  -751.123577492     A.U. after    9 cycles
 SCF Done:  E(RB3LYP) =  -751.123578569     A.U. after    8 cycles
 SCF Done:  E(RB3LYP) =  -751.123578745     A.U. after    6 cycles
 Optimization completed.
    -- Stationary point found.

                         Standard orientation:
 ---------------------------------------------------------------------
 Center     Atomic      Atomic             Coordinates (Angstroms)
 Number     Number       Type             X           Y           Z
 ---------------------------------------------------------------------
      1          6           0       -5.932776   -0.910087   -0.092901
      2          8           0       -5.287201    0.337765    0.090890
      3          6           0       -3.920091    0.358970    0.069971
      4          6           0       -3.345026    1.644385    0.260556
      5          6           0       -1.981944    1.803275    0.258951
      6          6           0       -1.109138    0.695038    0.070170
      7          6           0        0.303611    0.836323    0.080642
      8          6           0        1.144507   -0.250030   -0.108914
      9          7           0        2.555048   -0.145845   -0.166414
     10          6           0        3.124535    1.194632   -0.288506
     11          6           0        4.586632    1.125036   -0.746410
     12          6           0        5.426171    0.247698    0.189989
     13          6           0        4.769735   -1.129397    0.350445
     14          6           0        3.306752   -0.986857    0.778557
     15          6           0        0.547533   -1.531731   -0.310768
     16          6           0       -0.815211   -1.696357   -0.306285
     17          6           0       -1.693359   -0.594753   -0.116455
     18          6           0       -3.107104   -0.741905   -0.115915
     19          1           0       -7.004107   -0.706336   -0.041186
     20          1           0       -5.660147   -1.625034    0.695241
     21          1           0       -5.692779   -1.347987   -1.071296
     22          1           0       -4.015051    2.486551    0.404003
     23          1           0       -1.552327    2.791758    0.404492
     24          1           0        0.710703    1.827235    0.253439
     25          1           0        3.065389    1.749672    0.669047
     26          1           0        2.534422    1.751650   -1.022598
     27          1           0        4.995165    2.142162   -0.797111
     28          1           0        4.615112    0.711180   -1.762766
     29          1           0        5.499340    0.731648    1.175203
     30          1           0        6.450605    0.147930   -0.189145
     31          1           0        4.809004   -1.672201   -0.603134
     32          1           0        5.306368   -1.732810    1.093472
     33          1           0        2.832306   -1.968876    0.835961
     34          1           0        3.262098   -0.550692    1.795770
     35          1           0        1.189941   -2.385171   -0.506266
     36          1           0       -1.239784   -2.684315   -0.470910
     37          1           0       -3.522943   -1.733004   -0.263191
 ---------------------------------------------------------------------

 The electronic state is 1-A.
 Alpha  occ. eigenvalues --  -19.17231 -14.33449 -10.23879 -10.23662 -10.21411
 Alpha  occ. eigenvalues --  -10.21037 -10.20845 -10.18700 -10.18526 -10.18332
 Alpha  occ. eigenvalues --  -10.18202 -10.18185 -10.18157 -10.18139 -10.18056
 Alpha  occ. eigenvalues --  -10.18046 -10.17786 -10.17433  -1.05773  -0.93485
 Alpha  occ. eigenvalues --   -0.85880  -0.81352  -0.78780  -0.76135  -0.75333
 Alpha  occ. eigenvalues --   -0.73731  -0.71063  -0.69204  -0.64265  -0.63184
 Alpha  occ. eigenvalues --   -0.60870  -0.58834  -0.58414  -0.55283  -0.52374
 Alpha  occ. eigenvalues --   -0.51884  -0.50338  -0.47389  -0.46319  -0.46050
 Alpha  occ. eigenvalues --   -0.45394  -0.45210  -0.43885  -0.43573  -0.42346
 Alpha  occ. eigenvalues --   -0.41606  -0.40822  -0.40388  -0.39754  -0.38523
 Alpha  occ. eigenvalues --   -0.37751  -0.36804  -0.35716  -0.34881  -0.34543
 Alpha  occ. eigenvalues --   -0.33508  -0.33049  -0.31990  -0.31923  -0.31193
 Alpha  occ. eigenvalues --   -0.29447  -0.27524  -0.23364  -0.21520  -0.18061
 Alpha virt. eigenvalues --   -0.02336   0.00973   0.04400   0.08894   0.09977
 Alpha virt. eigenvalues --    0.10769   0.10789   0.11731   0.12057   0.12684
 Alpha virt. eigenvalues --    0.13327   0.14753   0.15291   0.15748   0.16054

 Mulliken atomic charges:
              1
     1  C   -0.211127
     2  O   -0.511533
     3  C    0.371106
     4  C   -0.170129
     5  C   -0.199745
     6  C    0.138477
     7  C   -0.279150
     8  C    0.323521
     9  N   -0.493917
    10  C   -0.123291
    11  C   -0.262234
    12  C   -0.265323
    13  C   -0.258199
    14  C   -0.133820
    15  C   -0.163533
    16  C   -0.207812
    17  C    0.141756
    18  C   -0.280190
    19  H    0.167018
    20  H    0.150343
    21  H    0.150539
    22  H    0.136040
    23  H    0.126334
    24  H    0.124601
    25  H    0.117520
    26  H    0.151640
    27  H    0.132829
    28  H    0.142491
    29  H    0.129835
    30  H    0.136077
    31  H    0.140077
    32  H    0.133100
    33  H    0.148481
    34  H    0.122583
    35  H    0.128089
    36  H    0.122363
    37  H    0.125183
 Sum of Mulliken atomic charges =  -0.00000

 Dipole moment (field-independent basis, Debye):
    X=              0.8244    Y=             -0.9772    Z=              0.2029  Tot=              1.2945
 Quadrupole moment (field-independent basis, Debye-Ang):
   XX=            -92.8220   YY=            -99.0451   ZZ=           -110.5901
   XY=              7.5750   XZ=              2.0865   YZ=              0.6229

 Normal termination of Gaussian 09 at Fri Sep  3 01:15:35 2021.
