 Gaussian 09, Revision A.02,
 Gaussian 09:  AM64L-G09RevA.02 11-Jun-2009

 ----------------------------------
 #p b3lyp 6-31G* opt scf(xqc,tight)
 ----------------------------------

 ---------------
 opt calculation
 ---------------
 Symbolic Z-matrix:
 Charge =  0 Multiplicity = 1

 SCF Done:  E(RB3LYP) =  -1061.55560023     A.U. after   14 cycles
 SCF Done:  E(RB3LYP) =  -1061.56000314     A.U. after   12 cycles
 SCF Done:  E(RB3LYP) =  -1061.56036855     A.U. after   12 cycles
 SCF Done:  E(RB3LYP) =  -1061.56043796     A.U. after   12 cycles
 SCF Done:  E(RB3LYP) =  -1061.56048228     A.U. after   15 cycles
 SCF Done:  E(RB3LYP) =  -1061.56049180     A.U. after   10 cycles
 SCF Done:  E(RB3LYP) =  -1061.56047626     A.U. after   11 cycles
 SCF Done:  E(RB3LYP) =  -1061.56048486     A.U. after    9 cycles
 SCF Done:  E(RB3LYP) =  -1061.56048896     A.U. after    8 cycles
 SCF Done:  E(RB3LYP) =  -1061.56048613     A.U. after    8 cycles
 SCF Done:  E(RB3LYP) =  -1061.56048595     A.U. after    7 cycles
 SCF Done:  E(RB3LYP) =  -1061.56048530     A.U. after    7 cycles
 SCF Done:  E(RB3LYP) =  -1061.56048608     A.U. after    7 cycles
 SCF Done:  E(RB3LYP) =  -1061.56048641     A.U. after    7 cycles
 SCF Done:  E(RB3LYP) =  -1061.56048651     A.U. after    7 cycles
 SCF Done:  E(RB3LYP) =  -1061.56048666     A.U. after    7 cycles
 Optimization completed.
    -- Stationary point found.

                         Standard orientation:
 ---------------------------------------------------------------------
 Center     Atomic      Atomic             Coordinates (Angstroms)
 Number     Number       Type             X           Y           Z
 ---------------------------------------------------------------------
      1          6           0        1.138417    1.804504    1.556387
      2         14           0        1.526856    0.103068    0.845294
      3          6           0        1.416549   -1.202219    2.200750
      4          8           0        0.449246   -0.270484   -0.401512
      5          6           0       -0.911969   -0.403930   -0.295418
      6          6           0       -1.458694   -1.701453   -0.106770
      7          6           0       -2.821000   -1.873361   -0.036719
      8          6           0       -3.709141   -0.770159   -0.152962
      9          6           0       -5.119870   -0.917501   -0.082038
     10          6           0       -5.951286    0.173307   -0.202734
     11          6           0       -5.404372    1.464881   -0.401893
     12          6           0       -4.040925    1.641461   -0.475748
     13          6           0       -3.154606    0.536654   -0.353136
     14          6           0       -1.744630    0.688726   -0.421999
     15          6           0        3.202939    0.079787   -0.000740
     16          6           0        3.331007   -0.192314   -1.374382
     17          6           0        4.582786   -0.206491   -1.992888
     18          6           0        5.734763    0.051519   -1.248470
     19          6           0        5.630857    0.323983    0.117250
     20          6           0        4.377771    0.337239    0.730339
     21          1           0        1.849684    2.068188    2.348904
     22          1           0        0.132080    1.836412    1.990079
     23          1           0        1.200210    2.579093    0.783862
     24          1           0        2.113084   -0.979814    3.018500
     25          1           0        1.665024   -2.197016    1.814463
     26          1           0        0.408187   -1.247256    2.629009
     27          1           0       -0.779249   -2.544699   -0.028924
     28          1           0       -3.236599   -2.868052    0.107151
     29          1           0       -5.533967   -1.911845    0.069683
     30          1           0       -7.029127    0.047733   -0.146567
     31          1           0       -6.068438    2.319963   -0.496971
     32          1           0       -3.621891    2.633255   -0.629039
     33          1           0       -1.315060    1.672788   -0.586802
     34          1           0        2.439917   -0.394799   -1.961951
     35          1           0        4.658541   -0.419071   -3.056426
     36          1           0        6.709674    0.040465   -1.729322
     37          1           0        6.524495    0.525575    0.702644
     38          1           0        4.321902    0.552203    1.796719
 ---------------------------------------------------------------------

 The electronic state is 1-A.
 Alpha  occ. eigenvalues --  -66.15014 -19.15246 -10.24709 -10.19668 -10.19337
 Alpha  occ. eigenvalues --  -10.19188 -10.19134 -10.18964 -10.18825 -10.18808
 Alpha  occ. eigenvalues --  -10.18804 -10.18804 -10.18663 -10.18649 -10.18645
 Alpha  occ. eigenvalues --  -10.18582 -10.18310 -10.17490 -10.16473 -10.16455
 Alpha  occ. eigenvalues --   -5.29095  -3.65225  -3.64892  -3.64854  -1.02523
 Alpha  occ. eigenvalues --   -0.86680  -0.84523  -0.81202  -0.76851  -0.74178
 Alpha  occ. eigenvalues --   -0.73963  -0.73142  -0.71357  -0.70184  -0.68081
 Alpha  occ. eigenvalues --   -0.62539  -0.61097  -0.59690  -0.59395  -0.59236
 Alpha  occ. eigenvalues --   -0.54230  -0.51151  -0.51025  -0.50133  -0.46596
 Alpha  occ. eigenvalues --   -0.45123  -0.44638  -0.44208  -0.43723  -0.42648
 Alpha  occ. eigenvalues --   -0.42073  -0.41675  -0.41356  -0.41104  -0.40299
 Alpha  occ. eigenvalues --   -0.39648  -0.39378  -0.39203  -0.38046  -0.37778
 Alpha  occ. eigenvalues --   -0.36146  -0.36094  -0.34666  -0.33747  -0.33555
 Alpha  occ. eigenvalues --   -0.32352  -0.30906  -0.29344  -0.28081  -0.27788
 Alpha  occ. eigenvalues --   -0.24666  -0.24570  -0.23220  -0.20765
 Alpha virt. eigenvalues --   -0.03404  -0.00964  -0.00166   0.00271   0.03580
 Alpha virt. eigenvalues --    0.06959   0.07594   0.09326   0.10197   0.10536
 Alpha virt. eigenvalues --    0.10904   0.11987   0.12667   0.12994   0.13650

 Mulliken atomic charges:
              1
     1  C   -0.677907
     2  Si   0.811547
     3  C   -0.678633
     4  O   -0.650841
     5  C    0.382251
     6  C   -0.168083
     7  C   -0.202188
     8  C    0.140119
     9  C   -0.192683
    10  C   -0.137502
    11  C   -0.135586
    12  C   -0.193027
    13  C    0.136425
    14  C   -0.253461
    15  C   -0.048048
    16  C   -0.177238
    17  C   -0.119487
    18  C   -0.131712
    19  C   -0.122400
    20  C   -0.176593
    21  H    0.163379
    22  H    0.170897
    23  H    0.171142
    24  H    0.163352
    25  H    0.171106
    26  H    0.171107
    27  H    0.138758
    28  H    0.132448
    29  H    0.128109
    30  H    0.127985
    31  H    0.128748
    32  H    0.128568
    33  H    0.135865
    34  H    0.152846
    35  H    0.129673
    36  H    0.130110
    37  H    0.128139
    38  H    0.122814
 Sum of Mulliken atomic charges =  -0.00000

 Dipole moment (field-independent basis, Debye):
    X=              0.3582    Y=              0.0990    Z=              1.1156  Tot=              1.1759
 Quadrupole moment (field-independent basis, Debye-Ang):
   XX=           -111.0052   YY=           -118.5663   ZZ=           -122.3968
   XY=              1.1224   XZ=              0.4854   YZ=             -0.1226

 Normal termination of Gaussian 09 at Fri Sep  3 03:04:09 2021.
