 Gaussian 09, Revision A.02,
 Gaussian 09:  AM64L-G09RevA.02 11-Jun-2009

 ----------------------------------
 #p b3lyp 6-31G* opt scf(xqc,tight)
 ----------------------------------

 ---------------
 opt calculation
 ---------------
 Symbolic Z-matrix:
 Charge =  0 Multiplicity = 1

 SCF Done:  E(RB3LYP) =  -614.930887865     A.U. after   15 cycles
 SCF Done:  E(RB3LYP) =  -614.935247241     A.U. after   11 cycles
 SCF Done:  E(RB3LYP) =  -614.935521393     A.U. after   10 cycles
 SCF Done:  E(RB3LYP) =  -614.935534117     A.U. after    8 cycles
 SCF Done:  E(RB3LYP) =  -614.935535958     A.U. after    8 cycles
 SCF Done:  E(RB3LYP) =  -614.935536106     A.U. after    6 cycles
 Optimization completed.
    -- Stationary point found.

                         Standard orientation:
 ---------------------------------------------------------------------
 Center     Atomic      Atomic             Coordinates (Angstroms)
 Number     Number       Type             X           Y           Z
 ---------------------------------------------------------------------
      1          6           0        4.830837   -0.465263    0.000042
      2          8           0        3.573676   -1.120337   -0.000020
      3          6           0        2.435564   -0.361849   -0.000011
      4          6           0        2.439391    1.059706   -0.000008
      5          6           0        1.243924    1.743774   -0.000004
      6          6           0        0.000000    1.065336   -0.000006
      7          6           0       -1.243924    1.743774   -0.000003
      8          6           0       -2.439391    1.059706   -0.000004
      9          6           0       -2.435564   -0.361849   -0.000008
     10          8           0       -3.573676   -1.120337   -0.000013
     11          6           0       -4.830837   -0.465263    0.000035
     12          6           0       -1.239977   -1.055512   -0.000011
     13          6           0       -0.000000   -0.370957   -0.000010
     14          6           0        1.239977   -1.055512   -0.000012
     15          1           0        5.580039   -1.259457    0.000063
     16          1           0        4.966848    0.156743    0.894874
     17          1           0        4.966925    0.156766   -0.894763
     18          1           0        3.373131    1.610015   -0.000009
     19          1           0        1.247504    2.831528   -0.000002
     20          1           0       -1.247504    2.831528    0.000000
     21          1           0       -3.373131    1.610015   -0.000004
     22          1           0       -4.966856    0.156745    0.894864
     23          1           0       -4.966916    0.156764   -0.894773
     24          1           0       -5.580039   -1.259457    0.000051
     25          1           0       -1.265080   -2.141174   -0.000013
     26          1           0        1.265080   -2.141174   -0.000015
 ---------------------------------------------------------------------

 The electronic state is 1-A.
 Alpha  occ. eigenvalues --  -19.17296 -19.17296 -10.24272 -10.24272 -10.23898
 Alpha  occ. eigenvalues --  -10.23898 -10.19291 -10.18943 -10.18940 -10.18566
 Alpha  occ. eigenvalues --  -10.18566 -10.18538 -10.17340 -10.17339  -1.05855
 Alpha  occ. eigenvalues --   -1.05848  -0.86333  -0.81207  -0.76941  -0.74111
 Alpha  occ. eigenvalues --   -0.73707  -0.69535  -0.67770  -0.62041  -0.59367
 Alpha  occ. eigenvalues --   -0.58937  -0.53357  -0.51968  -0.50992  -0.48138
 Alpha  occ. eigenvalues --   -0.46520  -0.46456  -0.46328  -0.44419  -0.42449
 Alpha  occ. eigenvalues --   -0.42182  -0.41646  -0.40212  -0.39193  -0.38759
 Alpha  occ. eigenvalues --   -0.35809  -0.35285  -0.34946  -0.32588  -0.32331
 Alpha  occ. eigenvalues --   -0.31708  -0.27758  -0.27100  -0.21166  -0.19211
 Alpha virt. eigenvalues --   -0.03006   0.01115   0.04180   0.09246   0.10257
 Alpha virt. eigenvalues --    0.10994   0.11824   0.12264   0.12817   0.14594
 Alpha virt. eigenvalues --    0.14767   0.15754   0.15771   0.16875   0.16926

 Mulliken atomic charges:
              1
     1  C   -0.213234
     2  O   -0.510198
     3  C    0.379150
     4  C   -0.197584
     5  C   -0.204262
     6  C    0.144724
     7  C   -0.204262
     8  C   -0.197584
     9  C    0.379150
    10  O   -0.510198
    11  C   -0.213234
    12  C   -0.264095
    13  C    0.149916
    14  C   -0.264095
    15  H    0.169164
    16  H    0.150758
    17  H    0.150757
    18  H    0.129688
    19  H    0.128689
    20  H    0.128689
    21  H    0.129688
    22  H    0.150758
    23  H    0.150757
    24  H    0.169164
    25  H    0.133846
    26  H    0.133846
 Sum of Mulliken atomic charges =  -0.00000

 Dipole moment (field-independent basis, Debye):
    X=              0.0000    Y=              1.8922    Z=              0.0001  Tot=              1.8922
 Quadrupole moment (field-independent basis, Debye-Ang):
   XX=            -56.5680   YY=            -78.4665   ZZ=            -84.9839
   XY=              0.0000   XZ=              0.0001   YZ=             -0.0001

 Normal termination of Gaussian 09 at Fri Sep  3 00:28:18 2021.
