 Gaussian 09, Revision A.02,
 Gaussian 09:  AM64L-G09RevA.02 11-Jun-2009

 ----------------------------------
 #p b3lyp 6-31G* opt scf(xqc,tight)
 ----------------------------------

 ---------------
 opt calculation
 ---------------
 Symbolic Z-matrix:
 Charge =  0 Multiplicity = 1

 SCF Done:  E(RB3LYP) =  -855.033826323     A.U. after   14 cycles
 SCF Done:  E(RB3LYP) =  -855.041759540     A.U. after   12 cycles
 SCF Done:  E(RB3LYP) =  -855.042803901     A.U. after   12 cycles
 SCF Done:  E(RB3LYP) =  -855.042909224     A.U. after   11 cycles
 SCF Done:  E(RB3LYP) =  -855.042934032     A.U. after   10 cycles
 SCF Done:  E(RB3LYP) =  -855.042943237     A.U. after   10 cycles
 SCF Done:  E(RB3LYP) =  -855.042944398     A.U. after    7 cycles
 SCF Done:  E(RB3LYP) =  -855.042944897     A.U. after    7 cycles
 SCF Done:  E(RB3LYP) =  -855.042945634     A.U. after    7 cycles
 SCF Done:  E(RB3LYP) =  -855.042947029     A.U. after    9 cycles
 SCF Done:  E(RB3LYP) =  -855.042962319     A.U. after    8 cycles
 SCF Done:  E(RB3LYP) =  -855.042962796     A.U. after    9 cycles
 SCF Done:  E(RB3LYP) =  -855.042963728     A.U. after   11 cycles
 SCF Done:  E(RB3LYP) =  -855.042963346     A.U. after   11 cycles
 SCF Done:  E(RB3LYP) =  -855.042963036     A.U. after    9 cycles
 SCF Done:  E(RB3LYP) =  -855.042963300     A.U. after    8 cycles
 SCF Done:  E(RB3LYP) =  -855.042962876     A.U. after    8 cycles
 SCF Done:  E(RB3LYP) =  -855.042962924     A.U. after    6 cycles
 SCF Done:  E(RB3LYP) =  -855.042962976     A.U. after    6 cycles
 SCF Done:  E(RB3LYP) =  -855.042962952     A.U. after    6 cycles
 Optimization completed.
    -- Stationary point found.

                         Standard orientation:
 ---------------------------------------------------------------------
 Center     Atomic      Atomic             Coordinates (Angstroms)
 Number     Number       Type             X           Y           Z
 ---------------------------------------------------------------------
      1          6           0        2.986614    3.007011   -0.290933
      2          8           0        1.704228    2.384138   -0.143652
      3          6           0        1.665960    1.053311   -0.061660
      4          7           0        2.810078    0.364107   -0.117684
      5          6           0        2.638316   -0.962640   -0.024966
      6          8           0        3.710004   -1.755843   -0.068635
      7          6           0        4.994986   -1.138782   -0.213468
      8          7           0        1.480406   -1.605582    0.111583
      9          6           0        0.428916   -0.785772    0.151390
     10          8           0       -0.746786   -1.425666    0.280720
     11          6           0       -1.938979   -0.695975    0.375812
     12          6           0       -2.302119   -0.107612    1.583835
     13          6           0       -3.541190    0.524562    1.665111
     14          6           0       -4.394658    0.556932    0.560227
     15          6           0       -4.028845   -0.045230   -0.649513
     16          6           0       -4.961177   -0.042435   -1.838826
     17          6           0       -2.779778   -0.675579   -0.729750
     18          7           0        0.439175    0.544271    0.071559
     19          1           0        3.479595    2.673821   -1.208232
     20          1           0        3.630876    2.781325    0.563205
     21          1           0        2.776931    4.076259   -0.337912
     22          1           0        5.203201   -0.466793    0.623621
     23          1           0        5.055150   -0.574400   -1.148113
     24          1           0        5.705433   -1.966244   -0.222653
     25          1           0       -1.625588   -0.145150    2.430999
     26          1           0       -3.843108    0.996355    2.596155
     27          1           0       -5.358113    1.054612    0.638914
     28          1           0       -4.415389    0.113081   -2.775984
     29          1           0       -5.493083   -0.998860   -1.929036
     30          1           0       -5.716208    0.745445   -1.752217
     31          1           0       -2.455158   -1.156794   -1.647970
 ---------------------------------------------------------------------

 The electronic state is 1-A.
 Alpha  occ. eigenvalues --  -19.19882 -19.19764 -19.19707 -14.33818 -14.33153
 Alpha  occ. eigenvalues --  -14.32833 -10.32572 -10.32408 -10.32399 -10.24684
 Alpha  occ. eigenvalues --  -10.24668 -10.24550 -10.19916 -10.19066 -10.18796
 Alpha  occ. eigenvalues --  -10.18632 -10.18489 -10.18387  -1.11189  -1.09702
 Alpha  occ. eigenvalues --   -1.09511  -0.99545  -0.89854  -0.89636  -0.85379
 Alpha  occ. eigenvalues --   -0.77281  -0.75509  -0.73904  -0.73395  -0.68758
 Alpha  occ. eigenvalues --   -0.66274  -0.64397  -0.60466  -0.59419  -0.57683
 Alpha  occ. eigenvalues --   -0.55276  -0.52120  -0.50933  -0.50337  -0.49373
 Alpha  occ. eigenvalues --   -0.47831  -0.47788  -0.44733  -0.44343  -0.44025
 Alpha  occ. eigenvalues --   -0.43503  -0.41970  -0.41103  -0.40649  -0.39822
 Alpha  occ. eigenvalues --   -0.38711  -0.37812  -0.37645  -0.37106  -0.35641
 Alpha  occ. eigenvalues --   -0.35030  -0.34559  -0.34199  -0.30353  -0.28024
 Alpha  occ. eigenvalues --   -0.27907  -0.27273  -0.26748  -0.24479  -0.23558
 Alpha virt. eigenvalues --   -0.01449  -0.01103   0.00183   0.00616   0.09390
 Alpha virt. eigenvalues --    0.09646   0.11632   0.12049   0.12327   0.13217
 Alpha virt. eigenvalues --    0.13823   0.14132   0.14450   0.15193   0.15245

 Mulliken atomic charges:
              1
     1  C   -0.209146
     2  O   -0.455938
     3  C    0.681119
     4  N   -0.550231
     5  C    0.681203
     6  O   -0.455085
     7  C   -0.208601
     8  N   -0.487864
     9  C    0.657864
    10  O   -0.529271
    11  C    0.356394
    12  C   -0.137096
    13  C   -0.140714
    14  C   -0.171233
    15  C    0.165292
    16  C   -0.529334
    17  C   -0.201635
    18  N   -0.494856
    19  H    0.167686
    20  H    0.167425
    21  H    0.171675
    22  H    0.166664
    23  H    0.166672
    24  H    0.171901
    25  H    0.139295
    26  H    0.133827
    27  H    0.122658
    28  H    0.161603
    29  H    0.167792
    30  H    0.156956
    31  H    0.134979
 Sum of Mulliken atomic charges =  -0.00000

 Dipole moment (field-independent basis, Debye):
    X=              1.8106    Y=              2.6841    Z=             -0.5566  Tot=              3.2852
 Quadrupole moment (field-independent basis, Debye-Ang):
   XX=            -75.2129   YY=           -107.3472   ZZ=            -96.5545
   XY=              5.2038   XZ=              0.1041   YZ=              1.9823

 Normal termination of Gaussian 09 at Fri Sep  3 03:20:23 2021.
