 Gaussian 09, Revision A.02,
 Gaussian 09:  AM64L-G09RevA.02 11-Jun-2009

 ----------------------------------
 #p b3lyp 6-31G* opt scf(xqc,tight)
 ----------------------------------

 ---------------
 opt calculation
 ---------------
 Symbolic Z-matrix:
 Charge =  0 Multiplicity = 1

 SCF Done:  E(RB3LYP) =  -500.411906047     A.U. after   14 cycles
 SCF Done:  E(RB3LYP) =  -500.415474004     A.U. after   12 cycles
 SCF Done:  E(RB3LYP) =  -500.415674778     A.U. after   11 cycles
 SCF Done:  E(RB3LYP) =  -500.415687380     A.U. after    9 cycles
 SCF Done:  E(RB3LYP) =  -500.415689181     A.U. after    8 cycles
 SCF Done:  E(RB3LYP) =  -500.415689342     A.U. after    7 cycles
 Optimization completed.
    -- Stationary point found.

                         Standard orientation:
 ---------------------------------------------------------------------
 Center     Atomic      Atomic             Coordinates (Angstroms)
 Number     Number       Type             X           Y           Z
 ---------------------------------------------------------------------
      1          6           0       -3.343440   -1.121192    0.000002
      2          8           0       -1.930524   -1.237850   -0.000001
      3          6           0       -1.186613   -0.093017   -0.000001
      4          6           0       -1.714833    1.183237   -0.000001
      5          6           0       -0.850536    2.306408   -0.000000
      6          6           0        0.514095    2.153846    0.000000
      7          6           0        1.087593    0.851872    0.000000
      8          6           0        2.493287    0.648151    0.000001
      9          6           0        3.027941   -0.621027    0.000000
     10          6           0        2.177388   -1.751211   -0.000000
     11          6           0        0.808323   -1.592160   -0.000000
     12          6           0        0.232657   -0.295753   -0.000000
     13          1           0       -3.728968   -2.142410    0.000003
     14          1           0       -3.703125   -0.596071    0.894651
     15          1           0       -3.703129   -0.596072   -0.894647
     16          1           0       -2.786664    1.343247   -0.000001
     17          1           0       -1.288671    3.300985   -0.000000
     18          1           0        1.170792    3.019840    0.000001
     19          1           0        3.144005    1.519590    0.000001
     20          1           0        4.106203   -0.757581    0.000001
     21          1           0        2.607473   -2.749193   -0.000000
     22          1           0        0.151105   -2.454465   -0.000001
 ---------------------------------------------------------------------

 The electronic state is 1-A.
 Alpha  occ. eigenvalues --  -19.17989 -10.24640 -10.24237 -10.19258 -10.19100
 Alpha  occ. eigenvalues --  -10.18756 -10.18532 -10.18395 -10.18346 -10.18321
 Alpha  occ. eigenvalues --  -10.18235 -10.17876  -1.06573  -0.86369  -0.81250
 Alpha  occ. eigenvalues --   -0.76958  -0.73697  -0.72050  -0.69292  -0.61579
 Alpha  occ. eigenvalues --   -0.60911  -0.58007  -0.52632  -0.51348  -0.49520
 Alpha  occ. eigenvalues --   -0.46975  -0.46919  -0.45816  -0.42435  -0.42080
 Alpha  occ. eigenvalues --   -0.40690  -0.39894  -0.38828  -0.37208  -0.35127
 Alpha  occ. eigenvalues --   -0.33996  -0.33265  -0.32018  -0.31004  -0.25667
 Alpha  occ. eigenvalues --   -0.23775  -0.19766
 Alpha virt. eigenvalues --   -0.02619  -0.00281   0.04693   0.09532   0.10685
 Alpha virt. eigenvalues --    0.10864   0.11077   0.13076   0.14772   0.15473
 Alpha virt. eigenvalues --    0.16543   0.17465   0.18498   0.19765   0.20542

 Mulliken atomic charges:
              1
     1  C   -0.214107
     2  O   -0.508172
     3  C    0.325116
     4  C   -0.210496
     5  C   -0.141648
     6  C   -0.191553
     7  C    0.136865
     8  C   -0.201753
     9  C   -0.128912
    10  C   -0.139178
    11  C   -0.169641
    12  C    0.057604
    13  H    0.169471
    14  H    0.153708
    15  H    0.153708
    16  H    0.128927
    17  H    0.127715
    18  H    0.123720
    19  H    0.127403
    20  H    0.127348
    21  H    0.127133
    22  H    0.146739
 Sum of Mulliken atomic charges =  -0.00000

 Dipole moment (field-independent basis, Debye):
    X=             -1.4407    Y=              0.1105    Z=              0.0000  Tot=              1.4449
 Quadrupole moment (field-independent basis, Debye-Ang):
   XX=            -55.6761   YY=            -64.2380   ZZ=            -73.5893
   XY=              0.8126   XZ=             -0.0000   YZ=             -0.0000

 Normal termination of Gaussian 09 at Fri Sep  3 00:16:52 2021.
