 Gaussian 09, Revision A.02,
 Gaussian 09:  AM64L-G09RevA.02 11-Jun-2009

 ----------------------------------
 #p b3lyp 6-31G* opt scf(xqc,tight)
 ----------------------------------

 ---------------
 opt calculation
 ---------------
 Symbolic Z-matrix:
 Charge =  0 Multiplicity = 1

 SCF Done:  E(RB3LYP) =  -708.431901355     A.U. after   15 cycles
 SCF Done:  E(RB3LYP) =  -708.437389581     A.U. after   12 cycles
 SCF Done:  E(RB3LYP) =  -708.437414670     A.U. after   16 cycles
 SCF Done:  E(RB3LYP) =  -708.437723286     A.U. after   12 cycles
 SCF Done:  E(RB3LYP) =  -708.437961564     A.U. after   11 cycles
 SCF Done:  E(RB3LYP) =  -708.438034458     A.U. after   11 cycles
 SCF Done:  E(RB3LYP) =  -708.438092168     A.U. after   12 cycles
 SCF Done:  E(RB3LYP) =  -708.438106563     A.U. after   11 cycles
 SCF Done:  E(RB3LYP) =  -708.438115469     A.U. after    9 cycles
 SCF Done:  E(RB3LYP) =  -708.438121237     A.U. after    9 cycles
 SCF Done:  E(RB3LYP) =  -708.438130425     A.U. after   10 cycles
 SCF Done:  E(RB3LYP) =  -708.438145197     A.U. after   10 cycles
 SCF Done:  E(RB3LYP) =  -708.438157180     A.U. after   10 cycles
 SCF Done:  E(RB3LYP) =  -708.438160535     A.U. after   10 cycles
 SCF Done:  E(RB3LYP) =  -708.438163079     A.U. after   10 cycles
 SCF Done:  E(RB3LYP) =  -708.438165810     A.U. after   10 cycles
 SCF Done:  E(RB3LYP) =  -708.438167488     A.U. after   10 cycles
 SCF Done:  E(RB3LYP) =  -708.438167949     A.U. after    7 cycles
 SCF Done:  E(RB3LYP) =  -708.438168046     A.U. after    7 cycles
 SCF Done:  E(RB3LYP) =  -708.438168047     A.U. after    7 cycles
 Optimization completed.
    -- Stationary point found.

                         Standard orientation:
 ---------------------------------------------------------------------
 Center     Atomic      Atomic             Coordinates (Angstroms)
 Number     Number       Type             X           Y           Z
 ---------------------------------------------------------------------
      1          6           0        4.017340    1.446061   -0.819327
      2          7           0        3.789733    0.266278    0.000789
      3          6           0        4.965730   -0.337822    0.606612
      4          6           0        2.567312   -0.282480    0.260964
      5          8           0        2.366053   -1.259130    0.957567
      6          8           0        1.569071    0.424479   -0.376645
      7          6           0        0.248695   -0.002717   -0.260111
      8          6           0       -0.125026   -1.340706   -0.534485
      9          6           0       -1.455405   -1.685379   -0.496760
     10          6           0       -2.462782   -0.728602   -0.197478
     11          6           0       -3.842379   -1.063060   -0.156292
     12          6           0       -4.791939   -0.109142    0.133970
     13          6           0       -4.402134    1.227181    0.396607
     14          6           0       -3.072829    1.584342    0.363907
     15          6           0       -2.068679    0.623212    0.068611
     16          6           0       -0.689550    0.957339    0.032023
     17          1           0        4.690971    1.203688   -1.652187
     18          1           0        4.486743    2.239947   -0.222433
     19          1           0        3.076460    1.813405   -1.221022
     20          1           0        4.657212   -1.208507    1.183007
     21          1           0        5.467677    0.379095    1.270083
     22          1           0        5.678576   -0.646234   -0.169449
     23          1           0        0.638066   -2.076147   -0.755121
     24          1           0       -1.752164   -2.711125   -0.701488
     25          1           0       -4.136940   -2.090308   -0.358514
     26          1           0       -5.844382   -0.377921    0.162725
     27          1           0       -5.159528    1.972266    0.625077
     28          1           0       -2.772747    2.609856    0.566199
     29          1           0       -0.369186    1.975883    0.230792
 ---------------------------------------------------------------------

 The electronic state is 1-A.
 Alpha  occ. eigenvalues --  -19.19475 -19.11632 -14.37116 -10.33371 -10.24980
 Alpha  occ. eigenvalues --  -10.22350 -10.21808 -10.19775 -10.19459 -10.19087
 Alpha  occ. eigenvalues --  -10.18951 -10.18900 -10.18847 -10.18814 -10.18803
 Alpha  occ. eigenvalues --  -10.18759  -1.10588  -1.01413  -0.94275  -0.86970
 Alpha  occ. eigenvalues --   -0.81789  -0.77193  -0.74583  -0.72797  -0.72284
 Alpha  occ. eigenvalues --   -0.69881  -0.62744  -0.62376  -0.59519  -0.56916
 Alpha  occ. eigenvalues --   -0.53564  -0.51276  -0.50321  -0.48721  -0.48307
 Alpha  occ. eigenvalues --   -0.46925  -0.44798  -0.44396  -0.43296  -0.42161
 Alpha  occ. eigenvalues --   -0.41839  -0.41323  -0.40784  -0.40617  -0.39814
 Alpha  occ. eigenvalues --   -0.38736  -0.38144  -0.36977  -0.34618  -0.33539
 Alpha  occ. eigenvalues --   -0.32492  -0.30260  -0.28169  -0.27046  -0.24569
 Alpha  occ. eigenvalues --   -0.23367  -0.21026
 Alpha virt. eigenvalues --   -0.03453  -0.00473   0.03525   0.05321   0.08996
 Alpha virt. eigenvalues --    0.09581   0.10611   0.11674   0.12239   0.13155
 Alpha virt. eigenvalues --    0.14242   0.15102   0.15914   0.17001   0.17248

 Mulliken atomic charges:
              1
     1  C   -0.316780
     2  N   -0.436038
     3  C   -0.318024
     4  C    0.784018
     5  O   -0.510749
     6  O   -0.561820
     7  C    0.364251
     8  C   -0.134047
     9  C   -0.211360
    10  C    0.146224
    11  C   -0.192783
    12  C   -0.135656
    13  C   -0.136677
    14  C   -0.189799
    15  C    0.131061
    16  C   -0.248119
    17  H    0.156177
    18  H    0.155744
    19  H    0.199804
    20  H    0.205874
    21  H    0.154542
    22  H    0.153693
    23  H    0.153212
    24  H    0.135063
    25  H    0.130034
    26  H    0.129166
    27  H    0.129468
    28  H    0.128934
    29  H    0.134589
 Sum of Mulliken atomic charges =  -0.00000

 Dipole moment (field-independent basis, Debye):
    X=              1.3929    Y=              1.6741    Z=             -1.2792  Tot=              2.5257
 Quadrupole moment (field-independent basis, Debye-Ang):
   XX=            -71.1381   YY=            -86.7162   ZZ=            -96.4334
   XY=              5.4412   XZ=             -3.4508   YZ=              4.1035

 Normal termination of Gaussian 09 at Fri Sep  3 02:10:23 2021.
