 Gaussian 09, Revision A.02,

 -----------------------------------
 #p opt b3lyp/6-31G* scf=(xqc,tight)
 -----------------------------------

 -----------------------------
 O=C(C(C)(C)C)Oc1ccncc1_conf_0
 -----------------------------
 Symbolic Z-matrix:
 Charge =  0 Multiplicity = 1

 SCF Done:  E(RB3LYP) =  -594.099802697     A.U. after   15 cycles
 SCF Done:  E(RB3LYP) =  -594.102564707     A.U. after   13 cycles
 SCF Done:  E(RB3LYP) =  -594.100942325     A.U. after   16 cycles
 SCF Done:  E(RB3LYP) =  -594.103283710     A.U. after   16 cycles
 SCF Done:  E(RB3LYP) =  -594.103497378     A.U. after   16 cycles
 SCF Done:  E(RB3LYP) =  -594.103871854     A.U. after   11 cycles
 SCF Done:  E(RB3LYP) =  -594.104024170     A.U. after   11 cycles
 SCF Done:  E(RB3LYP) =  -594.104106071     A.U. after   16 cycles
 SCF Done:  E(RB3LYP) =  -594.104127368     A.U. after   10 cycles
 SCF Done:  E(RB3LYP) =  -594.104131035     A.U. after   10 cycles
 SCF Done:  E(RB3LYP) =  -594.104131794     A.U. after    8 cycles
 SCF Done:  E(RB3LYP) =  -594.104133005     A.U. after    9 cycles
 SCF Done:  E(RB3LYP) =  -594.104134620     A.U. after   10 cycles
 SCF Done:  E(RB3LYP) =  -594.104137295     A.U. after   11 cycles
 SCF Done:  E(RB3LYP) =  -594.104138072     A.U. after    9 cycles
 SCF Done:  E(RB3LYP) =  -594.104138095     A.U. after    6 cycles
 SCF Done:  E(RB3LYP) =  -594.104138147     A.U. after    8 cycles
 SCF Done:  E(RB3LYP) =  -594.104138119     A.U. after    7 cycles
 Optimization completed.
    -- Stationary point found.
 Normal termination of Gaussian 09 at Tue Sep 28 16:56:50 2021.

 ----------------------------------------------------------------------
 #p freq b3lyp/6-31G* volume NMR pop=NPA density=current Geom=AllCheck
 Guess=Read
 ----------------------------------------------------------------------

 O=C(C(C)(C)C)Oc1ccncc1_conf_0
 -----------------------------
 Redundant internal coordinates taken from checkpoint file:
 C10H13NO2_cdd4_conf_0.chk
 Charge =  0 Multiplicity = 1

 SCF Done:  E(RB3LYP) =  -594.104138119     A.U. after    1 cycles

  1  O    Isotropic =   -69.0379   Anisotropy =   579.5660

  2  C    Isotropic =    22.9072   Anisotropy =    78.2530

  3  C    Isotropic =   148.4350   Anisotropy =    24.5121

  4  C    Isotropic =   162.3452   Anisotropy =    37.8851

  5  C    Isotropic =   162.5893   Anisotropy =    37.2559

  6  C    Isotropic =   163.0341   Anisotropy =    31.2378

  7  O    Isotropic =   108.8535   Anisotropy =   179.9318

  8  C    Isotropic =    39.1183   Anisotropy =   126.8399

  9  C    Isotropic =    79.1531   Anisotropy =   145.4915

 10  C    Isotropic =    45.1098   Anisotropy =   154.4197

 11  N    Isotropic =   -54.4170   Anisotropy =   535.4115

 12  C    Isotropic =    45.0862   Anisotropy =   154.2533

 13  C    Isotropic =    81.4748   Anisotropy =   132.2162

 14  H    Isotropic =    30.4282   Anisotropy =     7.5881

 15  H    Isotropic =    30.8830   Anisotropy =     7.9771

 16  H    Isotropic =    31.0917   Anisotropy =     7.8248

 17  H    Isotropic =    30.5149   Anisotropy =     6.5357

 18  H    Isotropic =    31.0869   Anisotropy =     7.8115

 19  H    Isotropic =    30.8691   Anisotropy =     8.0940

 20  H    Isotropic =    30.6696   Anisotropy =     7.9837

 21  H    Isotropic =    30.6363   Anisotropy =     8.2087

 22  H    Isotropic =    31.4551   Anisotropy =     7.7138

 23  H    Isotropic =    24.7361   Anisotropy =     9.5209

 24  H    Isotropic =    23.6130   Anisotropy =     6.5231

 25  H    Isotropic =    23.5992   Anisotropy =     6.5138

 26  H    Isotropic =    25.6519   Anisotropy =     7.4545

  Exact polarizability: 148.700  -1.169 114.956   1.067  -4.856  71.684
 Approx polarizability: 201.953   0.167 193.710   3.285  -5.694 105.664

                     1                      2                      3
                     A                      A                      A
 Frequencies --    16.6662                43.2660                53.4303
 Red. masses --     3.4654                 4.6440                 6.3135
 Frc consts  --     0.0006                 0.0051                 0.0106
 IR Inten    --     0.1928                 0.5558                 0.3522

                     4                      5                      6
                     A                      A                      A
 Frequencies --   115.0937               199.0830               209.6886
 Red. masses --     4.6484                 2.2546                 1.8082
 Frc consts  --     0.0363                 0.0526                 0.0468
 IR Inten    --     0.6762                 0.2527                 0.5052

                     7                      8                      9
                     A                      A                      A
 Frequencies --   232.8623               258.8861               270.7721
 Red. masses --     1.7620                 1.3727                 1.4737
 Frc consts  --     0.0563                 0.0542                 0.0637
 IR Inten    --     0.1598                 0.5772                 0.9273

                    10                     11                     12
                     A                      A                      A
 Frequencies --   285.6120               308.7380               357.2190
 Red. masses --     1.5171                 3.0739                 3.1441
 Frc consts  --     0.0729                 0.1726                 0.2364
 IR Inten    --     0.8707                 4.9492                 5.6218

                    13                     14                     15
                     A                      A                      A
 Frequencies --   369.1210               385.0208               397.0391
 Red. masses --     3.1416                 3.3101                 2.6966
 Frc consts  --     0.2522                 0.2891                 0.2505
 IR Inten    --     1.8085                 3.3568                 0.2794

                    16                     17                     18
                     A                      A                      A
 Frequencies --   449.5452               542.4308               568.7203
 Red. masses --     3.2793                 3.2192                 5.4281
 Frc consts  --     0.3905                 0.5581                 1.0344
 IR Inten    --     4.7728                10.0752                 8.7584

                    19                     20                     21
                     A                      A                      A
 Frequencies --   617.1201               678.3310               743.8369
 Red. masses --     4.2844                 6.8702                 4.1702
 Frc consts  --     0.9613                 1.8625                 1.3595
 IR Inten    --     0.7136                 0.9616                 0.6049

                    22                     23                     24
                     A                      A                      A
 Frequencies --   755.9700               803.9245               825.3680
 Red. masses --     6.3212                 3.0319                 3.1077
 Frc consts  --     2.1284                 1.1545                 1.2473
 IR Inten    --     4.0003                 6.0238                20.7916

                    25                     26                     27
                     A                      A                      A
 Frequencies --   852.7631               865.6709               907.6144
 Red. masses --     2.3382                 1.2611                 3.6589
 Frc consts  --     1.0018                 0.5568                 1.7758
 IR Inten    --    28.7318                 1.6337                13.3048

                    28                     29                     30
                     A                      A                      A
 Frequencies --   949.3476               955.8790               970.9070
 Red. masses --     1.7618                 1.6305                 1.2976
 Frc consts  --     0.9355                 0.8777                 0.7207
 IR Inten    --     1.5485                 2.7577                 0.5736

                    31                     32                     33
                     A                      A                      A
 Frequencies --   981.4250               990.9158              1013.8795
 Red. masses --     1.1985                 1.4389                 7.3090
 Frc consts  --     0.6801                 0.8324                 4.4267
 IR Inten    --     0.0145                 0.0231                 1.4730

                    34                     35                     36
                     A                      A                      A
 Frequencies --  1058.5993              1059.3757              1088.3759
 Red. masses --     1.4919                 1.4310                 1.7621
 Frc consts  --     0.9850                 0.9462                 1.2298
 IR Inten    --    50.8869                 1.6210                 0.0919

                    37                     38                     39
                     A                      A                      A
 Frequencies --  1115.8971              1138.7965              1234.5690
 Red. masses --     1.4678                 3.9596                 2.4926
 Frc consts  --     1.0769                 3.0255                 2.2384
 IR Inten    --     1.2754               562.0535               180.3719

                    40                     41                     42
                     A                      A                      A
 Frequencies --  1241.7783              1260.8130              1270.4702
 Red. masses --     2.6506                 2.1355                 2.2703
 Frc consts  --     2.4082                 2.0001                 2.1591
 IR Inten    --     2.9080                 7.7443               106.1392

                    43                     44                     45
                     A                      A                      A
 Frequencies --  1305.1849              1310.1394              1368.6020
 Red. masses --     4.4623                 5.1986                 1.3740
 Frc consts  --     4.4787                 5.2574                 1.5163
 IR Inten    --     2.3425                55.4388                 1.8483

                    46                     47                     48
                     A                      A                      A
 Frequencies --  1422.4775              1429.9334              1458.4330
 Red. masses --     1.2065                 1.2291                 1.8688
 Frc consts  --     1.4384                 1.4807                 2.3420
 IR Inten    --     3.8385                 4.3481                16.8086

                    49                     50                     51
                     A                      A                      A
 Frequencies --  1459.1334              1508.6924              1515.5074
 Red. masses --     1.3185                 1.0483                 1.0451
 Frc consts  --     1.6539                 1.4058                 1.4142
 IR Inten    --    15.2437                 0.0030                 0.2604

                    52                     53                     54
                     A                      A                      A
 Frequencies --  1520.7006              1530.5133              1533.1608
 Red. masses --     1.0458                 1.0486                 1.0621
 Frc consts  --     1.4249                 1.4473                 1.4709
 IR Inten    --     0.0332                 6.1437                 9.4856

                    55                     56                     57
                     A                      A                      A
 Frequencies --  1539.9891              1550.1151              1630.4238
 Red. masses --     2.0912                 1.0743                 6.7999
 Frc consts  --     2.9220                 1.5209                10.6501
 IR Inten    --    70.2864                17.8587                58.4729

                    58                     59                     60
                     A                      A                      A
 Frequencies --  1642.4879              1835.2458              3052.1577
 Red. masses --     5.8559                12.6622                 1.0353
 Frc consts  --     9.3079                25.1273                 5.6826
 IR Inten    --   108.5726               182.8675                27.0562

                    61                     62                     63
                     A                      A                      A
 Frequencies --  3053.8064              3063.0545              3116.6323
 Red. masses --     1.0360                 1.0363                 1.1031
 Frc consts  --     5.6922                 5.7286                 6.3130
 IR Inten    --    10.4498                23.0925                11.1460

                    64                     65                     66
                     A                      A                      A
 Frequencies --  3117.8723              3131.3383              3139.5611
 Red. masses --     1.1025                 1.1021                 1.1026
 Frc consts  --     6.3147                 6.3668                 6.4034
 IR Inten    --    21.2340                36.7080                 2.5199

                    67                     68                     69
                     A                      A                      A
 Frequencies --  3140.8372              3143.9197              3176.5942
 Red. masses --     1.1024                 1.1012                 1.0883
 Frc consts  --     6.4077                 6.4130                 6.4701
 IR Inten    --    21.0388                41.8514                36.9179

                    70                     71                     72
                     A                      A                      A
 Frequencies --  3179.5371              3224.5053              3273.4895
 Red. masses --     1.0919                 1.0939                 1.0934
 Frc consts  --     6.5035                 6.7010                 6.9030
 IR Inten    --    16.9291                 4.7376                 0.1285

 - Thermochemistry -
 -------------------
 Temperature   298.150 Kelvin.  Pressure   1.00000 Atm.
 Atom     1 has atomic number  8 and mass  15.99491

 Molecular mass:   179.09463 amu.
 Principal axes and moments of inertia in atomic units:
                           1         2         3
     Eigenvalues --   875.998704316.645814712.98790
           X            0.99999   0.00455   0.00215
           Y           -0.00448   0.99952  -0.03068
           Z           -0.00229   0.03067   0.99953
 This molecule is an asymmetric top.
 Rotational symmetry number  1.
 Warning -- assumption of classical behavior for rotation
           may cause significant error
 Rotational temperatures (Kelvin)      0.09887     0.02007     0.01838
 Rotational constants (GHZ):           2.06021     0.41809     0.38293
 Zero-point vibrational energy     567142.8 (Joules/Mol)
                                  135.55038 (Kcal/Mol)
 Warning -- explicit consideration of  19 degrees of freedom as
           vibrations may cause significant error
 Vibrational temperatures:     23.98    62.25    76.87   165.59   286.44
          (Kelvin)            301.69   335.04   372.48   389.58   410.93
                              444.20   513.96   531.08   553.96   571.25
                              646.79   780.44   818.26   887.90   975.97
                             1070.21  1087.67  1156.67  1187.52  1226.93
                             1245.51  1305.85  1365.90  1375.29  1396.92
                             1412.05  1425.71  1458.74  1523.09  1524.20
                             1565.93  1605.53  1638.47  1776.27  1786.64
                             1814.03  1827.92  1877.87  1885.00  1969.11
                             2046.63  2057.35  2098.36  2099.36  2170.67
                             2180.47  2187.95  2202.06  2205.87  2215.70
                             2230.27  2345.81  2363.17  2640.51  4391.37
                             4393.74  4407.05  4484.13  4485.92  4505.29
                             4517.12  4518.96  4523.39  4570.40  4574.64
                             4639.34  4709.82

 Zero-point correction=                           0.216013 (Hartree/Particle)
 Thermal correction to Energy=                    0.228808
 Thermal correction to Enthalpy=                  0.229752
 Thermal correction to Gibbs Free Energy=         0.175426
 Sum of electronic and zero-point Energies=           -593.888125
 Sum of electronic and thermal Energies=              -593.875330
 Sum of electronic and thermal Enthalpies=            -593.874386
 Sum of electronic and thermal Free Energies=         -593.928712

                     E (Thermal)             CV                S
                      KCal/Mol        Cal/Mol-Kelvin    Cal/Mol-Kelvin
 Total                  143.579             47.943            114.339
 Electronic               0.000              0.000              0.000
 Translational            0.889              2.981             41.455
 Rotational               0.889              2.981             31.256
 Vibrational            141.802             41.981             41.629
 Vibration     1          0.593              1.986              6.996
 Vibration     2          0.595              1.980              5.104
 Vibration     3          0.596              1.976              4.686
 Vibration     4          0.608              1.937              3.181
 Vibration     5          0.637              1.841              2.142
 Vibration     6          0.642              1.826              2.046
 Vibration     7          0.654              1.791              1.857
 Vibration     8          0.668              1.748              1.669
 Vibration     9          0.674              1.727              1.591
 Vibration    10          0.683              1.700              1.500
 Vibration    11          0.698              1.657              1.369
 Vibration    12          0.732              1.560              1.134
 Vibration    13          0.741              1.536              1.083
 Vibration    14          0.754              1.502              1.019
 Vibration    15          0.764              1.476              0.974
 Vibration    16          0.808              1.362              0.797
 Vibration    17          0.898              1.156              0.560
 Vibration    18          0.925              1.099              0.507
 Vibration    19          0.977              0.996              0.421

 Optimization completed.
    -- Stationary point found.
 Normal termination of Gaussian 09 at Tue Sep 28 17:35:03 2021.
 Gaussian 09:  AM64L-G09RevA.02 11-Jun-2009

 ----------------------------------------------------------------------
 #p TD(NStates=10, Root=1) b3lyp/6-31G* volume pop=NPA density=current
 Geom=AllCheck Guess=Read
 ----------------------------------------------------------------------

 O=C(C(C)(C)C)Oc1ccncc1_conf_0
 -----------------------------
 Redundant internal coordinates taken from checkpoint file:
 C10H13NO2_cdd4_conf_0.chk
 Charge =  0 Multiplicity = 1

                         Standard orientation:
 ---------------------------------------------------------------------
 Center     Atomic      Atomic             Coordinates (Angstroms)
 Number     Number       Type             X           Y           Z
 ---------------------------------------------------------------------
      1          8           0        0.837840   -1.527149   -0.689265
      2          6           0        1.085467   -0.448989   -0.209467
      3          6           0        2.481046    0.126319    0.046481
      4          6           0        2.646559    1.434575   -0.759905
      5          6           0        2.635591    0.417534    1.556644
      6          6           0        3.523923   -0.908946   -0.404048
      7          8           0        0.117916    0.451642    0.181762
      8          6           0       -1.239036    0.184929    0.082485
      9          6           0       -1.822581   -1.065968    0.282949
     10          6           0       -3.215569   -1.138215    0.217268
     11          7           0       -4.023586   -0.097937   -0.018811
     12          6           0       -3.433184    1.090192   -0.201478
     13          6           0       -2.054917    1.288784   -0.162668
     14          1           0        1.918941    2.190284   -0.451472
     15          1           0        2.524719    1.256556   -1.834529
     16          1           0        3.652313    1.838871   -0.598826
     17          1           0        1.905961    1.156192    1.899806
     18          1           0        3.640400    0.808654    1.752400
     19          1           0        2.509446   -0.494131    2.152020
     20          1           0        3.420706   -1.139245   -1.468607
     21          1           0        3.417859   -1.846815    0.149407
     22          1           0        4.531866   -0.516313   -0.230438
     23          1           0       -1.228307   -1.949071    0.469237
     24          1           0       -3.705591   -2.098984    0.365785
     25          1           0       -4.096547    1.932701   -0.389395
     26          1           0       -1.616511    2.269631   -0.313263
 ---------------------------------------------------------------------

 SCF Done:  E(RB3LYP) =  -594.104138119     A.U. after    1 cycles

 Excitation energies and oscillator strengths:

 Excited State   1:      Singlet-A      4.9493 eV  250.51 nm  f=0.0020  <S**2>=0.000
      48 -> 49         0.68250
      48 -> 51         0.14050
 This state for optimization and/or second-order correction.
 Total Energy, E(TD-HF/TD-KS) =  -593.922253340
 Copying the excited state density for this state as the 1-particle RhoCI density.

 Excited State   2:      Singlet-A      5.2195 eV  237.54 nm  f=0.0001  <S**2>=0.000
      48 -> 50         0.69594

 Excited State   3:      Singlet-A      5.3566 eV  231.46 nm  f=0.0110  <S**2>=0.000
      45 -> 49         0.38688
      45 -> 51        -0.20176
      46 -> 50        -0.20837
      47 -> 49         0.48362
      48 -> 51        -0.16126

 Excited State   4:      Singlet-A      5.5446 eV  223.61 nm  f=0.0041  <S**2>=0.000
      45 -> 49         0.44002
      45 -> 51        -0.16617
      46 -> 50         0.34876
      47 -> 49        -0.33193
      47 -> 51        -0.12201
      48 -> 51        -0.13930

 Excited State   5:      Singlet-A      5.9122 eV  209.71 nm  f=0.1476  <S**2>=0.000
      46 -> 49         0.64748
      46 -> 51        -0.11635
      47 -> 50         0.22281

 Excited State   6:      Singlet-A      6.3805 eV  194.32 nm  f=0.0027  <S**2>=0.000
      45 -> 49         0.31192
      45 -> 51         0.10037
      47 -> 51         0.18839
      48 -> 49        -0.11891
      48 -> 51         0.56981

 Excited State   7:      Singlet-A      6.4454 eV  192.36 nm  f=0.0224  <S**2>=0.000
      46 -> 50        -0.30766
      47 -> 49        -0.27038
      47 -> 51         0.49728
      48 -> 51        -0.25760

 Excited State   8:      Singlet-A      6.5361 eV  189.69 nm  f=0.1057  <S**2>=0.000
      45 -> 50         0.42915
      45 -> 51        -0.14052
      46 -> 49        -0.10323
      46 -> 51         0.26922
      47 -> 50         0.40883
      48 -> 51         0.11617

 Excited State   9:      Singlet-A      6.6916 eV  185.28 nm  f=0.0042  <S**2>=0.000
      45 -> 50         0.51439
      45 -> 51         0.22644
      46 -> 51        -0.33321
      47 -> 50        -0.19367

 Excited State  10:      Singlet-A      6.7301 eV  184.22 nm  f=0.0909  <S**2>=0.000
      45 -> 49         0.14143
      45 -> 50        -0.10208
      45 -> 51         0.52774
      46 -> 50         0.14637
      46 -> 51         0.22131
      47 -> 49         0.11774
      47 -> 50         0.23073
      48 -> 51        -0.13738

 The electronic state is 1-A.
 Alpha  occ. eigenvalues --  -19.21532 -19.15426 -14.32880 -10.32990 -10.27356
 Alpha  occ. eigenvalues --  -10.22664 -10.22571 -10.22335 -10.20271 -10.20091
 Alpha  occ. eigenvalues --  -10.19034 -10.19027 -10.18181  -1.12099  -1.03926
 Alpha  occ. eigenvalues --   -0.94099  -0.83797  -0.80477  -0.76613  -0.69996
 Alpha  occ. eigenvalues --   -0.69847  -0.68415  -0.64018  -0.60744  -0.56928
 Alpha  occ. eigenvalues --   -0.51170  -0.49564  -0.48924  -0.48771  -0.46787
 Alpha  occ. eigenvalues --   -0.45710  -0.44277  -0.43792  -0.43378  -0.41347
 Alpha  occ. eigenvalues --   -0.40101  -0.39649  -0.38991  -0.37642  -0.37460
 Alpha  occ. eigenvalues --   -0.36479  -0.34732  -0.34269  -0.33816  -0.28480
 Alpha  occ. eigenvalues --   -0.26883  -0.26439  -0.25584
 Alpha virt. eigenvalues --   -0.03074  -0.01281   0.00773   0.07601   0.09287
 Alpha virt. eigenvalues --    0.11918   0.12954   0.14412   0.14528   0.14758
 Alpha virt. eigenvalues --    0.15029   0.15350   0.16560   0.17403   0.18666

 Mulliken atomic charges:
              1
     1  O   -0.473431
     2  C    0.599036
     3  C    0.001291
     4  C   -0.447302
     5  C   -0.448022
     6  C   -0.434633
     7  O   -0.524708
     8  C    0.319059
     9  C   -0.153496
    10  C    0.030090
    11  N   -0.350365
    12  C    0.034200
    13  C   -0.177546
    14  H    0.156149
    15  H    0.149729
    16  H    0.142864
    17  H    0.160354
    18  H    0.141837
    19  H    0.147222
    20  H    0.155198
    21  H    0.153077
    22  H    0.134390
    23  H    0.185124
    24  H    0.170368
    25  H    0.170047
    26  H    0.159471
 Sum of Mulliken atomic charges =  -0.00000

 Dipole moment (field-independent basis, Debye):
    X=             -1.1720    Y=              1.5460    Z=              0.7848  Tot=              2.0927
 Quadrupole moment (field-independent basis, Debye-Ang):
   XX=            -66.6687   YY=            -74.0804   ZZ=            -79.2167
   XY=              1.2511   XZ=              0.9422   YZ=             -3.9541

 Summary of Natural Population Analysis:

                                       Natural Population
                Natural  -----------------------------------------------
    Atom  No    Charge         Core      Valence    Rydberg      Total
 -----------------------------------------------------------------------
      O    1   -0.57973      1.99977     6.55969    0.02027     8.57973
      C    2    0.78083      1.99927     3.17115    0.04874     5.21917
      C    3   -0.14328      1.99906     4.13158    0.01264     6.14328
      C    4   -0.66760      1.99938     4.65844    0.00978     6.66760
      C    5   -0.66797      1.99938     4.65885    0.00974     6.66797
      C    6   -0.66874      1.99939     4.65841    0.01094     6.66874
      O    7   -0.53211      1.99970     6.52116    0.01126     8.53211
      C    8    0.22404      1.99871     3.75253    0.02472     5.77596
      C    9   -0.30881      1.99897     4.29520    0.01463     6.30881
      C   10   -0.05367      1.99915     4.03319    0.02132     6.05367
      N   11   -0.19562      1.99897     5.18162    0.01504     7.19562
      C   12   -0.06113      1.99914     4.04082    0.02117     6.06113
      C   13   -0.29800      1.99899     4.28394    0.01507     6.29800
      H   14    0.23986      0.00000     0.75897    0.00117     0.76014
      H   15    0.23549      0.00000     0.76358    0.00093     0.76451
      H   16    0.23098      0.00000     0.76782    0.00120     0.76902
      H   17    0.24225      0.00000     0.75667    0.00109     0.75775
      H   18    0.23020      0.00000     0.76842    0.00137     0.76980
      H   19    0.23416      0.00000     0.76489    0.00095     0.76584
      H   20    0.24217      0.00000     0.75678    0.00105     0.75783
      H   21    0.24106      0.00000     0.75788    0.00106     0.75894
      H   22    0.22799      0.00000     0.77107    0.00094     0.77201
      H   23    0.28156      0.00000     0.71719    0.00125     0.71844
      H   24    0.25051      0.00000     0.74888    0.00061     0.74949
      H   25    0.25191      0.00000     0.74752    0.00058     0.74809
      H   26    0.26366      0.00000     0.73541    0.00093     0.73634
 =======================================================================
   * Total *   -0.00000     25.98988    69.76167    0.24845    96.00000

 Normal termination of Gaussian 09 at Tue Sep 28 20:48:54 2021.
