 Gaussian 09, Revision A.02,

 -----------------------------------
 #p opt b3lyp/6-31G* scf=(xqc,tight)
 -----------------------------------

 -------------------------------
 COC(=O)c1ccc(cc1)OC(=O)C_conf_0
 -------------------------------
 Symbolic Z-matrix:
 Charge =  0 Multiplicity = 1

 SCF Done:  E(RB3LYP) =  -688.001516557     A.U. after   15 cycles
 SCF Done:  E(RB3LYP) =  -688.004943086     A.U. after   12 cycles
 SCF Done:  E(RB3LYP) =  -688.005199269     A.U. after   12 cycles
 SCF Done:  E(RB3LYP) =  -688.005205283     A.U. after   12 cycles
 SCF Done:  E(RB3LYP) =  -688.005331300     A.U. after   11 cycles
 SCF Done:  E(RB3LYP) =  -688.005378797     A.U. after   10 cycles
 SCF Done:  E(RB3LYP) =  -688.005450869     A.U. after   10 cycles
 SCF Done:  E(RB3LYP) =  -688.005529631     A.U. after   11 cycles
 SCF Done:  E(RB3LYP) =  -688.005604135     A.U. after   11 cycles
 SCF Done:  E(RB3LYP) =  -688.005651465     A.U. after   12 cycles
 SCF Done:  E(RB3LYP) =  -688.005666003     A.U. after   10 cycles
 SCF Done:  E(RB3LYP) =  -688.005674325     A.U. after   10 cycles
 SCF Done:  E(RB3LYP) =  -688.005685803     A.U. after   10 cycles
 SCF Done:  E(RB3LYP) =  -688.005687619     A.U. after    9 cycles
 SCF Done:  E(RB3LYP) =  -688.005687964     A.U. after    8 cycles
 SCF Done:  E(RB3LYP) =  -688.005688153     A.U. after    8 cycles
 SCF Done:  E(RB3LYP) =  -688.005688357     A.U. after    8 cycles
 SCF Done:  E(RB3LYP) =  -688.005688504     A.U. after    8 cycles
 Optimization completed.
    -- Stationary point found.
 Normal termination of Gaussian 09 at Fri Oct  1 01:04:02 2021.

 ----------------------------------------------------------------------
 #p freq b3lyp/6-31G* volume NMR pop=NPA density=current Geom=AllCheck
 Guess=Read
 ----------------------------------------------------------------------

 COC(=O)c1ccc(cc1)OC(=O)C_conf_0
 -------------------------------
 Redundant internal coordinates taken from checkpoint file:
 C10H10O4_fc49_conf_0.chk
 Charge =  0 Multiplicity = 1

 SCF Done:  E(RB3LYP) =  -688.005688504     A.U. after    1 cycles

  1  C    Isotropic =   139.0415   Anisotropy =    62.5649

  2  O    Isotropic =   167.3893   Anisotropy =   131.2598

  3  C    Isotropic =    32.9573   Anisotropy =    74.4429

  4  O    Isotropic =   -44.8843   Anisotropy =   574.1977

  5  C    Isotropic =    69.2159   Anisotropy =   146.3572

  6  C    Isotropic =    63.0630   Anisotropy =   175.1764

  7  C    Isotropic =    73.9785   Anisotropy =   153.9798

  8  C    Isotropic =    41.7206   Anisotropy =   115.4823

  9  C    Isotropic =    76.7359   Anisotropy =   138.4815

 10  C    Isotropic =    65.3779   Anisotropy =   170.7266

 11  O    Isotropic =   101.6339   Anisotropy =   169.4880

 12  C    Isotropic =    31.3374   Anisotropy =    78.0926

 13  O    Isotropic =   -80.8523   Anisotropy =   570.7023

 14  C    Isotropic =   168.8884   Anisotropy =    39.7978

 15  H    Isotropic =    28.7200   Anisotropy =     7.2207

 16  H    Isotropic =    28.3149   Anisotropy =     8.3414

 17  H    Isotropic =    28.3169   Anisotropy =     8.3514

 18  H    Isotropic =    24.0366   Anisotropy =     7.2651

 19  H    Isotropic =    24.6747   Anisotropy =     8.2892

 20  H    Isotropic =    25.4766   Anisotropy =     6.2262

 21  H    Isotropic =    24.2896   Anisotropy =     8.1531

 22  H    Isotropic =    29.9876   Anisotropy =     5.5557

 23  H    Isotropic =    29.9939   Anisotropy =     6.0855

 24  H    Isotropic =    30.5026   Anisotropy =     7.4831

  Exact polarizability: 181.579  -1.067 111.272  -2.747  -2.583  58.119
 Approx polarizability: 228.258  -6.884 203.372  -4.663  -2.696  89.845

                     1                      2                      3
                     A                      A                      A
 Frequencies --    23.9044                48.6878                62.6804
 Red. masses --     6.0585                 3.0835                 4.4229
 Frc consts  --     0.0020                 0.0043                 0.0102
 IR Inten    --     0.9330                 2.5103                 0.5385

                     4                      5                      6
                     A                      A                      A
 Frequencies --    82.3512                93.5829               117.4804
 Red. masses --     1.9328                 1.7480                 2.1995
 Frc consts  --     0.0077                 0.0090                 0.0179
 IR Inten    --     0.2583                 0.3531                 0.2759

                     7                      8                      9
                     A                      A                      A
 Frequencies --   134.3296               162.8467               190.0443
 Red. masses --     1.5297                 4.5220                 5.5678
 Frc consts  --     0.0163                 0.0707                 0.1185
 IR Inten    --     0.1798                 2.1326                 7.0712

                    10                     11                     12
                     A                      A                      A
 Frequencies --   266.3481               314.1553               327.4195
 Red. masses --     4.7156                 4.8632                 6.0609
 Frc consts  --     0.1971                 0.2828                 0.3828
 IR Inten    --     1.0543                22.4764                 1.0810

                    13                     14                     15
                     A                      A                      A
 Frequencies --   381.3866               408.4063               423.6570
 Red. masses --     6.0629                 4.1284                 3.1591
 Frc consts  --     0.5196                 0.4057                 0.3341
 IR Inten    --     1.5321                 2.3506                 0.6685

                    16                     17                     18
                     A                      A                      A
 Frequencies --   493.0308               517.2310               586.7179
 Red. masses --     5.9958                 3.1328                 3.7476
 Frc consts  --     0.8587                 0.4938                 0.7601
 IR Inten    --     8.9007                 3.8283                 6.1389

                    19                     20                     21
                     A                      A                      A
 Frequencies --   589.3755               644.4872               686.9374
 Red. masses --     3.5051                 6.8723                 5.5816
 Frc consts  --     0.7174                 1.6818                 1.5518
 IR Inten    --     2.4490                 2.5012                10.5997

                    22                     23                     24
                     A                      A                      A
 Frequencies --   707.6147               768.6487               802.6799
 Red. masses --     4.2718                 4.8323                 5.3014
 Frc consts  --     1.2603                 1.6821                 2.0124
 IR Inten    --    21.7902                24.5619                 2.3311

                    25                     26                     27
                     A                      A                      A
 Frequencies --   843.5709               847.1815               871.3579
 Red. masses --     1.2746                 4.2607                 2.0329
 Frc consts  --     0.5344                 1.8017                 0.9094
 IR Inten    --     1.0200                 8.8174                26.3185

                    28                     29                     30
                     A                      A                      A
 Frequencies --   933.4846               971.9771               986.7656
 Red. masses --     6.1061                 1.3168                 1.3175
 Frc consts  --     3.1349                 0.7329                 0.7558
 IR Inten    --    35.2973                 0.2183                 0.3306

                    31                     32                     33
                     A                      A                      A
 Frequencies --  1004.0792              1030.0031              1040.2016
 Red. masses --     7.2228                 1.9120                 2.4415
 Frc consts  --     4.2904                 1.1951                 1.5565
 IR Inten    --     5.4507                66.8063                62.6387

                    34                     35                     36
                     A                      A                      A
 Frequencies --  1074.4041              1138.1368              1147.9622
 Red. masses --     1.7295                 1.4759                 2.7925
 Frc consts  --     1.1763                 1.1264                 2.1682
 IR Inten    --     9.1985                52.5389               126.1135

                    37                     38                     39
                     A                      A                      A
 Frequencies --  1185.1952              1196.6705              1222.7876
 Red. masses --     1.2724                 1.2564                 1.5958
 Frc consts  --     1.0531                 1.0601                 1.4059
 IR Inten    --     0.8712               221.1649               107.4889

                    40                     41                     42
                     A                      A                      A
 Frequencies --  1239.5074              1246.7577              1313.2745
 Red. masses --     3.5733                 4.0287                 4.7294
 Frc consts  --     3.2346                 3.6896                 4.8058
 IR Inten    --   496.1763               289.2613               425.5359

                    43                     44                     45
                     A                      A                      A
 Frequencies --  1337.0803              1363.9911              1423.5644
 Red. masses --     1.3277                10.1664                 1.3098
 Frc consts  --     1.3985                11.1440                 1.5638
 IR Inten    --    14.6247                41.1469                54.1812

                    46                     47                     48
                     A                      A                      A
 Frequencies --  1457.9818              1492.2533              1499.2017
 Red. masses --     3.1557                 1.2093                 1.0484
 Frc consts  --     3.9523                 1.5867                 1.3883
 IR Inten    --    10.4086                22.2964                12.7887

                    49                     50                     51
                     A                      A                      A
 Frequencies --  1503.8758              1511.6814              1525.0691
 Red. masses --     1.0463                 1.0485                 1.0490
 Frc consts  --     1.3942                 1.4116                 1.4374
 IR Inten    --     8.7672                 5.7822                 8.3019

                    52                     53                     54
                     A                      A                      A
 Frequencies --  1552.7386              1635.8143              1663.0907
 Red. masses --     2.5252                 7.2723                 5.8848
 Frc consts  --     3.5871                11.4654                 9.5898
 IR Inten    --    31.7033                 0.9994                90.3942

                    55                     56                     57
                     A                      A                      A
 Frequencies --  1801.4315              1854.4495              3073.2471
 Red. masses --    11.6693                11.5522                 1.0371
 Frc consts  --    22.3116                23.4070                 5.7713
 IR Inten    --   226.2167               211.0015                 1.2985

                    58                     59                     60
                     A                      A                      A
 Frequencies --  3074.7172              3135.7629              3149.1385
 Red. masses --     1.0294                 1.1006                 1.1075
 Frc consts  --     5.7338                 6.3764                 6.4710
 IR Inten    --    40.1434                 4.4433                21.4020

                    61                     62                     63
                     A                      A                      A
 Frequencies --  3180.0225              3186.6687              3216.0764
 Red. masses --     1.1072                 1.1034                 1.0897
 Frc consts  --     6.5968                 6.6017                 6.6404
 IR Inten    --    17.9839                 7.0857                 4.6539

                    64                     65                     66
                     A                      A                      A
 Frequencies --  3227.0535              3238.3938              3262.6009
 Red. masses --     1.0901                 1.0934                 1.0932
 Frc consts  --     6.6886                 6.7559                 6.8560
 IR Inten    --     0.3767                 2.6253                 1.4091

 - Thermochemistry -
 -------------------
 Temperature   298.150 Kelvin.  Pressure   1.00000 Atm.
 Atom     1 has atomic number  6 and mass  12.00000

 Molecular mass:   194.05791 amu.
 Principal axes and moments of inertia in atomic units:
                           1         2         3
     Eigenvalues --   696.252176561.632317100.73261
           X            0.99999   0.00021  -0.00409
           Y           -0.00028   0.99987  -0.01639
           Z            0.00409   0.01639   0.99986
 This molecule is an asymmetric top.
 Rotational symmetry number  1.
 Warning -- assumption of classical behavior for rotation
           may cause significant error
 Rotational temperatures (Kelvin)      0.12440     0.01320     0.01220
 Rotational constants (GHZ):           2.59208     0.27504     0.25416
 Zero-point vibrational energy     487437.7 (Joules/Mol)
                                  116.50041 (Kcal/Mol)
 Warning -- explicit consideration of  19 degrees of freedom as
           vibrations may cause significant error
 Vibrational temperatures:     34.39    70.05    90.18   118.48   134.64
          (Kelvin)            169.03   193.27   234.30   273.43   383.22
                              452.00   471.08   548.73   587.60   609.55
                              709.36   744.18   844.16   847.98   927.27
                              988.35  1018.10  1105.91  1154.88  1213.71
                             1218.90  1253.69  1343.07  1398.46  1419.73
                             1444.64  1481.94  1496.62  1545.83  1637.52
                             1651.66  1705.23  1721.74  1759.32  1783.37
                             1793.80  1889.51  1923.76  1962.48  2048.19
                             2097.71  2147.02  2157.01  2163.74  2174.97
                             2194.23  2234.04  2353.57  2392.81  2591.85
                             2668.14  4421.71  4423.83  4511.66  4530.90
                             4575.34  4584.90  4627.21  4643.00  4659.32
                             4694.15

 Zero-point correction=                           0.185655 (Hartree/Particle)
 Thermal correction to Energy=                    0.199231
 Thermal correction to Enthalpy=                  0.200176
 Thermal correction to Gibbs Free Energy=         0.143332
 Sum of electronic and zero-point Energies=           -687.820033
 Sum of electronic and thermal Energies=              -687.806457
 Sum of electronic and thermal Enthalpies=            -687.805513
 Sum of electronic and thermal Free Energies=         -687.862357

                     E (Thermal)             CV                S
                      KCal/Mol        Cal/Mol-Kelvin    Cal/Mol-Kelvin
 Total                  125.020             48.251            119.637
 Electronic               0.000              0.000              0.000
 Translational            0.889              2.981             41.694
 Rotational               0.889              2.981             31.851
 Vibrational            123.242             42.289             46.092
 Vibration     1          0.593              1.985              6.280
 Vibration     2          0.595              1.978              4.870
 Vibration     3          0.597              1.972              4.371
 Vibration     4          0.600              1.961              3.834
 Vibration     5          0.603              1.954              3.584
 Vibration     6          0.608              1.935              3.141
 Vibration     7          0.613              1.919              2.883
 Vibration     8          0.623              1.888              2.516
 Vibration     9          0.633              1.854              2.227
 Vibration    10          0.672              1.735              1.620
 Vibration    11          0.702              1.647              1.340
 Vibration    12          0.711              1.621              1.273
 Vibration    13          0.751              1.510              1.034
 Vibration    14          0.773              1.452              0.932
 Vibration    15          0.786              1.419              0.880
 Vibration    16          0.849              1.265              0.676
 Vibration    17          0.872              1.212              0.616
 Vibration    18          0.944              1.060              0.473
 Vibration    19          0.947              1.054              0.468

 Optimization completed.
    -- Stationary point found.
 Normal termination of Gaussian 09 at Fri Oct  1 01:43:40 2021.
 Gaussian 09:  AM64L-G09RevA.02 11-Jun-2009

 ----------------------------------------------------------------------
 #p TD(NStates=10, Root=1) b3lyp/6-31G* volume pop=NPA density=current
 Geom=AllCheck Guess=Read
 ----------------------------------------------------------------------

 COC(=O)c1ccc(cc1)OC(=O)C_conf_0
 -------------------------------
 Redundant internal coordinates taken from checkpoint file:
 C10H10O4_fc49_conf_0.chk
 Charge =  0 Multiplicity = 1

                         Standard orientation:
 ---------------------------------------------------------------------
 Center     Atomic      Atomic             Coordinates (Angstroms)
 Number     Number       Type             X           Y           Z
 ---------------------------------------------------------------------
      1          6           0       -4.998599   -0.528253    0.236928
      2          8           0       -3.580185   -0.736510    0.166859
      3          6           0       -2.842568    0.382216   -0.029616
      4          8           0       -3.334797    1.488072   -0.142842
      5          6           0       -1.383071    0.097314   -0.089115
      6          6           0       -0.511043    1.175644   -0.289096
      7          6           0        0.865187    0.981877   -0.355653
      8          6           0        1.367923   -0.314137   -0.214217
      9          6           0        0.514457   -1.401568   -0.018620
     10          6           0       -0.859548   -1.196328    0.043797
     11          8           0        2.717062   -0.631715   -0.339359
     12          6           0        3.704062    0.156360    0.203732
     13          8           0        3.504169    1.164558    0.832156
     14          6           0        5.051380   -0.446610   -0.107280
     15          1           0       -5.431503   -1.516743    0.394083
     16          1           0       -5.369347   -0.088927   -0.693043
     17          1           0       -5.248673    0.137896    1.067009
     18          1           0       -0.931511    2.170273   -0.393250
     19          1           0        1.534371    1.818721   -0.503066
     20          1           0        0.940698   -2.394825    0.078341
     21          1           0       -1.528813   -2.035277    0.195745
     22          1           0        5.186640   -0.525110   -1.191015
     23          1           0        5.114829   -1.459462    0.303588
     24          1           0        5.834236    0.179135    0.321937
 ---------------------------------------------------------------------

 SCF Done:  E(RB3LYP) =  -688.005688504     A.U. after    1 cycles

 Excitation energies and oscillator strengths:

 Excited State   1:      Singlet-A      4.8444 eV  255.93 nm  f=0.0005  <S**2>=0.000
      49 -> 52         0.68010
      49 -> 54         0.11710
      49 -> 55         0.11543
 This state for optimization and/or second-order correction.
 Total Energy, E(TD-HF/TD-KS) =  -687.827661374
 Copying the excited state density for this state as the 1-particle RhoCI density.

 Excited State   2:      Singlet-A      4.9831 eV  248.81 nm  f=0.0087  <S**2>=0.000
      50 -> 52         0.59299
      51 -> 53         0.36468

 Excited State   3:      Singlet-A      5.1697 eV  239.83 nm  f=0.4319  <S**2>=0.000
      50 -> 53        -0.14665
      51 -> 52         0.67671

 Excited State   4:      Singlet-A      5.4364 eV  228.06 nm  f=0.0013  <S**2>=0.000
      48 -> 52         0.55484
      48 -> 54        -0.36398
      50 -> 54        -0.16450
      51 -> 53        -0.13105

 Excited State   5:      Singlet-A      6.0371 eV  205.37 nm  f=0.0021  <S**2>=0.000
      48 -> 52         0.16880
      48 -> 54         0.18565
      51 -> 53        -0.12792
      51 -> 54         0.62567

 Excited State   6:      Singlet-A      6.1524 eV  201.52 nm  f=0.0025  <S**2>=0.000
      48 -> 52         0.35778
      48 -> 54         0.36586
      50 -> 54         0.38686
      51 -> 54        -0.24093

 Excited State   7:      Singlet-A      6.2636 eV  197.94 nm  f=0.0291  <S**2>=0.000
      47 -> 52         0.24357
      49 -> 53         0.50983
      50 -> 52         0.20961
      51 -> 53        -0.31734

 Excited State   8:      Singlet-A      6.2846 eV  197.28 nm  f=0.0275  <S**2>=0.000
      47 -> 52        -0.30407
      49 -> 53         0.47677
      50 -> 52        -0.21235
      51 -> 53         0.31488

 Excited State   9:      Singlet-A      6.4519 eV  192.17 nm  f=0.0776  <S**2>=0.000
      47 -> 52         0.47972
      48 -> 54        -0.25306
      50 -> 52        -0.12480
      50 -> 54         0.32542
      51 -> 53         0.18359
      51 -> 54         0.11600

 Excited State  10:      Singlet-A      6.5081 eV  190.51 nm  f=0.0813  <S**2>=0.000
      47 -> 52        -0.30376
      48 -> 52        -0.12036
      48 -> 54        -0.27497
      50 -> 52         0.13108
      50 -> 54         0.44779
      50 -> 55         0.10692
      51 -> 53        -0.25275

 The electronic state is 1-A.
 Alpha  occ. eigenvalues --  -19.21126 -19.19227 -19.15135 -19.13240 -10.33395
 Alpha  occ. eigenvalues --  -10.31413 -10.26622 -10.24054 -10.20690 -10.20646
 Alpha  occ. eigenvalues --  -10.20573 -10.20253 -10.20233 -10.20045  -1.11742
 Alpha  occ. eigenvalues --   -1.10011  -1.03631  -1.01044  -0.86904  -0.79142
 Alpha  occ. eigenvalues --   -0.76161  -0.75567  -0.72013  -0.65990  -0.62353
 Alpha  occ. eigenvalues --   -0.58863  -0.56621  -0.53334  -0.50281  -0.49387
 Alpha  occ. eigenvalues --   -0.48683  -0.48018  -0.46824  -0.45752  -0.44556
 Alpha  occ. eigenvalues --   -0.44152  -0.43365  -0.42202  -0.41230  -0.40254
 Alpha  occ. eigenvalues --   -0.39915  -0.37721  -0.37016  -0.36045  -0.35102
 Alpha  occ. eigenvalues --   -0.32914  -0.30122  -0.28650  -0.27286  -0.26208
 Alpha  occ. eigenvalues --   -0.24929
 Alpha virt. eigenvalues --   -0.04662  -0.01105  -0.00071   0.06196   0.09062
 Alpha virt. eigenvalues --    0.10358   0.11554   0.12902   0.13995   0.14623
 Alpha virt. eigenvalues --    0.15675   0.15987   0.16593   0.17365   0.17502

 Mulliken atomic charges:
              1
     1  C   -0.242195
     2  O   -0.429937
     3  C    0.568677
     4  O   -0.292964
     5  C    0.064829
     6  C   -0.208686
     7  C   -0.148168
     8  C    0.319317
     9  C   -0.171124
    10  C   -0.196388
    11  O   -0.516923
    12  C    0.587447
    13  O   -0.450660
    14  C   -0.523687
    15  H    0.189545
    16  H    0.180426
    17  H    0.181166
    18  H    0.129796
    19  H    0.151830
    20  H    0.132426
    21  H    0.133624
    22  H    0.181079
    23  H    0.180853
    24  H    0.179717
 Sum of Mulliken atomic charges =  -0.00000

 Dipole moment (field-independent basis, Debye):
    X=             -4.2646    Y=             -1.7947    Z=             -0.6926  Tot=              4.6784
 Quadrupole moment (field-independent basis, Debye-Ang):
   XX=            -49.2508   YY=            -79.5776   ZZ=            -82.5971
   XY=             -2.4930   XZ=             -5.2828   YZ=             -3.3681

 Summary of Natural Population Analysis:

                                       Natural Population
                Natural  -----------------------------------------------
    Atom  No    Charge         Core      Valence    Rydberg      Total
 -----------------------------------------------------------------------
      C    1   -0.32784      1.99943     4.31420    0.01421     6.32784
      O    2   -0.47644      1.99977     6.46605    0.01063     8.47644
      C    3    0.67702      1.99931     3.28564    0.03803     5.32298
      O    4   -0.24730      1.99981     6.22897    0.01852     8.24730
      C    5   -0.22000      1.99888     4.20499    0.01613     6.22000
      C    6   -0.23222      1.99907     4.21927    0.01389     6.23222
      C    7   -0.26287      1.99902     4.25008    0.01377     6.26287
      C    8    0.24677      1.99872     3.73259    0.02192     5.75323
      C    9   -0.25722      1.99902     4.24395    0.01426     6.25722
      C   10   -0.23549      1.99904     4.22225    0.01420     6.23549
      O   11   -0.54630      1.99970     6.53523    0.01136     8.54630
      C   12    0.82031      1.99945     3.13698    0.04325     5.17969
      O   13   -0.58389      1.99978     6.56397    0.02014     8.58389
      C   14   -0.77398      1.99934     4.76803    0.00662     6.77398
      H   15    0.23666      0.00000     0.76300    0.00033     0.76334
      H   16    0.21816      0.00000     0.78054    0.00130     0.78184
      H   17    0.21867      0.00000     0.78003    0.00130     0.78133
      H   18    0.23350      0.00000     0.76605    0.00045     0.76650
      H   19    0.25705      0.00000     0.74186    0.00108     0.74295
      H   20    0.24516      0.00000     0.75369    0.00115     0.75484
      H   21    0.24327      0.00000     0.75589    0.00084     0.75673
      H   22    0.25637      0.00000     0.74276    0.00087     0.74363
      H   23    0.25609      0.00000     0.74300    0.00090     0.74391
      H   24    0.25453      0.00000     0.74450    0.00097     0.74547
 =======================================================================
   * Total *    0.00000     27.99033    73.74355    0.26612   102.00000

 Normal termination of Gaussian 09 at Fri Oct  1 04:24:09 2021.
