 Gaussian 09, Revision A.02,

 -----------------------------------
 #p opt b3lyp/6-31G* scf=(xqc,tight)
 -----------------------------------

 ------------------------
 Cc1ncc2c(c1)cccc2_conf_0
 ------------------------
 Symbolic Z-matrix:
 Charge =  0 Multiplicity = 1

 SCF Done:  E(RB3LYP) =  -441.244526412     A.U. after   14 cycles
 SCF Done:  E(RB3LYP) =  -441.248583977     A.U. after   12 cycles
 SCF Done:  E(RB3LYP) =  -441.248887254     A.U. after   11 cycles
 SCF Done:  E(RB3LYP) =  -441.248908283     A.U. after    9 cycles
 SCF Done:  E(RB3LYP) =  -441.248911460     A.U. after    9 cycles
 Optimization completed.
    -- Stationary point found.
 Normal termination of Gaussian 09 at Sun Oct  3 23:02:54 2021.

 ----------------------------------------------------------------------
 #p freq b3lyp/6-31G* volume NMR pop=NPA density=current Geom=AllCheck
 Guess=Read
 ----------------------------------------------------------------------

 Cc1ncc2c(c1)cccc2_conf_0
 ------------------------
 Redundant internal coordinates taken from checkpoint file:
 C10H9N_cfce_conf_0.chk
 Charge =  0 Multiplicity = 1

 SCF Done:  E(RB3LYP) =  -441.248911460     A.U. after    1 cycles

  1  C    Isotropic =   165.6075   Anisotropy =    39.4642

  2  C    Isotropic =    42.3493   Anisotropy =   160.9891

  3  N    Isotropic =   -60.2213   Anisotropy =   495.2064

  4  C    Isotropic =    44.4188   Anisotropy =   136.5702

  5  C    Isotropic =    69.9039   Anisotropy =   194.1887

  6  C    Isotropic =    60.8310   Anisotropy =   205.6821

  7  C    Isotropic =    76.1484   Anisotropy =   129.1539

  8  C    Isotropic =    69.6585   Anisotropy =   145.0113

  9  C    Isotropic =    66.8515   Anisotropy =   167.1731

 10  C    Isotropic =    70.5850   Anisotropy =   161.6095

 11  C    Isotropic =    67.8459   Anisotropy =   154.8388

 12  H    Isotropic =    29.7265   Anisotropy =     7.5384

 13  H    Isotropic =    29.4603   Anisotropy =     7.0074

 14  H    Isotropic =    29.4610   Anisotropy =     7.0058

 15  H    Isotropic =    23.1420   Anisotropy =     7.2633

 16  H    Isotropic =    24.8810   Anisotropy =     9.4238

 17  H    Isotropic =    24.6417   Anisotropy =     6.9256

 18  H    Isotropic =    24.6751   Anisotropy =     5.3878

 19  H    Isotropic =    24.7962   Anisotropy =     5.0165

 20  H    Isotropic =    24.5001   Anisotropy =     5.9568

  Exact polarizability: 166.844   0.273 114.807  -0.002  -0.001  42.055
 Approx polarizability: 272.361  -6.863 208.002  -0.001  -0.001  64.772

 ******    1 imaginary frequencies (negative Signs) ******

                     1                      2                      3
                     A                      A                      A
 Frequencies --  -117.1975               111.6210               184.6233
 Red. masses --     1.0281                 3.5553                 4.6596
 Frc consts  --     0.0083                 0.0261                 0.0936
 IR Inten    --     0.1144                 0.7995                 0.4843

                     4                      5                      6
                     A                      A                      A
 Frequencies --   268.5718               279.2224               402.3112
 Red. masses --     3.0750                 3.7619                 3.7210
 Frc consts  --     0.1307                 0.1728                 0.3548
 IR Inten    --     1.1459                 0.3374                 0.3629

                     7                      8                      9
                     A                      A                      A
 Frequencies --   416.4420               474.2345               481.1112
 Red. masses --     3.2003                 5.0999                 2.5095
 Frc consts  --     0.3270                 0.6758                 0.3422
 IR Inten    --     2.6069                 0.7129                 7.7457

                    10                     11                     12
                     A                      A                      A
 Frequencies --   522.0216               528.6022               641.1170
 Red. masses --     3.5485                 6.9472                 6.2142
 Frc consts  --     0.5697                 1.1437                 1.5049
 IR Inten    --     1.7247                 1.1266                 3.1962

                    13                     14                     15
                     A                      A                      A
 Frequencies --   676.3870               734.2730               765.9736
 Red. masses --     4.3173                 5.6376                 1.2349
 Frc consts  --     1.1637                 1.7908                 0.4269
 IR Inten    --     1.8579                 4.2017                36.0693

                    16                     17                     18
                     A                      A                      A
 Frequencies --   791.1463               799.3566               872.9677
 Red. masses --     3.2059                 4.8966                 1.3536
 Frc consts  --     1.1823                 1.8434                 0.6078
 IR Inten    --     0.1875                 0.4888                 2.2222

                    19                     20                     21
                     A                      A                      A
 Frequencies --   896.1759               897.8893               948.7611
 Red. masses --     4.2180                 1.4556                 1.3952
 Frc consts  --     1.9959                 0.6914                 0.7399
 IR Inten    --     3.0160                17.9523                 0.0344

                    22                     23                     24
                     A                      A                      A
 Frequencies --   965.8472               967.5892               996.4468
 Red. masses --     4.6754                 1.4001                 1.2822
 Frc consts  --     2.5697                 0.7723                 0.7501
 IR Inten    --    14.5340                 2.8561                 0.0019

                    25                     26                     27
                     A                      A                      A
 Frequencies --  1028.2758              1046.4685              1072.0324
 Red. masses --     1.5435                 2.2652                 1.5464
 Frc consts  --     0.9615                 1.4616                 1.0471
 IR Inten    --     2.5285                 2.2321                 4.2791

                    28                     29                     30
                     A                      A                      A
 Frequencies --  1156.6762              1183.3293              1201.9476
 Red. masses --     1.7620                 1.2749                 1.4305
 Frc consts  --     1.3889                 1.0518                 1.2176
 IR Inten    --     0.2251                 3.1904                 8.3749

                    31                     32                     33
                     A                      A                      A
 Frequencies --  1244.4433              1292.7374              1313.2284
 Red. masses --     2.3436                 2.1942                 1.7972
 Frc consts  --     2.1384                 2.1605                 1.8262
 IR Inten    --     5.2511                 8.2716                 9.3593

                    34                     35                     36
                     A                      A                      A
 Frequencies --  1368.9420              1387.6225              1425.2455
 Red. masses --     2.0221                 3.1570                 4.1771
 Frc consts  --     2.2326                 3.5815                 4.9992
 IR Inten    --     1.2413                 0.5486                 2.2708

                    37                     38                     39
                     A                      A                      A
 Frequencies --  1433.9011              1477.3757              1497.8954
 Red. masses --     1.4915                 2.0372                 2.3554
 Frc consts  --     1.8068                 2.6198                 3.1137
 IR Inten    --     0.6218                 8.2164                13.7882

                    40                     41                     42
                     A                      A                      A
 Frequencies --  1515.7891              1517.5152              1548.7121
 Red. masses --     1.2584                 1.0450                 2.6628
 Frc consts  --     1.7035                 1.4179                 3.7629
 IR Inten    --     2.8517                 6.1331                14.9719

                    43                     44                     45
                     A                      A                      A
 Frequencies --  1622.9399              1645.2002              1685.0089
 Red. masses --     6.4139                 5.6323                 6.0507
 Frc consts  --     9.9535                 8.9820                10.1218
 IR Inten    --     7.9668                52.1574                40.9991

                    46                     47                     48
                     A                      A                      A
 Frequencies --  3048.1793              3098.8286              3143.4483
 Red. masses --     1.0392                 1.1008                 1.0897
 Frc consts  --     5.6889                 6.2281                 6.3440
 IR Inten    --    25.3845                19.1982                29.2753

                    49                     50                     51
                     A                      A                      A
 Frequencies --  3155.9951              3179.4793              3181.0336
 Red. masses --     1.0994                 1.0893                 1.0871
 Frc consts  --     6.4516                 6.4879                 6.4812
 IR Inten    --     8.2125                 4.2945                12.7318

                    52                     53                     54
                     A                      A                      A
 Frequencies --  3185.6330              3198.0530              3210.6965
 Red. masses --     1.0883                 1.0936                 1.0970
 Frc consts  --     6.5069                 6.5902                 6.6630
 IR Inten    --     1.4103                31.8047                26.2321

 - Thermochemistry -
 -------------------
 Temperature   298.150 Kelvin.  Pressure   1.00000 Atm.
 Atom     1 has atomic number  6 and mass  12.00000

 Molecular mass:   143.07350 amu.
 Principal axes and moments of inertia in atomic units:
                           1         2         3
     Eigenvalues --   622.957502182.189112793.92552
           X            0.99985   0.01742  -0.00000
           Y           -0.01742   0.99985  -0.00000
           Z            0.00000   0.00000   1.00000
 This molecule is an asymmetric top.
 Rotational symmetry number  1.
 Warning -- assumption of classical behavior for rotation
           may cause significant error
 Rotational temperatures (Kelvin)      0.13904     0.03969     0.03100
 Rotational constants (GHZ):           2.89705     0.82703     0.64595
    1 imaginary frequencies ignored.
 Zero-point vibrational energy     428797.4 (Joules/Mol)
                                  102.48503 (Kcal/Mol)
 Warning -- explicit consideration of  10 degrees of freedom as
           vibrations may cause significant error
 Vibrational temperatures:    160.60   265.63   386.41   401.74   578.84
          (Kelvin)            599.17   682.32   692.21   751.07   760.54
                              922.42   973.17  1056.45  1102.06  1138.28
                             1150.09  1256.00  1289.40  1291.86  1365.05
                             1389.64  1392.14  1433.66  1479.46  1505.63
                             1542.41  1664.20  1702.54  1729.33  1790.47
                             1859.96  1889.44  1969.60  1996.48  2050.61
                             2063.06  2125.61  2155.13  2180.88  2183.36
                             2228.25  2335.05  2367.07  2424.35  4385.64
                             4458.52  4522.72  4540.77  4574.56  4576.79
                             4583.41  4601.28  4619.47

 Zero-point correction=                           0.163320 (Hartree/Particle)
 Thermal correction to Energy=                    0.171041
 Thermal correction to Enthalpy=                  0.171985
 Thermal correction to Gibbs Free Energy=         0.130760
 Sum of electronic and zero-point Energies=           -441.085591
 Sum of electronic and thermal Energies=              -441.077870
 Sum of electronic and thermal Enthalpies=            -441.076926
 Sum of electronic and thermal Free Energies=         -441.118152

                     E (Thermal)             CV                S
                      KCal/Mol        Cal/Mol-Kelvin    Cal/Mol-Kelvin
 Total                  107.330             31.918             86.766
 Electronic               0.000              0.000              0.000
 Translational            0.889              2.981             40.786
 Rotational               0.889              2.981             29.720
 Vibrational            105.552             25.956             16.261
 Vibration     1          0.607              1.940              3.241
 Vibration     2          0.631              1.861              2.281
 Vibration     3          0.673              1.731              1.605
 Vibration     4          0.680              1.712              1.538
 Vibration     5          0.768              1.465              0.954
 Vibration     6          0.780              1.435              0.904
 Vibration     7          0.831              1.307              0.726
 Vibration     8          0.837              1.292              0.707
 Vibration     9          0.877              1.201              0.605
 Vibration    10          0.884              1.187              0.590

 Optimization completed.
    -- Stationary point found.
 Normal termination of Gaussian 09 at Sun Oct  3 23:49:30 2021.
 Gaussian 09:  AM64L-G09RevA.02 11-Jun-2009

 ----------------------------------------------------------------------
 #p TD(NStates=10, Root=1) b3lyp/6-31G* volume pop=NPA density=current
 Geom=AllCheck Guess=Read
 ----------------------------------------------------------------------

 Cc1ncc2c(c1)cccc2_conf_0
 ------------------------
 Redundant internal coordinates taken from checkpoint file:
 C10H9N_cfce_conf_0.chk
 Charge =  0 Multiplicity = 1

                         Standard orientation:
 ---------------------------------------------------------------------
 Center     Atomic      Atomic             Coordinates (Angstroms)
 Number     Number       Type             X           Y           Z
 ---------------------------------------------------------------------
      1          6           0       -3.518861   -0.578144   -0.000088
      2          6           0       -2.070174   -0.151099   -0.000243
      3          7           0       -1.840635    1.196589    0.000058
      4          6           0       -0.592869    1.617701    0.000192
      5          6           0        0.545403    0.769432    0.000086
      6          6           0        0.307946   -0.638806    0.000111
      7          6           0       -1.039715   -1.072090    0.000012
      8          6           0        1.424240   -1.519346    0.000131
      9          6           0        2.705616   -1.016929   -0.000019
     10          6           0        2.937960    0.383290   -0.000161
     11          6           0        1.877180    1.259663   -0.000079
     12          1           0       -4.160602    0.305494   -0.000645
     13          1           0       -3.758521   -1.183080    0.883083
     14          1           0       -3.758266   -1.184057   -0.882652
     15          1           0       -0.444686    2.699048    0.000221
     16          1           0       -1.258498   -2.137747    0.000209
     17          1           0        1.249957   -2.592599    0.000223
     18          1           0        3.553678   -1.696643   -0.000049
     19          1           0        3.958101    0.756842   -0.000322
     20          1           0        2.042930    2.334584   -0.000125
 ---------------------------------------------------------------------

 SCF Done:  E(RB3LYP) =  -441.248911460     A.U. after    1 cycles

 Excitation energies and oscillator strengths:

 Excited State   1:      Singlet-A      4.2539 eV  291.46 nm  f=0.0524  <S**2>=0.000
      36 -> 39        -0.12082
      36 -> 40        -0.15154
      38 -> 39         0.65842
      38 -> 40        -0.15621
 This state for optimization and/or second-order correction.
 Total Energy, E(TD-HF/TD-KS) =  -441.092582618
 Copying the excited state density for this state as the 1-particle RhoCI density.

 Excited State   2:      Singlet-A      4.2968 eV  288.55 nm  f=0.0009  <S**2>=0.000
      37 -> 39         0.69956

 Excited State   3:      Singlet-A      4.6639 eV  265.84 nm  f=0.0134  <S**2>=0.000
      36 -> 39         0.45678
      38 -> 39         0.20301
      38 -> 40         0.49436

 Excited State   4:      Singlet-A      5.1754 eV  239.56 nm  f=0.0012  <S**2>=0.000
      37 -> 40         0.70210

 Excited State   5:      Singlet-A      5.7306 eV  216.36 nm  f=0.0957  <S**2>=0.000
      35 -> 39         0.50223
      36 -> 39        -0.21020
      38 -> 40         0.16364
      38 -> 41        -0.41599

 Excited State   6:      Singlet-A      6.0588 eV  204.63 nm  f=1.0266  <S**2>=0.000
      35 -> 39         0.20467
      36 -> 39         0.43923
      36 -> 40         0.19353
      38 -> 40        -0.43728
      38 -> 41        -0.15243

 Excited State   7:      Singlet-A      6.2115 eV  199.60 nm  f=0.1055  <S**2>=0.000
      35 -> 39         0.19244
      35 -> 40        -0.27980
      36 -> 39        -0.15654
      36 -> 40         0.42108
      36 -> 41        -0.18673
      38 -> 41         0.33691

 Excited State   8:      Singlet-A      6.4657 eV  191.76 nm  f=0.0006  <S**2>=0.000
      37 -> 41         0.69611

 Excited State   9:      Singlet-A      6.4808 eV  191.31 nm  f=0.1433  <S**2>=0.000
      35 -> 39        -0.24798
      35 -> 40         0.24070
      35 -> 41        -0.11361
      36 -> 40         0.48799
      36 -> 41         0.20859
      38 -> 41        -0.23930

 Excited State  10:      Singlet-A      6.7063 eV  184.88 nm  f=0.0142  <S**2>=0.000
      35 -> 39         0.31257
      35 -> 40         0.41586
      36 -> 41         0.29670
      38 -> 41         0.35159

 The electronic state is 1-A.
 Alpha  occ. eigenvalues --  -14.32324 -10.22312 -10.22172 -10.20751 -10.20107
 Alpha  occ. eigenvalues --  -10.20058 -10.20004 -10.19792 -10.19752 -10.19032
 Alpha  occ. eigenvalues --  -10.17691  -0.93616  -0.85911  -0.79058  -0.77084
 Alpha  occ. eigenvalues --   -0.74910  -0.68849  -0.64219  -0.60953  -0.60318
 Alpha  occ. eigenvalues --   -0.52465  -0.50620  -0.49287  -0.45508  -0.44665
 Alpha  occ. eigenvalues --   -0.42612  -0.42534  -0.41934  -0.39101  -0.38682
 Alpha  occ. eigenvalues --   -0.37697  -0.36048  -0.34164  -0.33990  -0.29123
 Alpha  occ. eigenvalues --   -0.25830  -0.24930  -0.22109
 Alpha virt. eigenvalues --   -0.04879  -0.01704   0.02697   0.08777   0.09585
 Alpha virt. eigenvalues --    0.11519   0.12668   0.14319   0.16213   0.16669
 Alpha virt. eigenvalues --    0.16954   0.17383   0.19010   0.21097   0.23145

 Mulliken atomic charges:
              1
     1  C   -0.525551
     2  C    0.328983
     3  N   -0.488829
     4  C   -0.032166
     5  C    0.123662
     6  C    0.162145
     7  C   -0.239243
     8  C   -0.190367
     9  C   -0.153878
    10  C   -0.108972
    11  C   -0.208359
    12  H    0.188164
    13  H    0.170036
    14  H    0.170007
    15  H    0.133128
    16  H    0.133339
    17  H    0.130213
    18  H    0.126857
    19  H    0.142261
    20  H    0.138570
 Sum of Mulliken atomic charges =  -0.00000

 Dipole moment (field-independent basis, Debye):
    X=              0.9148    Y=             -1.5868    Z=             -0.0001  Tot=              1.8316
 Quadrupole moment (field-independent basis, Debye-Ang):
   XX=            -57.5653   YY=            -59.7506   ZZ=            -66.7102
   XY=              6.8153   XZ=             -0.0006   YZ=             -0.0005

 Summary of Natural Population Analysis:

                                       Natural Population
                Natural  -----------------------------------------------
    Atom  No    Charge         Core      Valence    Rydberg      Total
 -----------------------------------------------------------------------
      C    1   -0.71108      1.99937     4.70389    0.00783     6.71108
      C    2    0.29101      1.99909     3.68710    0.02280     5.70899
      N    3   -0.52734      1.99943     5.50476    0.02315     7.52734
      C    4    0.04541      1.99919     3.92968    0.02572     5.95459
      C    5   -0.09015      1.99901     4.07657    0.01457     6.09015
      C    6   -0.04935      1.99904     4.03435    0.01597     6.04935
      C    7   -0.23480      1.99894     4.22206    0.01379     6.23480
      C    8   -0.20570      1.99905     4.19117    0.01547     6.20570
      C    9   -0.28867      1.99913     4.27322    0.01632     6.28867
      C   10   -0.15980      1.99911     4.14607    0.01462     6.15980
      C   11   -0.21928      1.99906     4.20449    0.01573     6.21928
      H   12    0.26174      0.00000     0.73678    0.00148     0.73826
      H   13    0.25007      0.00000     0.74883    0.00109     0.74993
      H   14    0.25006      0.00000     0.74885    0.00110     0.74994
      H   15    0.21447      0.00000     0.78412    0.00141     0.78553
      H   16    0.23395      0.00000     0.76466    0.00139     0.76605
      H   17    0.23155      0.00000     0.76728    0.00117     0.76845
      H   18    0.23555      0.00000     0.76366    0.00079     0.76445
      H   19    0.23711      0.00000     0.76205    0.00084     0.76289
      H   20    0.23525      0.00000     0.76352    0.00123     0.76475
 =======================================================================
   * Total *   -0.00000     21.99042    53.81310    0.19647    76.00000

 Normal termination of Gaussian 09 at Mon Oct  4 03:22:56 2021.
