 Gaussian 09, Revision A.02,

 -----------------------------------
 #p opt b3lyp/6-31G* scf=(xqc,tight)
 -----------------------------------

 -------------------------
 COc1cccc(c1)CN(C)C_conf_0
 -------------------------
 Symbolic Z-matrix:
 Charge =  0 Multiplicity = 1

 SCF Done:  E(RB3LYP) =  -520.045543756     A.U. after   14 cycles
 SCF Done:  E(RB3LYP) =  -520.047953623     A.U. after   12 cycles
 SCF Done:  E(RB3LYP) =  -520.048278026     A.U. after   11 cycles
 SCF Done:  E(RB3LYP) =  -520.048354219     A.U. after   11 cycles
 SCF Done:  E(RB3LYP) =  -520.048396291     A.U. after   11 cycles
 SCF Done:  E(RB3LYP) =  -520.048420404     A.U. after   11 cycles
 SCF Done:  E(RB3LYP) =  -520.048428579     A.U. after   10 cycles
 SCF Done:  E(RB3LYP) =  -520.048429264     A.U. after    8 cycles
 SCF Done:  E(RB3LYP) =  -520.048429247     A.U. after    7 cycles
 Optimization completed.
    -- Stationary point found.
 Normal termination of Gaussian 09 at Thu Sep 30 10:59:38 2021.

 ----------------------------------------------------------------------
 #p freq b3lyp/6-31G* volume NMR pop=NPA density=current Geom=AllCheck
 Guess=Read
 ----------------------------------------------------------------------

 COc1cccc(c1)CN(C)C_conf_0
 -------------------------
 Redundant internal coordinates taken from checkpoint file:
 C10H15NO_9bd7_conf_0.chk
 Charge =  0 Multiplicity = 1

 SCF Done:  E(RB3LYP) =  -520.048429247     A.U. after    1 cycles

  1  C    Isotropic =   137.5918   Anisotropy =    65.1608

  2  O    Isotropic =   238.7069   Anisotropy =    74.9658

  3  C    Isotropic =    39.3783   Anisotropy =   125.1794

  4  C    Isotropic =    87.9895   Anisotropy =   141.0703

  5  C    Isotropic =    66.9848   Anisotropy =   162.7138

  6  C    Isotropic =    75.8427   Anisotropy =   157.3252

  7  C    Isotropic =    54.6006   Anisotropy =   172.5815

  8  C    Isotropic =    78.2925   Anisotropy =   119.3631

  9  C    Isotropic =   126.6109   Anisotropy =    46.5518

 10  N    Isotropic =   220.0664   Anisotropy =    38.6691

 11  C    Isotropic =   143.9621   Anisotropy =    65.0818

 12  C    Isotropic =   148.2776   Anisotropy =    55.1744

 13  H    Isotropic =    28.3384   Anisotropy =     8.1742

 14  H    Isotropic =    28.6706   Anisotropy =     8.1770

 15  H    Isotropic =    28.6677   Anisotropy =     8.2935

 16  H    Isotropic =    25.9347   Anisotropy =     6.6059

 17  H    Isotropic =    25.0631   Anisotropy =     4.8462

 18  H    Isotropic =    24.9472   Anisotropy =     8.6950

 19  H    Isotropic =    25.7505   Anisotropy =     8.3040

 20  H    Isotropic =    29.3662   Anisotropy =     6.5309

 21  H    Isotropic =    28.4591   Anisotropy =     3.8845

 22  H    Isotropic =    29.7873   Anisotropy =     9.0556

 23  H    Isotropic =    29.7986   Anisotropy =     9.6508

 24  H    Isotropic =    30.0981   Anisotropy =     8.4378

 25  H    Isotropic =    29.9340   Anisotropy =     5.0372

 26  H    Isotropic =    30.6497   Anisotropy =     8.0619

 27  H    Isotropic =    30.1656   Anisotropy =     9.2908

  Exact polarizability: 159.793  -1.547 112.427   7.384   3.864  73.603
 Approx polarizability: 206.808  -6.897 189.783  13.390   8.616 105.533

                     1                      2                      3
                     A                      A                      A
 Frequencies --    35.6329                72.2352                84.9027
 Red. masses --     3.2450                 2.8104                 3.0423
 Frc consts  --     0.0024                 0.0086                 0.0129
 IR Inten    --     0.1756                 2.2609                 3.6352

                     4                      5                      6
                     A                      A                      A
 Frequencies --   114.5189               217.1165               227.2304
 Red. masses --     3.5415                 1.8367                 2.6164
 Frc consts  --     0.0274                 0.0510                 0.0796
 IR Inten    --     0.6583                 0.3941                 0.7379

                     7                      8                      9
                     A                      A                      A
 Frequencies --   248.6798               260.2602               266.1365
 Red. masses --     2.6049                 1.3419                 1.1719
 Frc consts  --     0.0949                 0.0536                 0.0489
 IR Inten    --     0.0901                 0.6813                 0.9492

                    10                     11                     12
                     A                      A                      A
 Frequencies --   284.2586               305.9509               346.4995
 Red. masses --     1.5768                 2.8523                 2.7974
 Frc consts  --     0.0751                 0.1573                 0.1979
 IR Inten    --     0.7295                 0.5565                 4.8454

                    13                     14                     15
                     A                      A                      A
 Frequencies --   374.9132               440.2993               458.7545
 Red. masses --     1.9350                 2.5340                 3.2695
 Frc consts  --     0.1603                 0.2894                 0.4054
 IR Inten    --     3.3770                 1.1497                 1.4492

                    16                     17                     18
                     A                      A                      A
 Frequencies --   485.3249               571.8466               580.4087
 Red. masses --     3.7602                 4.0719                 4.6524
 Frc consts  --     0.5218                 0.7845                 0.9234
 IR Inten    --     1.0352                 2.4295                 5.3751

                    19                     20                     21
                     A                      A                      A
 Frequencies --   648.6891               705.8467               764.7386
 Red. masses --     5.0318                 2.5237                 4.3268
 Frc consts  --     1.2475                 0.7408                 1.4909
 IR Inten    --     0.0271                 6.2223                10.1031

                    22                     23                     24
                     A                      A                      A
 Frequencies --   795.1084               854.6409               888.0075
 Red. masses --     1.5170                 2.7600                 1.5236
 Frc consts  --     0.5651                 1.1878                 0.7079
 IR Inten    --    37.6926                16.4027                 9.5550

                    25                     26                     27
                     A                      A                      A
 Frequencies --   895.6380               926.5520               970.0022
 Red. masses --     1.4933                 3.3256                 1.2599
 Frc consts  --     0.7058                 1.6821                 0.6984
 IR Inten    --    15.7038                 5.9693                 1.3216

                    28                     29                     30
                     A                      A                      A
 Frequencies --  1010.2694              1013.8964              1061.8207
 Red. masses --     2.3345                 3.8366                 2.3592
 Frc consts  --     1.4038                 2.3237                 1.5671
 IR Inten    --     3.8218                 1.8014                76.6591

                    31                     32                     33
                     A                      A                      A
 Frequencies --  1074.9174              1094.5688              1122.4955
 Red. masses --     1.5717                 3.0184                 1.5914
 Frc consts  --     1.0700                 2.1306                 1.1814
 IR Inten    --     8.4250                50.2640                 4.6090

                    34                     35                     36
                     A                      A                      A
 Frequencies --  1133.2837              1184.5616              1186.1078
 Red. masses --     1.2536                 1.6345                 1.2789
 Frc consts  --     0.9486                 1.3513                 1.0600
 IR Inten    --     6.2581                23.0479                 1.8127

                    37                     38                     39
                     A                      A                      A
 Frequencies --  1187.2636              1204.7089              1217.2184
 Red. masses --     1.4124                 1.2282                 1.8980
 Frc consts  --     1.1730                 1.0503                 1.6568
 IR Inten    --    33.4684                 1.8851                 7.4391

                    40                     41                     42
                     A                      A                      A
 Frequencies --  1226.2454              1296.4135              1312.4045
 Red. masses --     1.4613                 2.8400                 2.6652
 Frc consts  --     1.2946                 2.8123                 2.7046
 IR Inten    --     3.9998                83.6566                43.3072

                    43                     44                     45
                     A                      A                      A
 Frequencies --  1317.3492              1344.7965              1371.8417
 Red. masses --     1.9954                 1.3606                 4.7146
 Frc consts  --     2.0402                 1.4497                 5.2276
 IR Inten    --   105.6997                 9.3502                25.3801

                    46                     47                     48
                     A                      A                      A
 Frequencies --  1413.4359              1465.5909              1488.5366
 Red. masses --     1.4952                 1.1618                 1.6104
 Frc consts  --     1.7599                 1.4704                 2.1023
 IR Inten    --    48.6958                 3.1023                51.6954

                    49                     50                     51
                     A                      A                      A
 Frequencies --  1497.0729              1506.4846              1512.0891
 Red. masses --     1.2311                 1.7261                 1.0539
 Frc consts  --     1.6256                 2.3081                 1.4197
 IR Inten    --    18.4999                 6.7218                 9.4723

                    52                     53                     54
                     A                      A                      A
 Frequencies --  1515.8887              1521.4778              1528.7823
 Red. masses --     1.0768                 1.0484                 1.0725
 Frc consts  --     1.4579                 1.4299                 1.4768
 IR Inten    --     4.9347                 4.9021                 8.5716

                    55                     56                     57
                     A                      A                      A
 Frequencies --  1531.7627              1537.0317              1540.5459
 Red. masses --     1.0941                 1.1190                 1.4794
 Frc consts  --     1.5125                 1.5576                 2.0686
 IR Inten    --    10.0615                35.4526                10.4429

                    58                     59                     60
                     A                      A                      A
 Frequencies --  1542.1245              1642.3782              1671.1215
 Red. masses --     1.2799                 5.6754                 6.0134
 Frc consts  --     1.7934                 9.0198                 9.8943
 IR Inten    --    21.0660                52.9566                73.2279

                    61                     62                     63
                     A                      A                      A
 Frequencies --  2919.0328              2929.1456              2941.6925
 Red. masses --     1.0723                 1.0619                 1.0637
 Frc consts  --     5.3832                 5.3679                 5.4235
 IR Inten    --    33.8967                42.8395               184.4206

                    64                     65                     66
                     A                      A                      A
 Frequencies --  3023.3747              3042.9538              3074.5269
 Red. masses --     1.0348                 1.0861                 1.0696
 Frc consts  --     5.5729                 5.9256                 5.9567
 IR Inten    --    58.5290                24.5050                39.4838

                    67                     68                     69
                     A                      A                      A
 Frequencies --  3080.7591              3086.2427              3118.9256
 Red. masses --     1.1065                 1.0716                 1.1040
 Frc consts  --     6.1876                 6.0138                 6.3275
 IR Inten    --    45.8259                34.1285                34.7858

                    70                     71                     72
                     A                      A                      A
 Frequencies --  3138.1714              3154.4710              3184.9198
 Red. masses --     1.1016                 1.0996                 1.0878
 Frc consts  --     6.3920                 6.4467                 6.5011
 IR Inten    --    28.1206                28.2252                15.6531

                    73                     74                     75
                     A                      A                      A
 Frequencies --  3197.3633              3215.8861              3226.1916
 Red. masses --     1.0903                 1.0919                 1.0919
 Frc consts  --     6.5670                 6.6533                 6.6961
 IR Inten    --     5.3863                 8.5502                13.6630

 - Thermochemistry -
 -------------------
 Temperature   298.150 Kelvin.  Pressure   1.00000 Atm.
 Atom     1 has atomic number  6 and mass  12.00000

 Molecular mass:   165.11536 amu.
 Principal axes and moments of inertia in atomic units:
                           1         2         3
     Eigenvalues --   770.246644175.452174524.88917
           X            0.99996   0.00893   0.00169
           Y           -0.00893   0.99995   0.00488
           Z           -0.00164  -0.00490   0.99999
 This molecule is an asymmetric top.
 Rotational symmetry number  1.
 Warning -- assumption of classical behavior for rotation
           may cause significant error
 Rotational temperatures (Kelvin)      0.11245     0.02074     0.01914
 Rotational constants (GHZ):           2.34307     0.43223     0.39885
 Zero-point vibrational energy     618662.8 (Joules/Mol)
                                  147.86395 (Kcal/Mol)
 Warning -- explicit consideration of  18 degrees of freedom as
           vibrations may cause significant error
 Vibrational temperatures:     51.27   103.93   122.16   164.77   312.38
          (Kelvin)            326.93   357.79   374.46   382.91   408.98
                              440.19   498.53   539.42   633.49   660.04
                              698.27   822.76   835.08   933.32  1015.55
                             1100.29  1143.98  1229.64  1277.64  1288.62
                             1333.10  1395.62  1453.55  1458.77  1527.72
                             1546.56  1574.84  1615.02  1630.54  1704.32
                             1706.54  1708.21  1733.31  1751.30  1764.29
                             1865.25  1888.25  1895.37  1934.86  1973.77
                             2033.62  2108.66  2141.67  2153.95  2167.49
                             2175.56  2181.02  2189.06  2199.57  2203.86
                             2211.44  2216.50  2218.77  2363.01  2404.37
                             4199.83  4214.38  4232.43  4349.96  4378.13
                             4423.55  4432.52  4440.41  4487.43  4515.12
                             4538.57  4582.38  4600.29  4626.94  4641.76

 Zero-point correction=                           0.235636 (Hartree/Particle)
 Thermal correction to Energy=                    0.247832
 Thermal correction to Enthalpy=                  0.248776
 Thermal correction to Gibbs Free Energy=         0.197004
 Sum of electronic and zero-point Energies=           -519.812793
 Sum of electronic and thermal Energies=              -519.800598
 Sum of electronic and thermal Enthalpies=            -519.799653
 Sum of electronic and thermal Free Energies=         -519.851425

                     E (Thermal)             CV                S
                      KCal/Mol        Cal/Mol-Kelvin    Cal/Mol-Kelvin
 Total                  155.517             45.982            108.962
 Electronic               0.000              0.000              0.000
 Translational            0.889              2.981             41.213
 Rotational               0.889              2.981             31.054
 Vibrational            153.739             40.020             36.695
 Vibration     1          0.594              1.982              5.488
 Vibration     2          0.598              1.967              4.092
 Vibration     3          0.601              1.960              3.774
 Vibration     4          0.607              1.937              3.191
 Vibration     5          0.646              1.815              1.983
 Vibration     6          0.651              1.800              1.901
 Vibration     7          0.662              1.765              1.740
 Vibration     8          0.668              1.745              1.660
 Vibration     9          0.672              1.735              1.621
 Vibration    10          0.683              1.703              1.508
 Vibration    11          0.696              1.662              1.384
 Vibration    12          0.724              1.582              1.182
 Vibration    13          0.746              1.524              1.060
 Vibration    14          0.800              1.382              0.826
 Vibration    15          0.817              1.342              0.770
 Vibration    16          0.841              1.283              0.696
 Vibration    17          0.928              1.092              0.501
 Vibration    18          0.937              1.074              0.485

 Optimization completed.
    -- Stationary point found.
 Normal termination of Gaussian 09 at Thu Sep 30 11:42:14 2021.
 Gaussian 09:  AM64L-G09RevA.02 11-Jun-2009

 ----------------------------------------------------------------------
 #p TD(NStates=10, Root=1) b3lyp/6-31G* volume pop=NPA density=current
 Geom=AllCheck Guess=Read
 ----------------------------------------------------------------------

 COc1cccc(c1)CN(C)C_conf_0
 -------------------------
 Redundant internal coordinates taken from checkpoint file:
 C10H15NO_9bd7_conf_0.chk
 Charge =  0 Multiplicity = 1

                         Standard orientation:
 ---------------------------------------------------------------------
 Center     Atomic      Atomic             Coordinates (Angstroms)
 Number     Number       Type             X           Y           Z
 ---------------------------------------------------------------------
      1          6           0        4.296305   -0.681869    0.219250
      2          8           0        2.983082   -1.153991   -0.028802
      3          6           0        1.968003   -0.238935   -0.080376
      4          6           0        2.128227    1.138581    0.095888
      5          6           0        1.002162    1.967296    0.023561
      6          6           0       -0.262308    1.445417   -0.224631
      7          6           0       -0.423539    0.061385   -0.403231
      8          6           0        0.691595   -0.768575   -0.324208
      9          6           0       -1.787812   -0.518755   -0.730177
     10          7           0       -2.864687    0.031428    0.092338
     11          6           0       -4.174443   -0.296263   -0.452887
     12          6           0       -2.755345   -0.380835    1.486473
     13          1           0        4.938190   -1.565007    0.218042
     14          1           0        4.369987   -0.182294    1.194690
     15          1           0        4.632514    0.010844   -0.564054
     16          1           0        3.103137    1.571057    0.290083
     17          1           0        1.127067    3.038257    0.163471
     18          1           0       -1.134225    2.090119   -0.269474
     19          1           0        0.598132   -1.843897   -0.450002
     20          1           0       -1.741603   -1.624759   -0.665676
     21          1           0       -2.029184   -0.282500   -1.775790
     22          1           0       -4.255701    0.081089   -1.478293
     23          1           0       -4.952992    0.184483    0.149658
     24          1           0       -4.383279   -1.384737   -0.470752
     25          1           0       -1.781658   -0.084074    1.885824
     26          1           0       -2.865300   -1.475533    1.621420
     27          1           0       -3.533990    0.114205    2.076933
 ---------------------------------------------------------------------

 SCF Done:  E(RB3LYP) =  -520.048429247     A.U. after    1 cycles

 Excitation energies and oscillator strengths:

 Excited State   1:      Singlet-A      5.0348 eV  246.25 nm  f=0.0146  <S**2>=0.000
      43 -> 47         0.18132
      45 -> 46         0.67591
 This state for optimization and/or second-order correction.
 Total Energy, E(TD-HF/TD-KS) =  -519.863403045
 Copying the excited state density for this state as the 1-particle RhoCI density.

 Excited State   2:      Singlet-A      5.1609 eV  240.24 nm  f=0.0158  <S**2>=0.000
      43 -> 47        -0.27470
      44 -> 46         0.63358
      45 -> 47         0.12364

 Excited State   3:      Singlet-A      5.4186 eV  228.81 nm  f=0.0055  <S**2>=0.000
      44 -> 46        -0.13519
      44 -> 47         0.33711
      45 -> 47         0.59990

 Excited State   4:      Singlet-A      5.8809 eV  210.82 nm  f=0.0544  <S**2>=0.000
      43 -> 46         0.35010
      44 -> 47         0.53915
      45 -> 47        -0.28559

 Excited State   5:      Singlet-A      6.7601 eV  183.40 nm  f=0.5323  <S**2>=0.000
      42 -> 46         0.17604
      43 -> 46         0.21903
      43 -> 47         0.55329
      44 -> 46         0.22939
      44 -> 47        -0.10127
      45 -> 46        -0.17759

 Excited State   6:      Singlet-A      6.8167 eV  181.88 nm  f=0.5008  <S**2>=0.000
      42 -> 46        -0.10478
      43 -> 46         0.55234
      43 -> 47        -0.20268
      44 -> 46        -0.11012
      44 -> 47        -0.26438
      45 -> 47         0.17752

 Excited State   7:      Singlet-A      7.1735 eV  172.84 nm  f=0.0675  <S**2>=0.000
      44 -> 48         0.32929
      45 -> 48         0.59497
      45 -> 49        -0.11905

 Excited State   8:      Singlet-A      7.4100 eV  167.32 nm  f=0.0043  <S**2>=0.000
      44 -> 48        -0.26501
      44 -> 49        -0.40694
      44 -> 50         0.11731
      45 -> 48         0.17018
      45 -> 49         0.44876
      45 -> 50        -0.12448

 Excited State   9:      Singlet-A      7.6304 eV  162.49 nm  f=0.0009  <S**2>=0.000
      41 -> 46         0.69363

 Excited State  10:      Singlet-A      7.7045 eV  160.92 nm  f=0.0166  <S**2>=0.000
      42 -> 46        -0.16305
      44 -> 48         0.53511
      44 -> 49        -0.19177
      45 -> 48        -0.27324
      45 -> 49         0.25651

 The electronic state is 1-A.
 Alpha  occ. eigenvalues --  -19.17295 -14.32263 -10.24087 -10.23816 -10.20701
 Alpha  occ. eigenvalues --  -10.19886 -10.19405 -10.18826 -10.18424 -10.18078
 Alpha  occ. eigenvalues --  -10.17632 -10.17139  -1.05853  -0.91691  -0.84293
 Alpha  occ. eigenvalues --   -0.75871  -0.74880  -0.69901  -0.68923  -0.68583
 Alpha  occ. eigenvalues --   -0.60210  -0.59637  -0.56225  -0.51950  -0.48232
 Alpha  occ. eigenvalues --   -0.47634  -0.46691  -0.46366  -0.45619  -0.45130
 Alpha  occ. eigenvalues --   -0.42243  -0.41408  -0.39585  -0.38807  -0.37709
 Alpha  occ. eigenvalues --   -0.37141  -0.36130  -0.35696  -0.35329  -0.33973
 Alpha  occ. eigenvalues --   -0.31846  -0.30829  -0.23925  -0.21405  -0.20847
 Alpha virt. eigenvalues --    0.00562   0.01711   0.09224   0.09849   0.11259
 Alpha virt. eigenvalues --    0.13587   0.13926   0.14273   0.15294   0.15635
 Alpha virt. eigenvalues --    0.15851   0.16248   0.16942   0.17774   0.18264

 Mulliken atomic charges:
              1
     1  C   -0.202367
     2  O   -0.502707
     3  C    0.373789
     4  C   -0.244045
     5  C   -0.181322
     6  C   -0.172332
     7  C    0.091613
     8  C   -0.302877
     9  C   -0.245188
    10  N   -0.223175
    11  C   -0.330968
    12  C   -0.337384
    13  H    0.150759
    14  H    0.146165
    15  H    0.148299
    16  H    0.086948
    17  H    0.083385
    18  H    0.078497
    19  H    0.071563
    20  H    0.179280
    21  H    0.156229
    22  H    0.196844
    23  H    0.184963
    24  H    0.192962
    25  H    0.240054
    26  H    0.185488
    27  H    0.175524
 Sum of Mulliken atomic charges =  -0.00000

 Dipole moment (field-independent basis, Debye):
    X=             -7.6328    Y=             -1.9002    Z=              1.1405  Tot=              7.9481
 Quadrupole moment (field-independent basis, Debye-Ang):
   XX=            -42.4539   YY=            -75.1611   ZZ=            -72.5278
   XY=              3.9820   XZ=              0.4681   YZ=             -0.0078

 Summary of Natural Population Analysis:

                                       Natural Population
                Natural  -----------------------------------------------
    Atom  No    Charge         Core      Valence    Rydberg      Total
 -----------------------------------------------------------------------
      C    1   -0.31267      1.99943     4.29949    0.01375     6.31267
      O    2   -0.50602      1.99975     6.49472    0.01155     8.50602
      C    3    0.34123      1.99879     3.63646    0.02352     5.65877
      C    4   -0.41424      1.99903     4.39853    0.01668     6.41424
      C    5   -0.30390      1.99913     4.28574    0.01903     6.30390
      C    6   -0.23304      1.99904     4.22063    0.01337     6.23304
      C    7   -0.20807      1.99903     4.18961    0.01943     6.20807
      C    8   -0.38514      1.99899     4.36788    0.01827     6.38514
      C    9   -0.28444      1.99923     4.26728    0.01792     6.28444
      N   10   -0.16200      1.99934     5.15200    0.01066     7.16200
      C   11   -0.50747      1.99945     4.49476    0.01327     6.50747
      C   12   -0.51029      1.99944     4.49718    0.01368     6.51029
      H   13    0.21629      0.00000     0.78311    0.00060     0.78371
      H   14    0.20075      0.00000     0.79684    0.00241     0.79925
      H   15    0.20205      0.00000     0.79554    0.00241     0.79795
      H   16    0.21555      0.00000     0.78361    0.00084     0.78445
      H   17    0.21453      0.00000     0.78465    0.00081     0.78547
      H   18    0.20726      0.00000     0.79228    0.00045     0.79274
      H   19    0.21116      0.00000     0.78763    0.00121     0.78884
      H   20    0.26086      0.00000     0.73840    0.00074     0.73914
      H   21    0.22912      0.00000     0.76634    0.00454     0.77088
      H   22    0.25381      0.00000     0.74484    0.00135     0.74619
      H   23    0.24698      0.00000     0.75231    0.00071     0.75302
      H   24    0.25356      0.00000     0.74547    0.00097     0.74644
      H   25    0.28498      0.00000     0.71444    0.00058     0.71502
      H   26    0.24862      0.00000     0.75062    0.00076     0.75138
      H   27    0.24051      0.00000     0.75868    0.00080     0.75949
 =======================================================================
   * Total *    0.00000     23.99064    65.79904    0.21032    90.00000

 Normal termination of Gaussian 09 at Thu Sep 30 14:49:04 2021.
