 Gaussian 09, Revision A.02,

 -----------------------------------
 #p opt b3lyp/6-31G* scf=(xqc,tight)
 -----------------------------------

 -------------------------
 N1CCN(CC1)c1ccccc1_conf_0
 -------------------------
 Symbolic Z-matrix:
 Charge =  0 Multiplicity = 1

 SCF Done:  E(RB3LYP) =  -498.971905520     A.U. after   14 cycles
 SCF Done:  E(RB3LYP) =  -498.974980411     A.U. after   12 cycles
 SCF Done:  E(RB3LYP) =  -498.975276866     A.U. after   11 cycles
 SCF Done:  E(RB3LYP) =  -498.975352264     A.U. after   11 cycles
 SCF Done:  E(RB3LYP) =  -498.975377598     A.U. after   10 cycles
 SCF Done:  E(RB3LYP) =  -498.975387300     A.U. after   10 cycles
 SCF Done:  E(RB3LYP) =  -498.975388737     A.U. after    8 cycles
 SCF Done:  E(RB3LYP) =  -498.975389037     A.U. after    7 cycles
 SCF Done:  E(RB3LYP) =  -498.975389145     A.U. after    7 cycles
 SCF Done:  E(RB3LYP) =  -498.975389234     A.U. after    7 cycles
 SCF Done:  E(RB3LYP) =  -498.975389295     A.U. after    7 cycles
 Optimization completed.
    -- Stationary point found.
 Normal termination of Gaussian 09 at Mon Oct  4 11:29:19 2021.

 ----------------------------------------------------------------------
 #p freq b3lyp/6-31G* volume NMR pop=NPA density=current Geom=AllCheck
 Guess=Read
 ----------------------------------------------------------------------

 N1CCN(CC1)c1ccccc1_conf_0
 -------------------------
 Redundant internal coordinates taken from checkpoint file:
 C10H14N2_d028_conf_0.chk
 Charge =  0 Multiplicity = 1

 SCF Done:  E(RB3LYP) =  -498.975389295     A.U. after    1 cycles

  1  N    Isotropic =   215.0073   Anisotropy =    55.3208

  2  C    Isotropic =   145.2988   Anisotropy =    19.8296

  3  C    Isotropic =   136.2695   Anisotropy =    27.5858

  4  N    Isotropic =   191.2163   Anisotropy =    47.8183

  5  C    Isotropic =   141.2898   Anisotropy =    16.9119

  6  C    Isotropic =   146.6050   Anisotropy =    24.2723

  7  C    Isotropic =    48.9866   Anisotropy =   148.3088

  8  C    Isotropic =    82.3009   Anisotropy =   139.8318

  9  C    Isotropic =    67.2876   Anisotropy =   162.7570

 10  C    Isotropic =    79.0025   Anisotropy =   150.6872

 11  C    Isotropic =    67.2507   Anisotropy =   163.0720

 12  C    Isotropic =    79.3901   Anisotropy =   143.5876

 13  H    Isotropic =    31.9197   Anisotropy =    11.9318

 14  H    Isotropic =    29.3782   Anisotropy =     5.2619

 15  H    Isotropic =    29.8682   Anisotropy =     8.6336

 16  H    Isotropic =    28.6534   Anisotropy =     6.5064

 17  H    Isotropic =    29.2565   Anisotropy =     7.4698

 18  H    Isotropic =    28.7895   Anisotropy =     4.8216

 19  H    Isotropic =    29.2622   Anisotropy =     7.8724

 20  H    Isotropic =    29.1060   Anisotropy =     6.4247

 21  H    Isotropic =    29.8180   Anisotropy =     8.6153

 22  H    Isotropic =    25.8117   Anisotropy =     9.2087

 23  H    Isotropic =    25.1939   Anisotropy =     4.8981

 24  H    Isotropic =    25.7084   Anisotropy =     3.2320

 25  H    Isotropic =    25.1757   Anisotropy =     4.5703

 26  H    Isotropic =    25.6919   Anisotropy =     9.0647

  Exact polarizability: 158.095   0.729 116.738  15.350   4.023  70.249
 Approx polarizability: 223.098   1.606 190.033  31.332  11.255 108.357

                     1                      2                      3
                     A                      A                      A
 Frequencies --    42.8834                60.7536               142.3378
 Red. masses --     4.1112                 3.5720                 3.2610
 Frc consts  --     0.0045                 0.0078                 0.0389
 IR Inten    --     0.3595                 1.3197                 0.1052

                     4                      5                      6
                     A                      A                      A
 Frequencies --   197.3335               281.5956               298.8345
 Red. masses --     2.8516                 2.3417                 2.9455
 Frc consts  --     0.0654                 0.1094                 0.1550
 IR Inten    --     0.9537                12.9853                 0.5437

                     7                      8                      9
                     A                      A                      A
 Frequencies --   374.2758               408.4599               422.4039
 Red. masses --     3.9236                 2.2805                 3.0709
 Frc consts  --     0.3238                 0.2242                 0.3228
 IR Inten    --     5.5247                 2.4737                 2.5832

                    10                     11                     12
                     A                      A                      A
 Frequencies --   460.1244               502.3275               519.1687
 Red. masses --     2.2764                 3.0112                 4.5352
 Frc consts  --     0.2839                 0.4477                 0.7202
 IR Inten    --     3.5160                 0.0654                 2.3664

                    13                     14                     15
                     A                      A                      A
 Frequencies --   539.2129               590.3207               633.2358
 Red. masses --     2.9484                 1.5458                 6.0046
 Frc consts  --     0.5051                 0.3174                 1.4186
 IR Inten    --     7.2420                12.4440                 0.6141

                    16                     17                     18
                     A                      A                      A
 Frequencies --   707.8616               732.2249               763.9378
 Red. masses --     2.0576                 4.4133                 1.7566
 Frc consts  --     0.6074                 1.3941                 0.6040
 IR Inten    --    15.4200                 4.1625                43.5183

                    19                     20                     21
                     A                      A                      A
 Frequencies --   805.9613               828.3395               841.9185
 Red. masses --     2.2559                 1.2539                 1.6257
 Frc consts  --     0.8634                 0.5069                 0.6789
 IR Inten    --   137.6205                 2.1490                 0.5462

                    22                     23                     24
                     A                      A                      A
 Frequencies --   866.2153               880.3962               899.2426
 Red. masses --     1.8923                 1.5495                 2.3556
 Frc consts  --     0.8366                 0.7076                 1.1223
 IR Inten    --    52.8357                 3.8326                 4.3103

                    25                     26                     27
                     A                      A                      A
 Frequencies --   951.7995               958.8573               976.8640
 Red. masses --     1.3244                 2.2828                 1.2258
 Frc consts  --     0.7069                 1.2366                 0.6892
 IR Inten    --     0.0593                 7.9284                 0.4425

                    28                     29                     30
                     A                      A                      A
 Frequencies --  1005.7507              1015.4894              1035.2559
 Red. masses --     4.6046                 2.9918                 1.5717
 Frc consts  --     2.7442                 1.8177                 0.9924
 IR Inten    --     5.4139                 1.1129                10.2259

                    31                     32                     33
                     A                      A                      A
 Frequencies --  1046.9172              1064.4735              1117.4900
 Red. masses --     2.4534                 2.1428                 1.7329
 Frc consts  --     1.5843                 1.4306                 1.2750
 IR Inten    --    30.0586                 2.3928                 1.2568

                    34                     35                     36
                     A                      A                      A
 Frequencies --  1140.3726              1173.4195              1191.1699
 Red. masses --     4.2105                 2.1288                 1.7037
 Frc consts  --     3.2261                 1.7270                 1.4242
 IR Inten    --    33.3545                 0.4499                 3.2260

                    37                     38                     39
                     A                      A                      A
 Frequencies --  1194.6502              1221.0516              1226.2710
 Red. masses --     1.4781                 1.2031                 1.1454
 Frc consts  --     1.2429                 1.0569                 1.0148
 IR Inten    --     5.7293                 8.0050                 1.7295

                    40                     41                     42
                     A                      A                      A
 Frequencies --  1257.3114              1290.1328              1344.6669
 Red. masses --     1.7070                 1.2984                 3.5431
 Frc consts  --     1.5899                 1.2733                 3.7745
 IR Inten    --   170.7076                19.7259                 0.7735

                    43                     44                     45
                     A                      A                      A
 Frequencies --  1354.9188              1365.2832              1378.1942
 Red. masses --     1.2981                 1.4034                 1.4224
 Frc consts  --     1.4041                 1.5413                 1.5919
 IR Inten    --     1.5236                 1.9291                 1.4306

                    46                     47                     48
                     A                      A                      A
 Frequencies --  1390.5313              1409.1727              1415.5725
 Red. masses --     1.2570                 1.4790                 1.2568
 Frc consts  --     1.4320                 1.7304                 1.4839
 IR Inten    --    12.4253                 1.1568                17.7122

                    49                     50                     51
                     A                      A                      A
 Frequencies --  1436.0641              1494.4659              1498.9140
 Red. masses --     1.8762                 1.0998                 1.4515
 Frc consts  --     2.2797                 1.4473                 1.9215
 IR Inten    --    74.1082                 4.1216                 4.5931

                    52                     53                     54
                     A                      A                      A
 Frequencies --  1505.5934              1508.0261              1512.7020
 Red. masses --     1.5073                 1.1342                 1.1421
 Frc consts  --     2.0131                 1.5197                 1.5397
 IR Inten    --     6.1351                 5.6866                 2.2969

                    55                     56                     57
                     A                      A                      A
 Frequencies --  1522.7734              1551.6371              1630.1890
 Red. masses --     1.1100                 2.2959                 5.3792
 Frc consts  --     1.5166                 3.2568                 8.4226
 IR Inten    --     3.7765               135.1539                10.1232

                    58                     59                     60
                     A                      A                      A
 Frequencies --  1663.5652              3000.6004              3010.7432
 Red. masses --     5.5006                 1.0733                 1.0738
 Frc consts  --     8.9689                 5.6936                 5.7347
 IR Inten    --   124.5949                34.5468                89.2433

                    61                     62                     63
                     A                      A                      A
 Frequencies --  3040.6822              3045.4172              3088.1944
 Red. masses --     1.0593                 1.0602                 1.1057
 Frc consts  --     5.7703                 5.7933                 6.2130
 IR Inten    --    39.3840                33.5359                48.6497

                    64                     65                     66
                     A                      A                      A
 Frequencies --  3090.8948              3117.8965              3142.0161
 Red. masses --     1.1061                 1.0913                 1.0906
 Frc consts  --     6.2259                 6.2504                 6.3436
 IR Inten    --    60.0046                23.6196                19.5737

                    67                     68                     69
                     A                      A                      A
 Frequencies --  3177.6497              3183.8137              3203.2958
 Red. masses --     1.0848                 1.0888                 1.0909
 Frc consts  --     6.4540                 6.5029                 6.5953
 IR Inten    --     8.1113                13.7107                34.0592

                    70                     71                     72
                     A                      A                      A
 Frequencies --  3210.0940              3218.7130              3451.8741
 Red. masses --     1.0947                 1.0926                 1.0735
 Frc consts  --     6.6463                 6.6691                 7.5366
 IR Inten    --    29.1093                 9.7786                 4.8393

 - Thermochemistry -
 -------------------
 Temperature   298.150 Kelvin.  Pressure   1.00000 Atm.
 Atom     1 has atomic number  7 and mass  14.00307

 Molecular mass:   162.11570 amu.
 Principal axes and moments of inertia in atomic units:
                           1         2         3
     Eigenvalues --   840.453133028.191503443.06238
           X            0.99998   0.00018   0.00574
           Y           -0.00015   0.99999  -0.00532
           Z           -0.00574   0.00532   0.99997
 This molecule is an asymmetric top.
 Rotational symmetry number  1.
 Warning -- assumption of classical behavior for rotation
           may cause significant error
 Rotational temperatures (Kelvin)      0.10306     0.02860     0.02516
 Rotational constants (GHZ):           2.14734     0.59598     0.52417
 Zero-point vibrational energy     601905.8 (Joules/Mol)
                                  143.85895 (Kcal/Mol)
 Warning -- explicit consideration of  14 degrees of freedom as
           vibrations may cause significant error
 Vibrational temperatures:     61.70    87.41   204.79   283.92   405.15
          (Kelvin)            429.96   538.50   587.68   607.74   662.02
                              722.74   746.97   775.81   849.34   911.08
                             1018.45  1053.51  1099.13  1159.60  1191.79
                             1211.33  1246.29  1266.69  1293.81  1369.43
                             1379.58  1405.49  1447.05  1461.06  1489.50
                             1506.28  1531.54  1607.82  1640.74  1688.29
                             1713.83  1718.83  1756.82  1764.33  1808.99
                             1856.21  1934.67  1949.42  1964.34  1982.91
                             2000.66  2027.48  2036.69  2066.17  2150.20
                             2156.60  2166.21  2169.71  2176.44  2190.93
                             2232.46  2345.48  2393.50  4317.19  4331.78
                             4374.86  4381.67  4443.22  4447.10  4485.95
                             4520.65  4571.92  4580.79  4608.82  4618.60
                             4631.00  4966.47

 Zero-point correction=                           0.229254 (Hartree/Particle)
 Thermal correction to Energy=                    0.239185
 Thermal correction to Enthalpy=                  0.240129
 Thermal correction to Gibbs Free Energy=         0.193254
 Sum of electronic and zero-point Energies=           -498.746135
 Sum of electronic and thermal Energies=              -498.736205
 Sum of electronic and thermal Enthalpies=            -498.735260
 Sum of electronic and thermal Free Energies=         -498.782135

                     E (Thermal)             CV                S
                      KCal/Mol        Cal/Mol-Kelvin    Cal/Mol-Kelvin
 Total                  150.091             40.433             98.656
 Electronic               0.000              0.000              0.000
 Translational            0.889              2.981             41.158
 Rotational               0.889              2.981             30.550
 Vibrational            148.313             34.472             26.947
 Vibration     1          0.595              1.980              5.121
 Vibration     2          0.597              1.973              4.433
 Vibration     3          0.616              1.911              2.772
 Vibration     4          0.637              1.844              2.158
 Vibration     5          0.681              1.708              1.524
 Vibration     6          0.692              1.676              1.423
 Vibration     7          0.745              1.525              1.062
 Vibration     8          0.773              1.452              0.932
 Vibration     9          0.785              1.422              0.884
 Vibration    10          0.818              1.338              0.766
 Vibration    11          0.858              1.245              0.652
 Vibration    12          0.874              1.208              0.612
 Vibration    13          0.894              1.163              0.567
 Vibration    14          0.948              1.052              0.467

 Normal termination of Gaussian 09 at Mon Oct  4 12:41:46 2021.
 Gaussian 09:  AM64L-G09RevA.02 11-Jun-2009

 ----------------------------------------------------------------------
 #p TD(NStates=10, Root=1) b3lyp/6-31G* volume pop=NPA density=current
 Geom=AllCheck Guess=Read
 ----------------------------------------------------------------------

 N1CCN(CC1)c1ccccc1_conf_0
 -------------------------
 Redundant internal coordinates taken from checkpoint file:
 C10H14N2_d028_conf_0.chk
 Charge =  0 Multiplicity = 1

                         Standard orientation:
 ---------------------------------------------------------------------
 Center     Atomic      Atomic             Coordinates (Angstroms)
 Number     Number       Type             X           Y           Z
 ---------------------------------------------------------------------
      1          7           0        3.087364   -0.162950   -0.709121
      2          6           0        2.248003    1.023664   -0.914208
      3          6           0        1.385341    1.395077    0.308327
      4          7           0        0.594478    0.248249    0.765941
      5          6           0        1.446731   -0.909917    1.027762
      6          6           0        2.300943   -1.292174   -0.194385
      7          6           0       -0.734829    0.086623    0.338233
      8          6           0       -1.270227   -1.167076   -0.022039
      9          6           0       -2.611819   -1.298969   -0.382557
     10          6           0       -3.459865   -0.193932   -0.415834
     11          6           0       -2.940131    1.054887   -0.065426
     12          6           0       -1.609062    1.195946    0.312013
     13          1           0        3.814374    0.064069   -0.029014
     14          1           0        1.585184    0.822599   -1.766633
     15          1           0        2.894237    1.865264   -1.193134
     16          1           0        0.728374    2.232415    0.066387
     17          1           0        2.038040    1.718858    1.134060
     18          1           0        0.836858   -1.744491    1.383420
     19          1           0        2.122774   -0.637809    1.854195
     20          1           0        1.650105   -1.644582   -1.005262
     21          1           0        2.986285   -2.111328    0.055908
     22          1           0       -0.638567   -2.048067   -0.043691
     23          1           0       -2.987046   -2.282284   -0.656008
     24          1           0       -4.501178   -0.300578   -0.705039
     25          1           0       -3.582492    1.932293   -0.068127
     26          1           0       -1.250354    2.171784    0.623877
 ---------------------------------------------------------------------

 SCF Done:  E(RB3LYP) =  -498.975389295     A.U. after    1 cycles

 Excitation energies and oscillator strengths:

 Excited State   1:      Singlet-A      4.3848 eV  282.76 nm  f=0.0168  <S**2>=0.000
      42 -> 46        -0.15231
      44 -> 45         0.68876
 This state for optimization and/or second-order correction.
 Total Energy, E(TD-HF/TD-KS) =  -498.814249150
 Copying the excited state density for this state as the 1-particle RhoCI density.

 Excited State   2:      Singlet-A      4.9851 eV  248.71 nm  f=0.2630  <S**2>=0.000
      42 -> 45         0.10967
      44 -> 46         0.68518

 Excited State   3:      Singlet-A      5.7461 eV  215.77 nm  f=0.0133  <S**2>=0.000
      42 -> 46        -0.31103
      43 -> 45         0.62272

 Excited State   4:      Singlet-A      6.1871 eV  200.39 nm  f=0.0119  <S**2>=0.000
      42 -> 45         0.13281
      43 -> 46         0.42700
      44 -> 47         0.53803

 Excited State   5:      Singlet-A      6.2056 eV  199.79 nm  f=0.0070  <S**2>=0.000
      42 -> 45         0.29124
      43 -> 46         0.46355
      44 -> 47        -0.43152

 Excited State   6:      Singlet-A      6.5506 eV  189.27 nm  f=0.0133  <S**2>=0.000
      41 -> 45         0.12370
      42 -> 46         0.16998
      43 -> 45         0.10492
      44 -> 48         0.65431

 Excited State   7:      Singlet-A      6.5768 eV  188.52 nm  f=0.0640  <S**2>=0.000
      41 -> 45         0.38420
      42 -> 46         0.44216
      43 -> 45         0.27671
      44 -> 48        -0.23324

 Excited State   8:      Singlet-A      6.8044 eV  182.21 nm  f=0.4305  <S**2>=0.000
      41 -> 46        -0.23639
      42 -> 45         0.57324
      43 -> 46        -0.25824
      44 -> 46        -0.11213

 Excited State   9:      Singlet-A      7.0735 eV  175.28 nm  f=0.0240  <S**2>=0.000
      43 -> 47         0.14012
      44 -> 49         0.68152

 Excited State  10:      Singlet-A      7.2244 eV  171.62 nm  f=0.0130  <S**2>=0.000
      44 -> 50         0.69162

 The electronic state is 1-A.
 Alpha  occ. eigenvalues --  -14.34158 -14.32047 -10.22159 -10.21530 -10.21423
 Alpha  occ. eigenvalues --  -10.20850 -10.20792 -10.18046 -10.18042 -10.17582
 Alpha  occ. eigenvalues --  -10.17563 -10.17156  -0.94884  -0.89407  -0.83195
 Alpha  occ. eigenvalues --   -0.76530  -0.73891  -0.73269  -0.66927  -0.64637
 Alpha  occ. eigenvalues --   -0.60844  -0.59067  -0.56464  -0.52816  -0.48548
 Alpha  occ. eigenvalues --   -0.46959  -0.45952  -0.45223  -0.44488  -0.44308
 Alpha  occ. eigenvalues --   -0.41665  -0.41192  -0.40685  -0.38952  -0.36103
 Alpha  occ. eigenvalues --   -0.35439  -0.35336  -0.35135  -0.34287  -0.32661
 Alpha  occ. eigenvalues --   -0.28268  -0.23989  -0.22949  -0.17895
 Alpha virt. eigenvalues --    0.00833   0.02025   0.07978   0.09516   0.11544
 Alpha virt. eigenvalues --    0.12057   0.13202   0.14239   0.15097   0.15253
 Alpha virt. eigenvalues --    0.15902   0.16399   0.16808   0.17321   0.18395

 Mulliken atomic charges:
              1
     1  N   -0.491322
     2  C   -0.169701
     3  C   -0.171592
     4  N   -0.392103
     5  C   -0.166412
     6  C   -0.170382
     7  C    0.310773
     8  C   -0.214624
     9  C   -0.199677
    10  C   -0.096081
    11  C   -0.185784
    12  C   -0.223419
    13  H    0.304410
    14  H    0.193136
    15  H    0.168265
    16  H    0.193537
    17  H    0.154021
    18  H    0.194387
    19  H    0.157939
    20  H    0.189924
    21  H    0.166227
    22  H    0.081564
    23  H    0.087406
    24  H    0.106730
    25  H    0.088819
    26  H    0.083962
 Sum of Mulliken atomic charges =  -0.00000

 Dipole moment (field-independent basis, Debye):
    X=              7.1307    Y=              0.4939    Z=              1.1472  Tot=              7.2393
 Quadrupole moment (field-independent basis, Debye-Ang):
   XX=            -71.8239   YY=            -67.7236   ZZ=            -75.5606
   XY=              1.3063   XZ=              5.5875   YZ=             -1.3559

 Summary of Natural Population Analysis:

                                       Natural Population
                Natural  -----------------------------------------------
    Atom  No    Charge         Core      Valence    Rydberg      Total
 -----------------------------------------------------------------------
      N    1   -0.62225      1.99957     5.60762    0.01506     7.62225
      C    2   -0.28642      1.99933     4.26989    0.01720     6.28642
      C    3   -0.28679      1.99929     4.27091    0.01658     6.28679
      N    4   -0.26206      1.99934     5.25029    0.01243     7.26206
      C    5   -0.29408      1.99931     4.27764    0.01713     6.29408
      C    6   -0.28558      1.99933     4.26947    0.01678     6.28558
      C    7    0.12663      1.99897     3.85428    0.02012     5.87337
      C    8   -0.33895      1.99906     4.32184    0.01806     6.33895
      C    9   -0.35494      1.99912     4.33534    0.02047     6.35494
      C   10   -0.16357      1.99909     4.15028    0.01419     6.16357
      C   11   -0.33404      1.99912     4.31532    0.01960     6.33404
      C   12   -0.36551      1.99906     4.34648    0.01997     6.36551
      H   13    0.37878      0.00000     0.61832    0.00290     0.62122
      H   14    0.25219      0.00000     0.74614    0.00167     0.74781
      H   15    0.25276      0.00000     0.74620    0.00104     0.74724
      H   16    0.26963      0.00000     0.72768    0.00269     0.73037
      H   17    0.23475      0.00000     0.76294    0.00231     0.76525
      H   18    0.27011      0.00000     0.72691    0.00298     0.72989
      H   19    0.24021      0.00000     0.75790    0.00189     0.75979
      H   20    0.25016      0.00000     0.74682    0.00302     0.74984
      H   21    0.25130      0.00000     0.74748    0.00122     0.74870
      H   22    0.20404      0.00000     0.79473    0.00123     0.79596
      H   23    0.21697      0.00000     0.78222    0.00081     0.78303
      H   24    0.22196      0.00000     0.77712    0.00092     0.77804
      H   25    0.21782      0.00000     0.78135    0.00083     0.78218
      H   26    0.20688      0.00000     0.79203    0.00109     0.79312
 =======================================================================
   * Total *    0.00000     23.99060    63.77722    0.23219    88.00000

 Normal termination of Gaussian 09 at Mon Oct  4 16:10:32 2021.
