 Gaussian 09, Revision A.02,

 -----------------------------------
 #p opt b3lyp/6-31G* scf=(xqc,tight)
 -----------------------------------

 -------------------------
 CCOc1ccc(cc1)N(C)C_conf_0
 -------------------------
 Symbolic Z-matrix:
 Charge =  0 Multiplicity = 1

 SCF Done:  E(RB3LYP) =  -520.051194213     A.U. after   14 cycles
 SCF Done:  E(RB3LYP) =  -520.053761071     A.U. after   12 cycles
 SCF Done:  E(RB3LYP) =  -520.054025668     A.U. after   11 cycles
 SCF Done:  E(RB3LYP) =  -520.054111624     A.U. after   11 cycles
 SCF Done:  E(RB3LYP) =  -520.054155666     A.U. after   10 cycles
 SCF Done:  E(RB3LYP) =  -520.054185651     A.U. after   10 cycles
 SCF Done:  E(RB3LYP) =  -520.054197315     A.U. after   10 cycles
 SCF Done:  E(RB3LYP) =  -520.054203542     A.U. after    9 cycles
 SCF Done:  E(RB3LYP) =  -520.054206302     A.U. after    8 cycles
 SCF Done:  E(RB3LYP) =  -520.054206529     A.U. after    7 cycles
 Optimization completed.
    -- Stationary point found.
 Normal termination of Gaussian 09 at Thu Sep 30 13:37:32 2021.

 ----------------------------------------------------------------------
 #p freq b3lyp/6-31G* volume NMR pop=NPA density=current Geom=AllCheck
 Guess=Read
 ----------------------------------------------------------------------

 CCOc1ccc(cc1)N(C)C_conf_0
 -------------------------
 Redundant internal coordinates taken from checkpoint file:
 C10H15NO_befa_conf_0.chk
 Charge =  0 Multiplicity = 1

 SCF Done:  E(RB3LYP) =  -520.054206529     A.U. after    1 cycles

  1  C    Isotropic =   173.7254   Anisotropy =    21.9013

  2  C    Isotropic =   129.0512   Anisotropy =    54.8525

  3  O    Isotropic =   226.6484   Anisotropy =    63.4640

  4  C    Isotropic =    46.9430   Anisotropy =   115.8821

  5  C    Isotropic =    85.5521   Anisotropy =   140.9735

  6  C    Isotropic =    83.7152   Anisotropy =   138.2540

  7  C    Isotropic =    55.2127   Anisotropy =   144.3003

  8  C    Isotropic =    82.1874   Anisotropy =   140.5646

  9  C    Isotropic =    77.9619   Anisotropy =   133.8879

 10  N    Isotropic =   207.8070   Anisotropy =    80.2780

 11  C    Isotropic =   149.5658   Anisotropy =    51.7621

 12  C    Isotropic =   149.6175   Anisotropy =    52.0799

 13  H    Isotropic =    31.1687   Anisotropy =     9.0242

 14  H    Isotropic =    30.6847   Anisotropy =     7.6565

 15  H    Isotropic =    30.6774   Anisotropy =     7.6871

 16  H    Isotropic =    28.4139   Anisotropy =     5.5226

 17  H    Isotropic =    28.4037   Anisotropy =     5.5377

 18  H    Isotropic =    25.9175   Anisotropy =     8.0724

 19  H    Isotropic =    25.9357   Anisotropy =     9.1366

 20  H    Isotropic =    25.7774   Anisotropy =     8.7566

 21  H    Isotropic =    25.5747   Anisotropy =     6.3959

 22  H    Isotropic =    29.0359   Anisotropy =     8.8346

 23  H    Isotropic =    29.7791   Anisotropy =     8.0230

 24  H    Isotropic =    29.4646   Anisotropy =     8.7628

 25  H    Isotropic =    28.9705   Anisotropy =     8.9488

 26  H    Isotropic =    29.4341   Anisotropy =     8.9242

 27  H    Isotropic =    29.7893   Anisotropy =     8.0737

  Exact polarizability: 178.257  -1.046 115.447  -0.898   0.140  65.068
 Approx polarizability: 231.543   1.435 190.691   1.564   0.485  96.009

                     1                      2                      3
                     A                      A                      A
 Frequencies --    41.2146                58.4549               103.6667
 Red. masses --     3.5326                 2.7001                 2.8729
 Frc consts  --     0.0035                 0.0054                 0.0182
 IR Inten    --     2.1786                 0.0093                 1.8091

                     4                      5                      6
                     A                      A                      A
 Frequencies --   114.3727               127.4583               154.8134
 Red. masses --     2.1451                 3.2785                 1.4344
 Frc consts  --     0.0165                 0.0314                 0.0203
 IR Inten    --     2.3619                 0.8826                 7.0488

                     7                      8                      9
                     A                      A                      A
 Frequencies --   200.2664               230.4363               262.2778
 Red. masses --     1.4380                 2.4390                 1.1848
 Frc consts  --     0.0340                 0.0763                 0.0480
 IR Inten    --     0.4257                 5.6846                 1.2450

                    10                     11                     12
                     A                      A                      A
 Frequencies --   276.6336               301.1811               391.9232
 Red. masses --     1.8053                 3.2726                 4.9552
 Frc consts  --     0.0814                 0.1749                 0.4485
 IR Inten    --     0.3226                 1.2495                 2.0097

                    13                     14                     15
                     A                      A                      A
 Frequencies --   400.2730               426.2211               453.3269
 Red. masses --     3.5056                 3.2987                 3.0280
 Frc consts  --     0.3309                 0.3531                 0.3666
 IR Inten    --     1.5226                 0.1096                 1.1749

                    16                     17                     18
                     A                      A                      A
 Frequencies --   495.4517               533.3457               566.2313
 Red. masses --     3.3148                 2.2775                 3.5989
 Frc consts  --     0.4794                 0.3817                 0.6798
 IR Inten    --     1.5135                 7.4771                 0.4668

                    19                     20                     21
                     A                      A                      A
 Frequencies --   655.6025               715.9185               719.5775
 Red. masses --     6.8953                 4.0937                 4.3915
 Frc consts  --     1.7462                 1.2362                 1.3397
 IR Inten    --     0.0525                 7.2485                14.8279

                    22                     23                     24
                     A                      A                      A
 Frequencies --   799.9027               827.6323               831.5303
 Red. masses --     1.2852                 1.6830                 4.3439
 Frc consts  --     0.4845                 0.6792                 1.7696
 IR Inten    --     6.7771                50.8753                11.2810

                    25                     26                     27
                     A                      A                      A
 Frequencies --   845.7941               911.9213               935.9528
 Red. masses --     1.1267                 1.2986                 1.2908
 Frc consts  --     0.4749                 0.6363                 0.6662
 IR Inten    --     2.1745                 0.2726                 0.6405

                    28                     29                     30
                     A                      A                      A
 Frequencies --   945.6584               971.4437              1026.7754
 Red. masses --     2.4719                 3.1577                 2.6439
 Frc consts  --     1.3024                 1.7557                 1.6422
 IR Inten    --    16.9235                35.5533                 0.7862

                    31                     32                     33
                     A                      A                      A
 Frequencies --  1082.3642              1089.3792              1147.9003
 Red. masses --     3.4084                 1.5267                 1.2383
 Frc consts  --     2.3526                 1.0675                 0.9613
 IR Inten    --    77.9471                23.8103                 0.6541

                    34                     35                     36
                     A                      A                      A
 Frequencies --  1153.3463              1161.0138              1163.7381
 Red. masses --     2.0731                 1.3803                 1.4462
 Frc consts  --     1.6247                 1.0962                 1.1540
 IR Inten    --    42.8679                27.7529                11.4782

                    37                     38                     39
                     A                      A                      A
 Frequencies --  1197.3136              1205.3811              1227.3157
 Red. masses --     1.5066                 1.7394                 1.2079
 Frc consts  --     1.2725                 1.4890                 1.0720
 IR Inten    --     4.0418                17.9192                18.1022

                    40                     41                     42
                     A                      A                      A
 Frequencies --  1275.5555              1294.0506              1313.4940
 Red. masses --     3.3429                 3.5647                 1.1108
 Frc consts  --     3.2046                 3.5170                 1.1291
 IR Inten    --    70.2544               383.7911                 0.2441

                    43                     44                     45
                     A                      A                      A
 Frequencies --  1354.1740              1367.8120              1381.6418
 Red. masses --     2.5006                 2.1445                 3.9385
 Frc consts  --     2.7018                 2.3639                 4.4297
 IR Inten    --    35.1344                27.3312                43.7638

                    46                     47                     48
                     A                      A                      A
 Frequencies --  1421.1030              1450.8543              1466.8009
 Red. masses --     1.2553                 1.3791                 1.4087
 Frc consts  --     1.4936                 1.7104                 1.7857
 IR Inten    --    16.3910                44.4139                 1.1473

                    49                     50                     51
                     A                      A                      A
 Frequencies --  1483.9164              1512.1662              1512.7197
 Red. masses --     2.0585                 1.1358                 1.1145
 Frc consts  --     2.6706                 1.5301                 1.5026
 IR Inten    --     7.4480                17.7086                17.4104

                    52                     53                     54
                     A                      A                      A
 Frequencies --  1515.2186              1519.1357              1531.4152
 Red. masses --     1.0406                 1.0683                 1.0481
 Frc consts  --     1.4076                 1.4526                 1.4483
 IR Inten    --     4.7123                21.4690                 4.8084

                    55                     56                     57
                     A                      A                      A
 Frequencies --  1541.2657              1553.1980              1558.1183
 Red. masses --     1.0661                 1.1695                 1.0574
 Frc consts  --     1.4921                 1.6623                 1.5125
 IR Inten    --     3.7265                93.5170                41.0691

                    58                     59                     60
                     A                      A                      A
 Frequencies --  1575.3973              1625.8224              1685.4918
 Red. masses --     2.0343                 6.4671                 5.7231
 Frc consts  --     2.9747                10.0718                 9.5794
 IR Inten    --   241.4024                 6.5293                 1.8740

                    61                     62                     63
                     A                      A                      A
 Frequencies --  2976.2263              2985.1130              3003.4726
 Red. masses --     1.0555                 1.0596                 1.0551
 Frc consts  --     5.5088                 5.5629                 5.6080
 IR Inten    --    72.6452               111.1084                36.9679

                    64                     65                     66
                     A                      A                      A
 Frequencies --  3037.3089              3061.5343              3074.6712
 Red. masses --     1.1085                 1.0352                 1.0818
 Frc consts  --     6.0249                 5.7168                 6.0253
 IR Inten    --    45.5728                23.1163                31.5465

                    67                     68                     69
                     A                      A                      A
 Frequencies --  3077.3807              3132.6209              3133.1767
 Red. masses --     1.0824                 1.1023                 1.0990
 Frc consts  --     6.0392                 6.3736                 6.3563
 IR Inten    --    45.2845                25.9875                 3.9475

                    70                     71                     72
                     A                      A                      A
 Frequencies --  3139.0788              3143.3503              3203.8824
 Red. masses --     1.1040                 1.0963                 1.0886
 Frc consts  --     6.4093                 6.3821                 6.5835
 IR Inten    --    29.5599                51.9408                12.1365

                    73                     74                     75
                     A                      A                      A
 Frequencies --  3214.9458              3229.8429              3232.4694
 Red. masses --     1.0866                 1.0913                 1.0920
 Frc consts  --     6.6172                 6.7076                 6.7227
 IR Inten    --    16.4873                20.8234                 7.3126

 - Thermochemistry -
 -------------------
 Temperature   298.150 Kelvin.  Pressure   1.00000 Atm.
 Atom     1 has atomic number  6 and mass  12.00000

 Molecular mass:   165.11536 amu.
 Principal axes and moments of inertia in atomic units:
                           1         2         3
     Eigenvalues --   583.579124565.565185094.89013
           X            0.99999  -0.00445  -0.00202
           Y            0.00445   0.99999  -0.00012
           Z            0.00202   0.00011   1.00000
 This molecule is an asymmetric top.
 Rotational symmetry number  1.
 Warning -- assumption of classical behavior for rotation
           may cause significant error
 Rotational temperatures (Kelvin)      0.14842     0.01897     0.01700
 Rotational constants (GHZ):           3.09254     0.39529     0.35423
 Zero-point vibrational energy     618095.1 (Joules/Mol)
                                  147.72828 (Kcal/Mol)
 Warning -- explicit consideration of  18 degrees of freedom as
           vibrations may cause significant error
 Vibrational temperatures:     59.30    84.10   149.15   164.56   183.38
          (Kelvin)            222.74   288.14   331.55   377.36   398.01
                              433.33   563.89   575.90   613.24   652.24
                              712.84   767.36   814.68   943.26  1030.05
                             1035.31  1150.88  1190.78  1196.39  1216.91
                             1312.05  1346.63  1360.59  1397.69  1477.30
                             1557.28  1567.37  1651.57  1659.41  1670.44
                             1674.36  1722.67  1734.27  1765.83  1835.24
                             1861.85  1889.82  1948.35  1967.97  1987.87
                             2044.65  2087.45  2110.40  2135.02  2175.67
                             2176.46  2180.06  2185.69  2203.36  2217.53
                             2234.70  2241.78  2266.64  2339.19  2425.04
                             4282.12  4294.91  4321.32  4370.00  4404.86
                             4423.76  4427.66  4507.14  4507.94  4516.43
                             4522.57  4609.67  4625.58  4647.02  4650.80

 Zero-point correction=                           0.235420 (Hartree/Particle)
 Thermal correction to Energy=                    0.248025
 Thermal correction to Enthalpy=                  0.248969
 Thermal correction to Gibbs Free Energy=         0.196196
 Sum of electronic and zero-point Energies=           -519.818787
 Sum of electronic and thermal Energies=              -519.806182
 Sum of electronic and thermal Enthalpies=            -519.805238
 Sum of electronic and thermal Free Energies=         -519.858011

                     E (Thermal)             CV                S
                      KCal/Mol        Cal/Mol-Kelvin    Cal/Mol-Kelvin
 Total                  155.638             46.695            111.070
 Electronic               0.000              0.000              0.000
 Translational            0.889              2.981             41.213
 Rotational               0.889              2.981             30.985
 Vibrational            153.860             40.733             38.872
 Vibration     1          0.594              1.981              5.200
 Vibration     2          0.596              1.974              4.509
 Vibration     3          0.605              1.946              3.384
 Vibration     4          0.607              1.938              3.193
 Vibration     5          0.611              1.926              2.984
 Vibration     6          0.620              1.897              2.612
 Vibration     7          0.638              1.840              2.131
 Vibration     8          0.652              1.794              1.876
 Vibration     9          0.670              1.742              1.647
 Vibration    10          0.678              1.717              1.554
 Vibration    11          0.693              1.671              1.410
 Vibration    12          0.759              1.487              0.993
 Vibration    13          0.766              1.470              0.962
 Vibration    14          0.788              1.413              0.871
 Vibration    15          0.812              1.354              0.786
 Vibration    16          0.851              1.260              0.670
 Vibration    17          0.888              1.176              0.580
 Vibration    18          0.922              1.104              0.512

 Normal termination of Gaussian 09 at Thu Sep 30 14:17:29 2021.
 Gaussian 09:  AM64L-G09RevA.02 11-Jun-2009

 ----------------------------------------------------------------------
 #p TD(NStates=10, Root=1) b3lyp/6-31G* volume pop=NPA density=current
 Geom=AllCheck Guess=Read
 ----------------------------------------------------------------------

 CCOc1ccc(cc1)N(C)C_conf_0
 -------------------------
 Redundant internal coordinates taken from checkpoint file:
 C10H15NO_befa_conf_0.chk
 Charge =  0 Multiplicity = 1

                         Standard orientation:
 ---------------------------------------------------------------------
 Center     Atomic      Atomic             Coordinates (Angstroms)
 Number     Number       Type             X           Y           Z
 ---------------------------------------------------------------------
      1          6           0        4.915398   -0.052456    0.062904
      2          6           0        3.494817   -0.590444    0.028918
      3          8           0        2.612149    0.524926    0.014956
      4          6           0        1.261509    0.284702   -0.021434
      5          6           0        0.667081   -0.978492   -0.040087
      6          6           0       -0.724263   -1.106787   -0.073090
      7          6           0       -1.572105    0.016162   -0.100074
      8          6           0       -0.949334    1.285137   -0.065681
      9          6           0        0.432742    1.412399   -0.031822
     10          7           0       -2.966596   -0.113408   -0.176208
     11          6           0       -3.549864   -1.415294    0.096075
     12          6           0       -3.784718    1.046300    0.134664
     13          1           0        5.633641   -0.879540    0.075437
     14          1           0        5.073553    0.559554    0.956550
     15          1           0        5.113220    0.567207   -0.817449
     16          1           0        3.294408   -1.219114    0.909698
     17          1           0        3.333214   -1.210310   -0.865901
     18          1           0        1.269330   -1.880076   -0.022684
     19          1           0       -1.138197   -2.108047   -0.078201
     20          1           0       -1.545545    2.189868   -0.065876
     21          1           0        0.893331    2.395590   -0.007213
     22          1           0       -3.198143   -2.157899   -0.629224
     23          1           0       -4.635358   -1.348357   -0.007862
     24          1           0       -3.320646   -1.793674    1.107430
     25          1           0       -3.584063    1.864061   -0.566581
     26          1           0       -3.629249    1.430049    1.157824
     27          1           0       -4.838086    0.777771    0.025623
 ---------------------------------------------------------------------

 SCF Done:  E(RB3LYP) =  -520.054206529     A.U. after    1 cycles

 Excitation energies and oscillator strengths:

 Excited State   1:      Singlet-A      4.3759 eV  283.34 nm  f=0.0465  <S**2>=0.000
      44 -> 47         0.17089
      45 -> 46         0.68460
 This state for optimization and/or second-order correction.
 Total Energy, E(TD-HF/TD-KS) =  -519.893396361
 Copying the excited state density for this state as the 1-particle RhoCI density.

 Excited State   2:      Singlet-A      5.3800 eV  230.45 nm  f=0.4083  <S**2>=0.000
      44 -> 46        -0.17691
      45 -> 47         0.67953

 Excited State   3:      Singlet-A      6.1867 eV  200.40 nm  f=0.0063  <S**2>=0.000
      45 -> 48         0.70307

 Excited State   4:      Singlet-A      6.2142 eV  199.52 nm  f=0.0060  <S**2>=0.000
      43 -> 46         0.65003
      44 -> 46        -0.14088
      44 -> 47        -0.22646

 Excited State   5:      Singlet-A      6.7290 eV  184.25 nm  f=0.4114  <S**2>=0.000
      43 -> 47         0.20130
      44 -> 46         0.56346
      44 -> 47        -0.12759
      45 -> 47         0.13126
      45 -> 49         0.19454
      45 -> 50         0.21893

 Excited State   6:      Singlet-A      6.7636 eV  183.31 nm  f=0.0994  <S**2>=0.000
      44 -> 46        -0.25389
      45 -> 49         0.47145
      45 -> 50         0.42862

 Excited State   7:      Singlet-A      6.8956 eV  179.80 nm  f=0.0075  <S**2>=0.000
      45 -> 49        -0.47033
      45 -> 50         0.49956
      45 -> 51         0.13542

 Excited State   8:      Singlet-A      7.0963 eV  174.72 nm  f=0.1959  <S**2>=0.000
      41 -> 46         0.25090
      43 -> 46         0.24061
      44 -> 46         0.12340
      44 -> 47         0.56870
      45 -> 46        -0.13834

 Excited State   9:      Singlet-A      7.1644 eV  173.06 nm  f=0.0136  <S**2>=0.000
      43 -> 47         0.12031
      45 -> 51         0.66102

 Excited State  10:      Singlet-A      7.3102 eV  169.60 nm  f=0.0349  <S**2>=0.000
      43 -> 47        -0.27814
      45 -> 52         0.62958

 The electronic state is 1-A.
 Alpha  occ. eigenvalues --  -19.15990 -14.34115 -10.23488 -10.22582 -10.21186
 Alpha  occ. eigenvalues --  -10.21029 -10.21027 -10.17801 -10.17618 -10.17470
 Alpha  occ. eigenvalues --  -10.17428 -10.17276  -1.04592  -0.93448  -0.83043
 Alpha  occ. eigenvalues --   -0.76594  -0.73860  -0.71997  -0.71243  -0.64986
 Alpha  occ. eigenvalues --   -0.62421  -0.58890  -0.56240  -0.52960  -0.49944
 Alpha  occ. eigenvalues --   -0.47692  -0.47425  -0.45588  -0.44277  -0.42938
 Alpha  occ. eigenvalues --   -0.41260  -0.40644  -0.40050  -0.38841  -0.38702
 Alpha  occ. eigenvalues --   -0.38083  -0.37544  -0.36845  -0.35136  -0.34040
 Alpha  occ. eigenvalues --   -0.31164  -0.31062  -0.24991  -0.23736  -0.17143
 Alpha virt. eigenvalues --    0.01089   0.03780   0.08887   0.10425   0.11314
 Alpha virt. eigenvalues --    0.12485   0.12971   0.13884   0.15097   0.15499
 Alpha virt. eigenvalues --    0.16507   0.16989   0.17284   0.17682   0.18374

 Mulliken atomic charges:
              1
     1  C   -0.457447
     2  C   -0.026119
     3  O   -0.494373
     4  C    0.387248
     5  C   -0.238884
     6  C   -0.229574
     7  C    0.344360
     8  C   -0.222316
     9  C   -0.231698
    10  N   -0.408741
    11  C   -0.320513
    12  C   -0.320839
    13  H    0.144941
    14  H    0.161457
    15  H    0.161789
    16  H    0.144404
    17  H    0.145048
    18  H    0.102868
    19  H    0.093094
    20  H    0.092333
    21  H    0.103633
    22  H    0.190292
    23  H    0.161310
    24  H    0.182222
    25  H    0.191695
    26  H    0.183346
    27  H    0.160464
 Sum of Mulliken atomic charges =   0.00000

 Dipole moment (field-independent basis, Debye):
    X=             -3.2886    Y=             -1.6043    Z=              0.4749  Tot=              3.6897
 Quadrupole moment (field-independent basis, Debye-Ang):
   XX=            -47.4662   YY=            -69.8360   ZZ=            -75.9651
   XY=             -2.9069   XZ=             -1.1698   YZ=             -0.0043

 Summary of Natural Population Analysis:

                                       Natural Population
                Natural  -----------------------------------------------
    Atom  No    Charge         Core      Valence    Rydberg      Total
 -----------------------------------------------------------------------
      C    1   -0.69468      1.99945     4.68717    0.00805     6.69468
      C    2   -0.10786      1.99928     4.09332    0.01526     6.10786
      O    3   -0.48964      1.99974     6.47769    0.01221     8.48964
      C    4    0.36116      1.99874     3.61731    0.02278     5.63884
      C    5   -0.39116      1.99904     4.37403    0.01809     6.39116
      C    6   -0.33319      1.99909     4.31530    0.01880     6.33319
      C    7    0.14307      1.99899     3.83791    0.02003     5.85693
      C    8   -0.34157      1.99909     4.32438    0.01810     6.34157
      C    9   -0.36407      1.99906     4.34386    0.02115     6.36407
      N   10   -0.27874      1.99933     5.26869    0.01072     7.27874
      C   11   -0.48179      1.99945     4.46996    0.01238     6.48179
      C   12   -0.48125      1.99945     4.46944    0.01236     6.48125
      H   13    0.23415      0.00000     0.76511    0.00074     0.76585
      H   14    0.23649      0.00000     0.76209    0.00142     0.76351
      H   15    0.23668      0.00000     0.76190    0.00142     0.76332
      H   16    0.21199      0.00000     0.78521    0.00280     0.78801
      H   17    0.21241      0.00000     0.78477    0.00282     0.78759
      H   18    0.22322      0.00000     0.77589    0.00089     0.77678
      H   19    0.21571      0.00000     0.78320    0.00108     0.78429
      H   20    0.21607      0.00000     0.78291    0.00101     0.78393
      H   21    0.23069      0.00000     0.76808    0.00123     0.76931
      H   22    0.24810      0.00000     0.75014    0.00176     0.75190
      H   23    0.23304      0.00000     0.76619    0.00077     0.76696
      H   24    0.23954      0.00000     0.75814    0.00233     0.76046
      H   25    0.24883      0.00000     0.74936    0.00180     0.75117
      H   26    0.24043      0.00000     0.75722    0.00235     0.75957
      H   27    0.23236      0.00000     0.76684    0.00081     0.76764
 =======================================================================
   * Total *    0.00000     23.99072    65.79612    0.21315    90.00000

 Normal termination of Gaussian 09 at Thu Sep 30 17:25:15 2021.
