 Gaussian 09, Revision A.02,

 -----------------------------------
 #p opt b3lyp/6-31G* scf=(xqc,tight)
 -----------------------------------

 --------------------------
 OB(c1cccc2c1cccc2)O_conf_0
 --------------------------
 Symbolic Z-matrix:
 Charge =  0 Multiplicity = 1

 SCF Done:  E(RB3LYP) =  -561.857990510     A.U. after   14 cycles
 SCF Done:  E(RB3LYP) =  -561.869649181     A.U. after   13 cycles
 SCF Done:  E(RB3LYP) =  -561.874731262     A.U. after   13 cycles
 SCF Done:  E(RB3LYP) =  -561.882153915     A.U. after   15 cycles
 SCF Done:  E(RB3LYP) =  -561.886341106     A.U. after   12 cycles
 SCF Done:  E(RB3LYP) =  -561.895438212     A.U. after   15 cycles
 SCF Done:  E(RB3LYP) =  -561.897887588     A.U. after   12 cycles
 SCF Done:  E(RB3LYP) =  -561.897668057     A.U. after   13 cycles
 SCF Done:  E(RB3LYP) =  -561.898396198     A.U. after   12 cycles
 SCF Done:  E(RB3LYP) =  -561.898775546     A.U. after   12 cycles
 SCF Done:  E(RB3LYP) =  -561.898814371     A.U. after   11 cycles
 SCF Done:  E(RB3LYP) =  -561.898833049     A.U. after   11 cycles
 SCF Done:  E(RB3LYP) =  -561.898837399     A.U. after   10 cycles
 SCF Done:  E(RB3LYP) =  -561.898838467     A.U. after    9 cycles
 SCF Done:  E(RB3LYP) =  -561.898838713     A.U. after    8 cycles
 SCF Done:  E(RB3LYP) =  -561.898838759     A.U. after    7 cycles
 Optimization completed.
    -- Stationary point found.
 Normal termination of Gaussian 09 at Sun Oct  3 17:56:29 2021.

 ----------------------------------------------------------------------
 #p freq b3lyp/6-31G* volume NMR pop=NPA density=current Geom=AllCheck
 Guess=Read
 ----------------------------------------------------------------------

 OB(c1cccc2c1cccc2)O_conf_0
 --------------------------
 Redundant internal coordinates taken from checkpoint file:
 C10H9BO2_2163_conf_0.chk
 Charge =  0 Multiplicity = 1

 SCF Done:  E(RB3LYP) =  -561.898838759     A.U. after    1 cycles

  1  O    Isotropic =   218.4883   Anisotropy =    54.2061

  2  B    Isotropic =    84.2489   Anisotropy =    16.4934

  3  C    Isotropic =    68.0412   Anisotropy =   177.6134

  4  C    Isotropic =    58.0909   Anisotropy =   176.1858

  5  C    Isotropic =    71.7753   Anisotropy =   158.7206

  6  C    Isotropic =    63.0956   Anisotropy =   147.3658

  7  C    Isotropic =    63.5226   Anisotropy =   200.0778

  8  C    Isotropic =    58.2420   Anisotropy =   201.9096

  9  C    Isotropic =    66.2663   Anisotropy =   162.3385

 10  C    Isotropic =    70.0618   Anisotropy =   160.7524

 11  C    Isotropic =    71.3031   Anisotropy =   161.0892

 12  C    Isotropic =    67.3290   Anisotropy =   142.5007

 13  O    Isotropic =   220.5254   Anisotropy =    65.7522

 14  H    Isotropic =    29.1191   Anisotropy =    13.0828

 15  H    Isotropic =    23.7681   Anisotropy =     9.7372

 16  H    Isotropic =    24.7977   Anisotropy =     5.4078

 17  H    Isotropic =    24.4975   Anisotropy =     6.9170

 18  H    Isotropic =    23.1483   Anisotropy =    11.9127

 19  H    Isotropic =    24.7335   Anisotropy =     5.8044

 20  H    Isotropic =    24.8304   Anisotropy =     5.0320

 21  H    Isotropic =    24.6068   Anisotropy =     6.8214

 22  H    Isotropic =    29.4625   Anisotropy =    12.8891

  Exact polarizability: 165.630 -10.477 151.236  -0.101   1.320  42.075
 Approx polarizability: 266.685 -23.034 267.151   0.091   2.619  66.213

                     1                      2                      3
                     A                      A                      A
 Frequencies --    19.3375                90.0977               178.5991
 Red. masses --     8.6603                 4.1482                 4.2889
 Frc consts  --     0.0019                 0.0198                 0.0806
 IR Inten    --     0.0337                 2.2929                 2.1516

                     4                      5                      6
                     A                      A                      A
 Frequencies --   183.3540               209.3805               311.9529
 Red. masses --     5.2769                 3.7584                 6.5716
 Frc consts  --     0.1045                 0.0971                 0.3768
 IR Inten    --     2.6237                 5.5291                 6.0160

                     7                      8                      9
                     A                      A                      A
 Frequencies --   335.8371               372.5247               396.7473
 Red. masses --     6.7617                 1.0583                 3.1632
 Frc consts  --     0.4493                 0.0865                 0.2934
 IR Inten    --     2.2503                 2.6598                13.3125

                    10                     11                     12
                     A                      A                      A
 Frequencies --   445.7404               476.1787               495.4219
 Red. masses --     4.7185                 2.5687                 2.4768
 Frc consts  --     0.5524                 0.3432                 0.3582
 IR Inten    --     2.0338                14.4292                13.0963

                    13                     14                     15
                     A                      A                      A
 Frequencies --   522.5436               546.2814               554.4326
 Red. masses --     5.3087                 4.5713                 1.9040
 Frc consts  --     0.8540                 0.8038                 0.3448
 IR Inten    --    19.4536                29.7846               158.9244

                    16                     17                     18
                     A                      A                      A
 Frequencies --   574.6126               624.1728               685.5075
 Red. masses --     4.2783                 4.0835                 4.7258
 Frc consts  --     0.8323                 0.9373                 1.3084
 IR Inten    --    39.0946                30.6765                 9.0022

                    19                     20                     21
                     A                      A                      A
 Frequencies --   691.9356               755.8544               801.2232
 Red. masses --     5.4618                 1.3162                 1.9988
 Frc consts  --     1.5407                 0.4430                 0.7560
 IR Inten    --     5.2883                 6.7892                40.1234

                    22                     23                     24
                     A                      A                      A
 Frequencies --   808.4988               826.5310               844.0143
 Red. masses --     5.4666                 1.5900                 5.1329
 Frc consts  --     2.1054                 0.6400                 2.1543
 IR Inten    --     0.4014                31.1270                 1.7051

                    25                     26                     27
                     A                      A                      A
 Frequencies --   887.5690               946.1116               950.6307
 Red. masses --     1.7269                 1.1393                 1.2978
 Frc consts  --     0.8015                 0.6008                 0.6910
 IR Inten    --     0.8426               135.2705                23.4631

                    28                     29                     30
                     A                      A                      A
 Frequencies --   961.5800               982.2418               990.2438
 Red. masses --     1.3510                 6.0430                 1.3138
 Frc consts  --     0.7360                 3.4351                 0.7590
 IR Inten    --     1.0151                53.9836                 1.5376

                    31                     32                     33
                     A                      A                      A
 Frequencies --   995.6370              1046.4356              1059.3164
 Red. masses --     1.2783                 2.2814                 2.3056
 Frc consts  --     0.7466                 1.4719                 1.5243
 IR Inten    --     0.7852               148.4875                33.0633

                    34                     35                     36
                     A                      A                      A
 Frequencies --  1100.7707              1173.6791              1183.6268
 Red. masses --     2.2942                 1.5783                 1.2996
 Frc consts  --     1.6379                 1.2810                 1.0727
 IR Inten    --     3.7809                 2.9181                 2.0308

                    37                     38                     39
                     A                      A                      A
 Frequencies --  1197.2559              1240.2955              1247.7171
 Red. masses --     1.1754                 1.8301                 1.9809
 Frc consts  --     0.9927                 1.6587                 1.8170
 IR Inten    --     3.3671                 3.8014                 3.6524

                    40                     41                     42
                     A                      A                      A
 Frequencies --  1292.8170              1353.7781              1380.0085
 Red. masses --     1.6705                 3.3673                 3.0746
 Frc consts  --     1.6450                 3.6361                 3.4499
 IR Inten    --    24.3135               119.6192               139.9968

                    43                     44                     45
                     A                      A                      A
 Frequencies --  1398.3905              1403.9866              1442.5069
 Red. masses --     6.1737                 6.3187                 2.0855
 Frc consts  --     7.1130                 7.3385                 2.5568
 IR Inten    --   183.4896                41.7212                13.5733

                    46                     47                     48
                     A                      A                      A
 Frequencies --  1485.8505              1510.2739              1563.9525
 Red. masses --     2.2422                 2.2998                 3.3029
 Frc consts  --     2.9165                 3.0906                 4.7598
 IR Inten    --    12.5617                12.6860                31.9561

                    49                     50                     51
                     A                      A                      A
 Frequencies --  1628.0688              1649.4169              1677.8770
 Red. masses --     6.3084                 4.8216                 5.6115
 Frc consts  --     9.8518                 7.7286                 9.3079
 IR Inten    --    18.3059                 3.4470                 3.0413

                    52                     53                     54
                     A                      A                      A
 Frequencies --  3172.7388              3175.9491              3185.2218
 Red. masses --     1.0867                 1.0859                 1.0900
 Frc consts  --     6.4450                 6.4536                 6.5158
 IR Inten    --     0.6335                 4.1276                24.1590

                    55                     56                     57
                     A                      A                      A
 Frequencies --  3195.1160              3202.7883              3215.1070
 Red. masses --     1.0928                 1.0961                 1.0927
 Frc consts  --     6.5727                 6.6247                 6.6548
 IR Inten    --    29.9120                37.7158                14.6027

                    58                     59                     60
                     A                      A                      A
 Frequencies --  3255.7391              3772.5216              3787.7016
 Red. masses --     1.0912                 1.0662                 1.0657
 Frc consts  --     6.8148                 8.9405                 9.0085
 IR Inten    --     4.3481                15.0152                31.2228

 - Thermochemistry -
 -------------------
 Temperature   298.150 Kelvin.  Pressure   1.00000 Atm.
 Atom     1 has atomic number  8 and mass  15.99491

 Molecular mass:   172.06956 amu.
 Principal axes and moments of inertia in atomic units:
                           1         2         3
     Eigenvalues --  1378.413882637.622234004.11034
           X            1.00000  -0.00170  -0.00031
           Y            0.00170   1.00000   0.00150
           Z            0.00031  -0.00151   1.00000
 This molecule is an asymmetric top.
 Rotational symmetry number  1.
 Warning -- assumption of classical behavior for rotation
           may cause significant error
 Rotational temperatures (Kelvin)      0.06284     0.03284     0.02163
 Rotational constants (GHZ):           1.30929     0.68423     0.45072
 Zero-point vibrational energy     451373.2 (Joules/Mol)
                                  107.88078 (Kcal/Mol)
 Warning -- explicit consideration of  16 degrees of freedom as
           vibrations may cause significant error
 Vibrational temperatures:     27.82   129.63   256.96   263.81   301.25
          (Kelvin)            448.83   483.19   535.98   570.83   641.32
                              685.11   712.80   751.82   785.98   797.70
                              826.74   898.04   986.29   995.54  1087.50
                             1152.78  1163.25  1189.19  1214.35  1277.01
                             1361.24  1367.74  1383.50  1413.23  1424.74
                             1432.50  1505.59  1524.12  1583.76  1688.66
                             1702.97  1722.58  1784.51  1795.18  1860.07
                             1947.78  1985.52  2011.97  2020.02  2075.44
                             2137.80  2172.94  2250.18  2342.42  2373.14
                             2414.09  4564.86  4569.48  4582.82  4597.05
                             4608.09  4625.82  4684.28  5427.81  5449.65

 Zero-point correction=                           0.171919 (Hartree/Particle)
 Thermal correction to Energy=                    0.182373
 Thermal correction to Enthalpy=                  0.183317
 Thermal correction to Gibbs Free Energy=         0.134912
 Sum of electronic and zero-point Energies=           -561.726920
 Sum of electronic and thermal Energies=              -561.716466
 Sum of electronic and thermal Enthalpies=            -561.715522
 Sum of electronic and thermal Free Energies=         -561.763927

                     E (Thermal)             CV                S
                      KCal/Mol        Cal/Mol-Kelvin    Cal/Mol-Kelvin
 Total                  114.441             42.042            101.878
 Electronic               0.000              0.000              0.000
 Translational            0.889              2.981             41.336
 Rotational               0.889              2.981             31.055
 Vibrational            112.663             36.081             29.487
 Vibration     1          0.593              1.986              6.701
 Vibration     2          0.602              1.956              3.658
 Vibration     3          0.629              1.869              2.343
 Vibration     4          0.631              1.862              2.294
 Vibration     5          0.642              1.826              2.049
 Vibration     6          0.700              1.651              1.352
 Vibration     7          0.717              1.604              1.232
 Vibration     8          0.744              1.529              1.069
 Vibration     9          0.763              1.477              0.975
 Vibration    10          0.805              1.370              0.809
 Vibration    11          0.833              1.303              0.720
 Vibration    12          0.851              1.260              0.670
 Vibration    13          0.878              1.200              0.604
 Vibration    14          0.901              1.148              0.552
 Vibration    15          0.910              1.130              0.535
 Vibration    16          0.931              1.086              0.495

 Optimization completed.
    -- Stationary point found.
 Normal termination of Gaussian 09 at Sun Oct  3 19:08:03 2021.
 Gaussian 09:  AM64L-G09RevA.02 11-Jun-2009

 ----------------------------------------------------------------------
 #p TD(NStates=10, Root=1) b3lyp/6-31G* volume pop=NPA density=current
 Geom=AllCheck Guess=Read
 ----------------------------------------------------------------------

 OB(c1cccc2c1cccc2)O_conf_0
 --------------------------
 Redundant internal coordinates taken from checkpoint file:
 C10H9BO2_2163_conf_0.chk
 Charge =  0 Multiplicity = 1

                         Standard orientation:
 ---------------------------------------------------------------------
 Center     Atomic      Atomic             Coordinates (Angstroms)
 Number     Number       Type             X           Y           Z
 ---------------------------------------------------------------------
      1          8           0       -2.233804   -1.937302    0.220587
      2          5           0       -2.291933   -0.578127    0.003094
      3          6           0       -0.995131    0.306128    0.002518
      4          6           0       -1.194073    1.682047    0.023989
      5          6           0       -0.125666    2.604396    0.046430
      6          6           0        1.170363    2.147195    0.041827
      7          6           0        1.448338    0.755313    0.011799
      8          6           0        0.360728   -0.185459   -0.007689
      9          6           0        0.693655   -1.570009   -0.046966
     10          6           0        2.005283   -1.992757   -0.060640
     11          6           0        3.068167   -1.060533   -0.036401
     12          6           0        2.789431    0.285459   -0.001538
     13          8           0       -3.488188    0.075178   -0.203579
     14          1           0       -3.094004   -2.380632    0.196591
     15          1           0       -2.211050    2.061855    0.025632
     16          1           0       -0.333490    3.671002    0.067458
     17          1           0        2.005040    2.844982    0.059467
     18          1           0       -0.106291   -2.298703   -0.062910
     19          1           0        2.226142   -3.056863   -0.090619
     20          1           0        4.097635   -1.408864   -0.046815
     21          1           0        3.594738    1.016680    0.014708
     22          1           0       -4.269691   -0.492509   -0.155014
 ---------------------------------------------------------------------

 SCF Done:  E(RB3LYP) =  -561.898838759     A.U. after    2 cycles

 Excitation energies and oscillator strengths:

 Excited State   1:      Singlet-A      4.1856 eV  296.21 nm  f=0.1057  <S**2>=0.000
      44 -> 47         0.12485
      45 -> 46         0.68863
 This state for optimization and/or second-order correction.
 Total Energy, E(TD-HF/TD-KS) =  -561.745019996
 Copying the excited state density for this state as the 1-particle RhoCI density.

 Excited State   2:      Singlet-A      4.4129 eV  280.96 nm  f=0.0087  <S**2>=0.000
      44 -> 46         0.55317
      45 -> 47        -0.43737

 Excited State   3:      Singlet-A      5.4513 eV  227.44 nm  f=0.0038  <S**2>=0.000
      43 -> 46         0.39875
      44 -> 47        -0.12978
      45 -> 48         0.56187

 Excited State   4:      Singlet-A      5.7224 eV  216.66 nm  f=0.5379  <S**2>=0.000
      43 -> 46         0.12639
      43 -> 47         0.13427
      44 -> 46         0.37513
      44 -> 48         0.31263
      45 -> 47         0.46591

 Excited State   5:      Singlet-A      5.9740 eV  207.54 nm  f=0.0002  <S**2>=0.000
      45 -> 49         0.69692

 Excited State   6:      Singlet-A      6.0156 eV  206.10 nm  f=0.0782  <S**2>=0.000
      43 -> 46         0.51163
      43 -> 47        -0.13061
      44 -> 48        -0.25728
      45 -> 48        -0.35776

 Excited State   7:      Singlet-A      6.1412 eV  201.89 nm  f=0.0007  <S**2>=0.000
      42 -> 46         0.69794

 Excited State   8:      Singlet-A      6.2413 eV  198.65 nm  f=0.3139  <S**2>=0.000
      41 -> 46         0.10029
      43 -> 46        -0.10635
      43 -> 47        -0.20670
      43 -> 48        -0.13340
      44 -> 46         0.15476
      44 -> 47         0.49272
      44 -> 48        -0.24663
      45 -> 47         0.19655
      45 -> 48         0.17952

 Excited State   9:      Singlet-A      6.2733 eV  197.64 nm  f=0.2911  <S**2>=0.000
      43 -> 46         0.16670
      43 -> 47         0.24258
      43 -> 48        -0.13357
      44 -> 46        -0.15534
      44 -> 47         0.42925
      44 -> 48         0.35925
      45 -> 47        -0.19777

 Excited State  10:      Singlet-A      6.5890 eV  188.17 nm  f=0.0001  <S**2>=0.000
      39 -> 46         0.49652
      40 -> 46         0.48921

 The electronic state is 1-A.
 Alpha  occ. eigenvalues --  -19.16641 -19.16300 -10.18959 -10.18717 -10.18514
 Alpha  occ. eigenvalues --  -10.18081 -10.18073 -10.18021 -10.18018 -10.17905
 Alpha  occ. eigenvalues --  -10.17227 -10.16593  -6.78826  -1.04210  -1.00581
 Alpha  occ. eigenvalues --   -0.85813  -0.80712  -0.75890  -0.72753  -0.70653
 Alpha  occ. eigenvalues --   -0.61481  -0.60085  -0.59476  -0.55320  -0.54509
 Alpha  occ. eigenvalues --   -0.49653  -0.49297  -0.47893  -0.44168  -0.42732
 Alpha  occ. eigenvalues --   -0.41442  -0.40145  -0.39496  -0.39104  -0.38145
 Alpha  occ. eigenvalues --   -0.37114  -0.35282  -0.34097  -0.32361  -0.32226
 Alpha  occ. eigenvalues --   -0.31391  -0.30410  -0.27153  -0.23203  -0.20557
 Alpha virt. eigenvalues --   -0.03774   0.00317   0.02309   0.03676   0.09193
 Alpha virt. eigenvalues --    0.10231   0.10830   0.12606   0.12868   0.15157
 Alpha virt. eigenvalues --    0.17776   0.18896   0.20142   0.21308   0.22316

 Mulliken atomic charges:
              1
     1  O   -0.579881
     2  B    0.325449
     3  C    0.024997
     4  C   -0.213419
     5  C   -0.111845
     6  C   -0.234266
     7  C    0.162752
     8  C    0.028308
     9  C   -0.165531
    10  C   -0.132182
    11  C   -0.123778
    12  C   -0.174571
    13  O   -0.568431
    14  H    0.384028
    15  H    0.141225
    16  H    0.122010
    17  H    0.113968
    18  H    0.190927
    19  H    0.139122
    20  H    0.140553
    21  H    0.147991
    22  H    0.382576
 Sum of Mulliken atomic charges =  -0.00000

 Dipole moment (field-independent basis, Debye):
    X=             -0.0536    Y=             -2.3552    Z=              0.0042  Tot=              2.3558
 Quadrupole moment (field-independent basis, Debye-Ang):
   XX=            -52.6207   YY=            -66.4038   ZZ=            -78.1643
   XY=              7.5246   XZ=             -0.6117   YZ=              0.8207

 Summary of Natural Population Analysis:

                                       Natural Population
                Natural  -----------------------------------------------
    Atom  No    Charge         Core      Valence    Rydberg      Total
 -----------------------------------------------------------------------
      O    1   -0.90410      1.99974     6.89474    0.00962     8.90410
      B    2    1.06969      1.99925     1.90536    0.02569     3.93031
      C    3   -0.40937      1.99892     4.39147    0.01899     6.40937
      C    4   -0.20104      1.99912     4.18629    0.01563     6.20104
      C    5   -0.22190      1.99910     4.20703    0.01577     6.22190
      C    6   -0.25695      1.99906     4.24150    0.01640     6.25695
      C    7   -0.06803      1.99903     4.05402    0.01497     6.06803
      C    8   -0.04388      1.99906     4.02919    0.01564     6.04388
      C    9   -0.11181      1.99908     4.09864    0.01410     6.11181
      C   10   -0.23175      1.99913     4.21746    0.01516     6.23175
      C   11   -0.22796      1.99911     4.21391    0.01493     6.22796
      C   12   -0.12330      1.99905     4.11003    0.01422     6.12330
      O   13   -0.89382      1.99975     6.88443    0.00964     8.89382
      H   14    0.47868      0.00000     0.51883    0.00249     0.52132
      H   15    0.24233      0.00000     0.75632    0.00135     0.75767
      H   16    0.23165      0.00000     0.76746    0.00090     0.76835
      H   17    0.22274      0.00000     0.77603    0.00123     0.77726
      H   18    0.26041      0.00000     0.73849    0.00110     0.73959
      H   19    0.23766      0.00000     0.76149    0.00084     0.76234
      H   20    0.23906      0.00000     0.76014    0.00080     0.76094
      H   21    0.23467      0.00000     0.76409    0.00124     0.76533
      H   22    0.47701      0.00000     0.52072    0.00226     0.52299
 =======================================================================
   * Total *    0.00000     25.98939    63.79765    0.21296    90.00000

 Normal termination of Gaussian 09 at Sun Oct  3 23:45:49 2021.
