 Gaussian 09, Revision A.02,

 -----------------------------------
 #p opt b3lyp/6-31G* scf=(xqc,tight)
 -----------------------------------

 -------------------------------
 Br[Mg]c1ccc(cc1)C(C)(C)C_conf_0
 -------------------------------
 Symbolic Z-matrix:
 Charge =  0 Multiplicity = 1

 SCF Done:  E(RB3LYP) =  -3160.75525900     A.U. after   14 cycles
 SCF Done:  E(RB3LYP) =  -3160.76700425     A.U. after   11 cycles
 SCF Done:  E(RB3LYP) =  -3160.77085805     A.U. after   12 cycles
 SCF Done:  E(RB3LYP) =  -3160.76410065     A.U. after   14 cycles
 SCF Done:  E(RB3LYP) =  -3160.77115504     A.U. after   14 cycles
 SCF Done:  E(RB3LYP) =  -3160.77129554     A.U. after   10 cycles
 SCF Done:  E(RB3LYP) =  -3160.77134623     A.U. after   14 cycles
 SCF Done:  E(RB3LYP) =  -3160.77134931     A.U. after   14 cycles
 SCF Done:  E(RB3LYP) =  -3160.77135063     A.U. after    8 cycles
 SCF Done:  E(RB3LYP) =  -3160.77135132     A.U. after   18 cycles
 SCF Done:  E(RB3LYP) =  -3160.77135141     A.U. after    8 cycles
 SCF Done:  E(RB3LYP) =  -3160.77135186     A.U. after    7 cycles
 SCF Done:  E(RB3LYP) =  -3160.77135194     A.U. after    7 cycles
 SCF Done:  E(RB3LYP) =  -3160.77135194     A.U. after    7 cycles
 Optimization completed.
    -- Stationary point found.
 Normal termination of Gaussian 09 at Sun Oct  3 11:52:42 2021.

 ----------------------------------------------------------------------
 #p freq b3lyp/6-31G* volume NMR pop=NPA density=current Geom=AllCheck
 Guess=Read
 ----------------------------------------------------------------------

 Br[Mg]c1ccc(cc1)C(C)(C)C_conf_0
 -------------------------------
 Redundant internal coordinates taken from checkpoint file:
 C10H13BrMg_6229_conf_0.chk
 Charge =  0 Multiplicity = 1

 SCF Done:  E(RB3LYP) =  -3160.77135194     A.U. after    1 cycles

  1  Br   Isotropic =  2947.9425   Anisotropy =   251.4718

  2  Mg   Isotropic =   517.4177   Anisotropy =   278.8548

  3  C    Isotropic =    54.2279   Anisotropy =   188.0134

  4  C    Isotropic =    55.5359   Anisotropy =   158.2457

  5  C    Isotropic =    69.2309   Anisotropy =   160.5739

  6  C    Isotropic =    46.1892   Anisotropy =   188.7311

  7  C    Isotropic =    71.7871   Anisotropy =   156.4582

  8  C    Isotropic =    55.0062   Anisotropy =   158.6960

  9  C    Isotropic =   153.1611   Anisotropy =     9.7409

 10  C    Isotropic =   157.4433   Anisotropy =    39.4715

 11  C    Isotropic =   161.4262   Anisotropy =    30.7007

 12  C    Isotropic =   157.4437   Anisotropy =    39.4699

 13  H    Isotropic =    24.6989   Anisotropy =     8.2890

 14  H    Isotropic =    24.9791   Anisotropy =    10.6005

 15  H    Isotropic =    25.1966   Anisotropy =    10.8969

 16  H    Isotropic =    24.7394   Anisotropy =     8.3027

 17  H    Isotropic =    31.0326   Anisotropy =     7.6699

 18  H    Isotropic =    30.6226   Anisotropy =     7.6395

 19  H    Isotropic =    31.0223   Anisotropy =     8.4642

 20  H    Isotropic =    30.7259   Anisotropy =     8.0463

 21  H    Isotropic =    31.1576   Anisotropy =     7.4461

 22  H    Isotropic =    30.7265   Anisotropy =     8.0469

 23  H    Isotropic =    30.6225   Anisotropy =     7.6396

 24  H    Isotropic =    31.0326   Anisotropy =     7.6702

 25  H    Isotropic =    31.0221   Anisotropy =     8.4640

  Exact polarizability: 223.552   0.672 128.912  -0.007  -0.000  93.267
 Approx polarizability: 282.305   1.423 216.484  -0.009  -0.000 135.322

                     1                      2                      3
                     A                      A                      A
 Frequencies --    30.9610                35.6004                49.9767
 Red. masses --     6.0456                 7.1874                 3.1593
 Frc consts  --     0.0034                 0.0054                 0.0046
 IR Inten    --     0.4267                 1.8417                 0.0575

                     4                      5                      6
                     A                      A                      A
 Frequencies --   111.1482               153.7734               162.6967
 Red. masses --     5.6436                 9.5555                 8.7498
 Frc consts  --     0.0411                 0.1331                 0.1365
 IR Inten    --     9.4445                 0.8134                23.5001

                     7                      8                      9
                     A                      A                      A
 Frequencies --   197.2475               234.4723               242.4791
 Red. masses --     3.1316                 1.2090                 2.4849
 Frc consts  --     0.0718                 0.0392                 0.0861
 IR Inten    --    18.2372                 5.0493                 5.6313

                    10                     11                     12
                     A                      A                      A
 Frequencies --   272.8767               323.3002               332.7265
 Red. masses --     1.1810                 2.7795                 1.1117
 Frc consts  --     0.0518                 0.1712                 0.0725
 IR Inten    --     0.7647                 1.7137                 0.1939

                    13                     14                     15
                     A                      A                      A
 Frequencies --   336.6549               351.6176               398.1020
 Red. masses --     2.5379                 3.1937                 2.7541
 Frc consts  --     0.1695                 0.2326                 0.2572
 IR Inten    --     4.0529                 6.0423                 1.5720

                    16                     17                     18
                     A                      A                      A
 Frequencies --   400.7405               460.0671               484.4269
 Red. masses --     2.7250                 2.9059                 5.7800
 Frc consts  --     0.2578                 0.3624                 0.7992
 IR Inten    --     1.7333                 0.2166                78.7650

                    19                     20                     21
                     A                      A                      A
 Frequencies --   567.0508               577.5252               651.8769
 Red. masses --     2.9271                 3.9737                 7.0943
 Frc consts  --     0.5545                 0.7809                 1.7762
 IR Inten    --    16.1813                45.9663                 0.1004

                    22                     23                     24
                     A                      A                      A
 Frequencies --   732.6281               744.4227               830.4510
 Red. masses --     5.6629                 3.2347                 1.5883
 Frc consts  --     1.7908                 1.0561                 0.6454
 IR Inten    --     2.8457                 1.7799                17.5906

                    25                     26                     27
                     A                      A                      A
 Frequencies --   848.1767               866.0847               936.1989
 Red. masses --     2.6048                 1.2516                 1.7768
 Frc consts  --     1.1041                 0.5531                 0.9175
 IR Inten    --     1.4509                 0.0354                 0.7766

                    28                     29                     30
                     A                      A                      A
 Frequencies --   946.6192               964.4395               969.3183
 Red. masses --     1.7205                 1.3685                 1.2285
 Frc consts  --     0.9084                 0.7500                 0.6801
 IR Inten    --     0.7876                 0.0199                 0.0590

                    31                     32                     33
                     A                      A                      A
 Frequencies --   974.1645              1026.6302              1051.8850
 Red. masses --     1.2539                 4.6926                 1.4348
 Frc consts  --     0.7011                 2.9140                 0.9354
 IR Inten    --     0.3966                 5.8735                 1.8602

                    34                     35                     36
                     A                      A                      A
 Frequencies --  1061.2693              1083.6258              1143.6488
 Red. masses --     1.3911                 4.1924                 1.6965
 Frc consts  --     0.9231                 2.9005                 1.3074
 IR Inten    --     0.0000                34.0829                 3.1419

                    37                     38                     39
                     A                      A                      A
 Frequencies --  1149.1420              1239.0883              1240.8063
 Red. masses --     2.0044                 2.7036                 2.2236
 Frc consts  --     1.5595                 2.4456                 2.0170
 IR Inten    --     6.1678                 3.3511                 0.4235

                    40                     41                     42
                     A                      A                      A
 Frequencies --  1246.6069              1300.5765              1307.1999
 Red. masses --     1.2264                 2.9993                 6.2601
 Frc consts  --     1.1229                 2.9891                 6.3025
 IR Inten    --     0.2427                18.4359                 8.1050

                    43                     44                     45
                     A                      A                      A
 Frequencies --  1357.3557              1417.6347              1425.6863
 Red. masses --     1.3750                 1.5333                 1.2112
 Frc consts  --     1.4926                 1.8156                 1.4505
 IR Inten    --     0.3172                 0.5725                 3.5292

                    46                     47                     48
                     A                      A                      A
 Frequencies --  1435.0197              1457.6622              1511.4355
 Red. masses --     1.6483                 1.2168                 1.0501
 Frc consts  --     1.9999                 1.5232                 1.4133
 IR Inten    --    18.6216                 2.4064                 0.0019

                    49                     50                     51
                     A                      A                      A
 Frequencies --  1516.1132              1519.5019              1531.4442
 Red. masses --     1.0459                 1.0692                 1.1181
 Frc consts  --     1.4165                 1.4545                 1.5450
 IR Inten    --     0.1425                 0.3089                 5.9714

                    52                     53                     54
                     A                      A                      A
 Frequencies --  1536.6087              1542.9895              1550.6504
 Red. masses --     1.0504                 1.6833                 1.0993
 Frc consts  --     1.4613                 2.3613                 1.5574
 IR Inten    --     5.1602                 0.7662                 9.7554

                    55                     56                     57
                     A                      A                      A
 Frequencies --  1589.3830              1643.2666              3042.3489
 Red. masses --     5.2025                 5.1899                 1.0353
 Frc consts  --     7.7432                 8.2571                 5.6460
 IR Inten    --     2.1130                15.5931                27.3187

                    58                     59                     60
                     A                      A                      A
 Frequencies --  3042.8580              3050.8708              3107.6554
 Red. masses --     1.0349                 1.0363                 1.1020
 Frc consts  --     5.6458                 5.6832                 6.2704
 IR Inten    --    25.3086                27.7498                 4.8095

                    61                     62                     63
                     A                      A                      A
 Frequencies --  3108.5118              3114.8274              3117.0204
 Red. masses --     1.1023                 1.1029                 1.1014
 Frc consts  --     6.2754                 6.3043                 6.3047
 IR Inten    --     6.0440                21.1922               101.2203

                    64                     65                     66
                     A                      A                      A
 Frequencies --  3120.5423              3122.7666              3137.3881
 Red. masses --     1.1023                 1.1015                 1.0880
 Frc consts  --     6.3245                 6.3287                 6.3096
 IR Inten    --    23.5970                46.3775                 7.3157

                    67                     68                     69
                     A                      A                      A
 Frequencies --  3138.4742              3183.3305              3210.6816
 Red. masses --     1.0883                 1.0910                 1.0900
 Frc consts  --     6.3160                 6.5140                 6.6200
 IR Inten    --    30.6566                32.1446                18.3045

 - Thermochemistry -
 -------------------
 Temperature   298.150 Kelvin.  Pressure   1.00000 Atm.
 Atom     1 has atomic number 35 and mass  78.91834

 Molecular mass:   236.00511 amu.
 Principal axes and moments of inertia in atomic units:
                           1         2         3
     Eigenvalues --   706.33638********************
           X            1.00000   0.00024  -0.00001
           Y           -0.00024   1.00000   0.00000
           Z            0.00001  -0.00000   1.00000
 This molecule is an asymmetric top.
 Rotational symmetry number  1.
 Warning -- assumption of classical behavior for rotation
           may cause significant error
 Rotational temperatures (Kelvin)      0.12262     0.00738     0.00719
 Rotational constants (GHZ):           2.55507     0.15368     0.14977
 Zero-point vibrational energy     535749.5 (Joules/Mol)
                                  128.04722 (Kcal/Mol)
 Warning -- explicit consideration of  20 degrees of freedom as
           vibrations may cause significant error
 Vibrational temperatures:     44.55    51.22    71.91   159.92   221.25
          (Kelvin)            234.08   283.79   337.35   348.87   392.61
                              465.16   478.72   484.37   505.90   572.78
                              576.58   661.93   696.98   815.86   830.93
                              937.90  1054.09  1071.06  1194.83  1220.34
                             1246.10  1346.98  1361.97  1387.61  1394.63
                             1401.60  1477.09  1513.43  1526.93  1559.09
                             1645.45  1653.36  1782.77  1785.24  1793.59
                             1871.24  1880.77  1952.93  2039.66  2051.24
                             2064.67  2097.25  2174.62  2181.35  2186.22
                             2203.40  2210.83  2220.01  2231.04  2286.76
                             2364.29  4377.26  4377.99  4389.52  4471.22
                             4472.45  4481.54  4484.69  4489.76  4492.96
                             4514.00  4515.56  4580.10  4619.45

 Zero-point correction=                           0.204056 (Hartree/Particle)
 Thermal correction to Energy=                    0.217473
 Thermal correction to Enthalpy=                  0.218418
 Thermal correction to Gibbs Free Energy=         0.161831
 Sum of electronic and zero-point Energies=          -3160.567296
 Sum of electronic and thermal Energies=             -3160.553878
 Sum of electronic and thermal Enthalpies=           -3160.552934
 Sum of electronic and thermal Free Energies=        -3160.609521

                     E (Thermal)             CV                S
                      KCal/Mol        Cal/Mol-Kelvin    Cal/Mol-Kelvin
 Total                  136.467             48.885            119.097
 Electronic               0.000              0.000              0.000
 Translational            0.889              2.981             42.278
 Rotational               0.889              2.981             32.969
 Vibrational            134.689             42.923             43.851
 Vibration     1          0.594              1.984              5.767
 Vibration     2          0.594              1.982              5.490
 Vibration     3          0.595              1.978              4.818
 Vibration     4          0.607              1.940              3.249
 Vibration     5          0.619              1.898              2.625
 Vibration     6          0.623              1.888              2.518
 Vibration     7          0.637              1.844              2.159
 Vibration     8          0.654              1.788              1.844
 Vibration     9          0.659              1.775              1.785
 Vibration    10          0.676              1.723              1.578
 Vibration    11          0.708              1.629              1.293
 Vibration    12          0.715              1.610              1.247
 Vibration    13          0.717              1.602              1.228
 Vibration    14          0.728              1.572              1.159
 Vibration    15          0.764              1.474              0.970
 Vibration    16          0.767              1.469              0.960
 Vibration    17          0.818              1.339              0.766
 Vibration    18          0.841              1.285              0.698
 Vibration    19          0.923              1.103              0.510
 Vibration    20          0.934              1.080              0.490

 Optimization completed.
    -- Stationary point found.
 Normal termination of Gaussian 09 at Sun Oct  3 13:05:37 2021.
 Gaussian 09:  AM64L-G09RevA.02 11-Jun-2009

 ----------------------------------------------------------------------
 #p TD(NStates=10, Root=1) b3lyp/6-31G* volume pop=NPA density=current
 Geom=AllCheck Guess=Read
 ----------------------------------------------------------------------

 Br[Mg]c1ccc(cc1)C(C)(C)C_conf_0
 -------------------------------
 Redundant internal coordinates taken from checkpoint file:
 C10H13BrMg_6229_conf_0.chk
 Charge =  0 Multiplicity = 1

                         Standard orientation:
 ---------------------------------------------------------------------
 Center     Atomic      Atomic             Coordinates (Angstroms)
 Number     Number       Type             X           Y           Z
 ---------------------------------------------------------------------
      1         35           0        4.743355   -0.004331    0.000182
      2         12           0        2.408792    0.003443   -0.000160
      3          6           0        0.338054    0.010923   -0.000544
      4          6           0       -0.420640   -1.178729   -0.000433
      5          6           0       -1.814485   -1.170484   -0.000223
      6          6           0       -2.543355    0.030966   -0.000119
      7          6           0       -1.802957    1.220017   -0.000223
      8          6           0       -0.404472    1.206581   -0.000429
      9          6           0       -4.082570    0.000411    0.000174
     10          6           0       -4.582212   -0.741869    1.262484
     11          6           0       -4.698260    1.412594    0.000236
     12          6           0       -4.582689   -0.741960   -1.261898
     13          1           0        0.076072   -2.149235   -0.000542
     14          1           0       -2.340974   -2.121976   -0.000141
     15          1           0       -2.310788    2.179013   -0.000125
     16          1           0        0.103648    2.171271   -0.000522
     17          1           0       -4.250194   -0.231768    2.173935
     18          1           0       -4.212643   -1.771765    1.303041
     19          1           0       -5.678444   -0.780140    1.274250
     20          1           0       -4.406418    1.985609    0.887729
     21          1           0       -5.791492    1.337163    0.000663
     22          1           0       -4.407104    1.985396   -0.887617
     23          1           0       -4.213103   -1.771846   -1.302542
     24          1           0       -4.251048   -0.231900   -2.173508
     25          1           0       -5.678926   -0.780262   -1.273221
 ---------------------------------------------------------------------

 SCF Done:  E(RB3LYP) =  -3160.77135194     A.U. after    1 cycles

 Excitation energies and oscillator strengths:

 Excited State   1:      Singlet-A      4.4519 eV  278.50 nm  f=0.0092  <S**2>=0.000
      60 -> 61         0.70305
 This state for optimization and/or second-order correction.
 Total Energy, E(TD-HF/TD-KS) =  -3160.60774940
 Copying the excited state density for this state as the 1-particle RhoCI density.

 Excited State   2:      Singlet-A      4.6860 eV  264.58 nm  f=0.0002  <S**2>=0.000
      59 -> 61         0.70534

 Excited State   3:      Singlet-A      5.0968 eV  243.26 nm  f=0.0027  <S**2>=0.000
      59 -> 62         0.58275
      60 -> 62        -0.13684
      60 -> 64        -0.36143

 Excited State   4:      Singlet-A      5.2651 eV  235.48 nm  f=0.2239  <S**2>=0.000
      59 -> 62         0.13571
      59 -> 64         0.10450
      60 -> 62         0.66706
      60 -> 65         0.11928

 Excited State   5:      Singlet-A      5.3016 eV  233.86 nm  f=0.0000  <S**2>=0.000
      60 -> 63         0.70469

 Excited State   6:      Singlet-A      5.3456 eV  231.94 nm  f=0.5229  <S**2>=0.000
      58 -> 61         0.67261
      60 -> 62        -0.10337
      60 -> 65         0.15907

 Excited State   7:      Singlet-A      5.4127 eV  229.06 nm  f=0.0044  <S**2>=0.000
      57 -> 61         0.54747
      58 -> 62        -0.44300

 Excited State   8:      Singlet-A      5.4572 eV  227.19 nm  f=0.0363  <S**2>=0.000
      56 -> 61         0.69829
      58 -> 63        -0.10372

 Excited State   9:      Singlet-A      5.5254 eV  224.39 nm  f=0.0370  <S**2>=0.000
      57 -> 61        -0.34769
      58 -> 62        -0.41964
      59 -> 63         0.44651

 Excited State  10:      Singlet-A      5.5439 eV  223.64 nm  f=0.0387  <S**2>=0.000
      57 -> 61         0.27752
      58 -> 62         0.34671
      59 -> 63         0.54686

 The electronic state is 1-A.
 Alpha  occ. eigenvalues -- -482.87822 -61.84051 -56.35783 -56.35645 -56.35640
 Alpha  occ. eigenvalues --  -46.84334 -10.20387 -10.19186 -10.18667 -10.18641
 Alpha  occ. eigenvalues --  -10.18189 -10.18127 -10.17452 -10.17447 -10.17447
 Alpha  occ. eigenvalues --  -10.16791  -8.54962  -6.49708  -6.49311  -6.49301
 Alpha  occ. eigenvalues --   -3.13135  -2.61385  -2.61262  -2.61254  -2.60938
 Alpha  occ. eigenvalues --   -2.60938  -1.87771  -1.87709  -1.87110  -0.85073
 Alpha  occ. eigenvalues --   -0.80631  -0.73690  -0.72469  -0.71893  -0.68439
 Alpha  occ. eigenvalues --   -0.68358  -0.59715  -0.59178  -0.54471  -0.49009
 Alpha  occ. eigenvalues --   -0.45048  -0.44226  -0.43762  -0.42951  -0.41567
 Alpha  occ. eigenvalues --   -0.41075  -0.39340  -0.37628  -0.36564  -0.35200
 Alpha  occ. eigenvalues --   -0.34444  -0.33432  -0.32840  -0.32386  -0.31355
 Alpha  occ. eigenvalues --   -0.27996  -0.27961  -0.26040  -0.24373  -0.23669
 Alpha virt. eigenvalues --   -0.04320  -0.02508  -0.01348   0.00381   0.02176
 Alpha virt. eigenvalues --    0.06784   0.08688   0.11736   0.12148   0.12780
 Alpha virt. eigenvalues --    0.13111   0.13593   0.14634   0.15112   0.15782

 Mulliken atomic charges:
              1
     1  Br  -0.262450
     2  Mg  -0.093307
     3  C    0.032868
     4  C   -0.173088
     5  C   -0.142273
     6  C    0.204512
     7  C   -0.162721
     8  C   -0.154961
     9  C   -0.005491
    10  C   -0.449236
    11  C   -0.462836
    12  C   -0.449240
    13  H    0.163758
    14  H    0.162281
    15  H    0.160619
    16  H    0.169955
    17  H    0.165513
    18  H    0.158365
    19  H    0.167362
    20  H    0.159169
    21  H    0.160802
    22  H    0.159169
    23  H    0.158362
    24  H    0.165508
    25  H    0.167361
 Sum of Mulliken atomic charges =  -0.00000

 Dipole moment (field-independent basis, Debye):
    X=            -15.6531    Y=             -0.0764    Z=             -0.0019  Tot=             15.6533
 Quadrupole moment (field-independent basis, Debye-Ang):
   XX=           -114.9263   YY=            -86.7920   ZZ=            -93.6672
   XY=              0.6592   XZ=             -0.0063   YZ=             -0.0001

 Summary of Natural Population Analysis:

                                       Natural Population
                Natural  -----------------------------------------------
    Atom  No    Charge         Core      Valence    Rydberg      Total
 -----------------------------------------------------------------------
     Br    1   -0.65728     27.99973     7.64711    0.01044    35.65728
     Mg    2    0.61804      9.99840     1.35425    0.02931    11.38196
      C    3   -0.33821      1.99930     4.30498    0.03394     6.33821
      C    4   -0.23604      1.99917     4.22057    0.01630     6.23604
      C    5   -0.18269      1.99904     4.17088    0.01277     6.18269
      C    6    0.14877      1.99900     3.83391    0.01831     5.85123
      C    7   -0.24174      1.99905     4.22956    0.01313     6.24174
      C    8   -0.16981      1.99917     4.15485    0.01579     6.16981
      C    9   -0.08957      1.99911     4.07815    0.01232     6.08957
      C   10   -0.66567      1.99936     4.65631    0.01000     6.66567
      C   11   -0.68388      1.99940     4.67378    0.01070     6.68388
      C   12   -0.66567      1.99936     4.65631    0.01000     6.66567
      H   13    0.24209      0.00000     0.75547    0.00243     0.75791
      H   14    0.24247      0.00000     0.75629    0.00124     0.75753
      H   15    0.24915      0.00000     0.74964    0.00120     0.75085
      H   16    0.23984      0.00000     0.75761    0.00255     0.76016
      H   17    0.24465      0.00000     0.75453    0.00082     0.75535
      H   18    0.23738      0.00000     0.76185    0.00077     0.76262
      H   19    0.24854      0.00000     0.75073    0.00073     0.75146
      H   20    0.24030      0.00000     0.75887    0.00083     0.75970
      H   21    0.24844      0.00000     0.75083    0.00073     0.75156
      H   22    0.24030      0.00000     0.75887    0.00083     0.75970
      H   23    0.23738      0.00000     0.76185    0.00077     0.76262
      H   24    0.24464      0.00000     0.75454    0.00082     0.75536
      H   25    0.24854      0.00000     0.75073    0.00073     0.75146
 =======================================================================
   * Total *   -0.00004     57.99009    61.80247    0.20748   120.00004

 Normal termination of Gaussian 09 at Sun Oct  3 17:00:38 2021.
