 Gaussian 09, Revision A.02,

 -----------------------------------
 #p opt b3lyp/6-31G* scf=(xqc,tight)
 -----------------------------------

 -----------------------------------------
 Cc1cccc(c1)[Zn](C)(C)(C)([Li])[Li]_conf_0
 -----------------------------------------
 Symbolic Z-matrix:
 Charge =  0 Multiplicity = 1

 SCF Done:  E(RB3LYP) =  -2184.68423145     A.U. after   19 cycles
 SCF Done:  E(RB3LYP) =  -2184.71322291     A.U. after   14 cycles
 SCF Done:  E(RB3LYP) =  -2184.75067183     A.U. after   14 cycles
 SCF Done:  E(RB3LYP) =  -2184.76588130     A.U. after   13 cycles
 SCF Done:  E(RB3LYP) =  -2184.80471817     A.U. after   13 cycles
 SCF Done:  E(RB3LYP) =  -2184.83975947     A.U. after   13 cycles
 SCF Done:  E(RB3LYP) =  -2184.86786317     A.U. after   12 cycles
 SCF Done:  E(RB3LYP) =  -2184.88573932     A.U. after   12 cycles
 SCF Done:  E(RB3LYP) =  -2184.89057671     A.U. after   11 cycles
 SCF Done:  E(RB3LYP) =  -2184.89468170     A.U. after   12 cycles
 SCF Done:  E(RB3LYP) =  -2184.90860408     A.U. after    8 cycles
 SCF Done:  E(RB3LYP) =  -2184.90860579     A.U. after    8 cycles
 SCF Done:  E(RB3LYP) =  -2184.90860665     A.U. after    8 cycles
 SCF Done:  E(RB3LYP) =  -2184.90860703     A.U. after    8 cycles
 SCF Done:  E(RB3LYP) =  -2184.90860734     A.U. after    7 cycles
 SCF Done:  E(RB3LYP) =  -2184.90860761     A.U. after    7 cycles
 SCF Done:  E(RB3LYP) =  -2184.90860775     A.U. after    7 cycles
 SCF Done:  E(RB3LYP) =  -2184.90860781     A.U. after    7 cycles
 Optimization completed.
    -- Stationary point found.
 Normal termination of Gaussian 09 at Sun Oct  3 18:49:47 2021.

 ----------------------------------------------------------------------
 #p freq b3lyp/6-31G* volume NMR pop=NPA density=current Geom=AllCheck
 Guess=Read
 ----------------------------------------------------------------------

 Cc1cccc(c1)[Zn](C)(C)(C)([Li])[Li]_conf_0
 -----------------------------------------
 Redundant internal coordinates taken from checkpoint file:
 C10H16Li2Zn_6c7c_conf_0.chk
 Charge =  0 Multiplicity = 1

 SCF Done:  E(RB3LYP) =  -2184.90860781     A.U. after    1 cycles

  1  C    Isotropic =   164.3146   Anisotropy =    35.6026

  2  C    Isotropic =    45.6774   Anisotropy =   184.0525

  3  C    Isotropic =    66.4965   Anisotropy =   142.5421

  4  C    Isotropic =    66.4028   Anisotropy =   164.8814

  5  C    Isotropic =    68.1415   Anisotropy =   164.7042

  6  C    Isotropic =    69.7685   Anisotropy =   146.0067

  7  C    Isotropic =    29.4483   Anisotropy =   251.0968

  8  Zn   Isotropic =  1670.5815   Anisotropy =   487.6718

  9  C    Isotropic =   198.8652   Anisotropy =     8.8927

 10  C    Isotropic =   198.9647   Anisotropy =     8.9483

 11  C    Isotropic =   195.4247   Anisotropy =     6.0423

 12  Li   Isotropic =    89.3123   Anisotropy =     5.0841

 13  Li   Isotropic =    89.3009   Anisotropy =     5.0991

 14  H    Isotropic =    30.1805   Anisotropy =     8.6179

 15  H    Isotropic =    29.4479   Anisotropy =     4.7463

 16  H    Isotropic =    29.4535   Anisotropy =     4.7087

 17  H    Isotropic =    25.0523   Anisotropy =     7.2951

 18  H    Isotropic =    24.9636   Anisotropy =     4.3044

 19  H    Isotropic =    25.1495   Anisotropy =     5.8124

 20  H    Isotropic =    23.9417   Anisotropy =    10.1294

 21  H    Isotropic =    31.9347   Anisotropy =    12.0998

 22  H    Isotropic =    34.1973   Anisotropy =     8.3281

 23  H    Isotropic =    32.2682   Anisotropy =    12.1354

 24  H    Isotropic =    31.9265   Anisotropy =    12.1032

 25  H    Isotropic =    32.2860   Anisotropy =    12.1189

 26  H    Isotropic =    34.1958   Anisotropy =     8.3392

 27  H    Isotropic =    32.8758   Anisotropy =     7.3047

 28  H    Isotropic =    33.9286   Anisotropy =     9.4325

 29  H    Isotropic =    33.9393   Anisotropy =     9.3827

  Exact polarizability: 174.799   0.110 155.198   0.044  -0.001 113.957
 Approx polarizability: 246.394   6.000 241.496   0.063  -0.034 162.847

                     1                      2                      3
                     A                      A                      A
 Frequencies --    28.3018                57.6237                69.2724
 Red. masses --     3.4479                 2.5018                 1.4789
 Frc consts  --     0.0016                 0.0049                 0.0042
 IR Inten    --     0.0905                 0.1428                 0.4604

                     4                      5                      6
                     A                      A                      A
 Frequencies --    81.2858                85.5425               108.5894
 Red. masses --     2.5948                 1.4966                 3.1126
 Frc consts  --     0.0101                 0.0065                 0.0216
 IR Inten    --    11.3256                 0.2814                 4.2326

                     7                      8                      9
                     A                      A                      A
 Frequencies --   113.4602               117.0801               127.2337
 Red. masses --     1.0884                 4.4533                 1.7235
 Frc consts  --     0.0083                 0.0360                 0.0164
 IR Inten    --     0.1465                 2.1698                 0.6934

                    10                     11                     12
                     A                      A                      A
 Frequencies --   144.7707               150.2801               165.4548
 Red. masses --     1.2987                 3.6635                 2.4781
 Frc consts  --     0.0160                 0.0487                 0.0400
 IR Inten    --     0.4177                 5.3362                 1.5657

                    13                     14                     15
                     A                      A                      A
 Frequencies --   171.6377               194.3854               203.3080
 Red. masses --     2.1008                 4.0063                 3.8319
 Frc consts  --     0.0365                 0.0892                 0.0933
 IR Inten    --     5.1699                 7.7682                 9.5525

                    16                     17                     18
                     A                      A                      A
 Frequencies --   254.2162               272.6311               350.1201
 Red. masses --     3.4317                 4.1002                 1.6007
 Frc consts  --     0.1307                 0.1796                 0.1156
 IR Inten    --    25.1664                81.1699                 3.6818

                    19                     20                     21
                     A                      A                      A
 Frequencies --   380.8382               387.8146               445.4030
 Red. masses --     5.4682                 2.7433                 3.3203
 Frc consts  --     0.4673                 0.2431                 0.3881
 IR Inten    --     5.7822                 0.9400                 0.2677

                    22                     23                     24
                     A                      A                      A
 Frequencies --   446.9408               463.4955               471.9538
 Red. masses --     4.1192                 2.7926                 4.3332
 Frc consts  --     0.4848                 0.3535                 0.5687
 IR Inten    --    42.4189                96.4470                72.0732

                    25                     26                     27
                     A                      A                      A
 Frequencies --   495.0917               508.0142               527.5171
 Red. masses --     4.9975                 3.2019                 1.4913
 Frc consts  --     0.7217                 0.4869                 0.2445
 IR Inten    --    23.4392                 0.0025               115.7439

                    28                     29                     30
                     A                      A                      A
 Frequencies --   535.3969               539.2631               616.8859
 Red. masses --     5.0275                 5.3180                 1.2195
 Frc consts  --     0.8491                 0.9112                 0.2734
 IR Inten    --    37.3533                 6.8301                16.0977

                    31                     32                     33
                     A                      A                      A
 Frequencies --   646.5635               667.2509               673.0590
 Red. masses --     6.6507                 1.3018                 1.2540
 Frc consts  --     1.6381                 0.3415                 0.3347
 IR Inten    --     1.8452                50.6995                12.2292

                    34                     35                     36
                     A                      A                      A
 Frequencies --   724.3390               750.3414               773.2231
 Red. masses --     1.2881                 2.6973                 1.3633
 Frc consts  --     0.3982                 0.8947                 0.4802
 IR Inten    --   110.7652                 0.6409                30.8549

                    37                     38                     39
                     A                      A                      A
 Frequencies --   805.4246               908.3416               963.6020
 Red. masses --     4.8651                 1.2677                 1.3322
 Frc consts  --     1.8595                 0.6162                 0.7288
 IR Inten    --     5.9448                 0.1861                 0.3408

                    40                     41                     42
                     A                      A                      A
 Frequencies --  1003.0167              1008.2820              1027.0543
 Red. masses --     1.2599                 1.6603                 5.1044
 Frc consts  --     0.7468                 0.9945                 3.1724
 IR Inten    --     0.4045                 3.1828                 4.0528

                    43                     44                     45
                     A                      A                      A
 Frequencies --  1076.2563              1077.6048              1134.0029
 Red. masses --     1.5451                 2.7104                 1.6177
 Frc consts  --     1.0545                 1.8544                 1.2256
 IR Inten    --     5.3143                 0.3744                 9.3571

                    46                     47                     48
                     A                      A                      A
 Frequencies --  1195.2408              1225.7437              1245.8654
 Red. masses --     1.1311                 2.4631                 1.1773
 Frc consts  --     0.9520                 2.1804                 1.0766
 IR Inten    --     0.4556                 1.6809                20.1444

                    49                     50                     51
                     A                      A                      A
 Frequencies --  1277.5757              1280.7425              1283.9263
 Red. masses --     1.1933                 2.6468                 1.2266
 Frc consts  --     1.1475                 2.5580                 1.1913
 IR Inten    --    17.3055                11.3262                 2.4720

                    52                     53                     54
                     A                      A                      A
 Frequencies --  1335.1961              1440.9957              1467.2690
 Red. masses --     2.1457                 1.2465                 1.8562
 Frc consts  --     2.2538                 1.5250                 2.3544
 IR Inten    --     1.3577                 1.8136                 7.2836

                    55                     56                     57
                     A                      A                      A
 Frequencies --  1477.6939              1480.0837              1487.1901
 Red. masses --     1.0605                 1.0614                 1.1701
 Frc consts  --     1.3643                 1.3699                 1.5248
 IR Inten    --     2.0994                 1.4615                 5.3399

                    58                     59                     60
                     A                      A                      A
 Frequencies --  1493.1485              1496.4493              1506.4499
 Red. masses --     1.8102                 1.0663                 1.0544
 Frc consts  --     2.3779                 1.4069                 1.4098
 IR Inten    --     4.5068                 0.3075                 0.4887

                    61                     62                     63
                     A                      A                      A
 Frequencies --  1510.6907              1518.5439              1530.1753
 Red. masses --     1.0516                 1.0447                 1.0964
 Frc consts  --     1.4140                 1.4193                 1.5125
 IR Inten    --     2.5374                 6.2215                17.8501

                    64                     65                     66
                     A                      A                      A
 Frequencies --  1611.0218              1634.3220              2909.6918
 Red. masses --     4.4891                 4.7573                 1.0485
 Frc consts  --     6.8646                 7.4866                 5.2303
 IR Inten    --     1.4364                 5.6679                53.7881

                    67                     68                     69
                     A                      A                      A
 Frequencies --  2933.2117              2935.6670              2942.1484
 Red. masses --     1.0641                 1.0624                 1.0907
 Frc consts  --     5.3942                 5.3946                 5.5628
 IR Inten    --    67.1227                48.7510               131.8566

                    70                     71                     72
                     A                      A                      A
 Frequencies --  3030.0058              3042.5698              3047.0306
 Red. masses --     1.0387                 1.0869                 1.0845
 Frc consts  --     5.6183                 5.9280                 5.9323
 IR Inten    --    17.1604                30.3256                20.2924

                    73                     74                     75
                     A                      A                      A
 Frequencies --  3054.2336              3054.7223              3079.5038
 Red. masses --     1.0677                 1.0677                 1.1008
 Frc consts  --     5.8682                 5.8701                 6.1508
 IR Inten    --     2.6164                57.8180                14.3624

                    76                     77                     78
                     A                      A                      A
 Frequencies --  3097.1188              3097.8228              3113.2898
 Red. masses --     1.0992                 1.0991                 1.0986
 Frc consts  --     6.2120                 6.2145                 6.2737
 IR Inten    --    10.5764                39.0379                25.8837

                    79                     80                     81
                     A                      A                      A
 Frequencies --  3165.8199              3179.0878              3199.8175
 Red. masses --     1.0873                 1.0894                 1.0966
 Frc consts  --     6.4204                 6.4868                 6.6150
 IR Inten    --    14.7600                22.6788                39.7985

 - Thermochemistry -
 -------------------
 Temperature   298.150 Kelvin.  Pressure   1.00000 Atm.
 Atom     1 has atomic number  6 and mass  12.00000

 Molecular mass:   214.08635 amu.
 Principal axes and moments of inertia in atomic units:
                           1         2         3
     Eigenvalues --  1719.627873362.052754027.24253
           X            0.99972  -0.02358   0.00008
           Y            0.02358   0.99972   0.00010
           Z           -0.00009  -0.00010   1.00000
 This molecule is an asymmetric top.
 Rotational symmetry number  1.
 Warning -- assumption of classical behavior for rotation
           may cause significant error
 Rotational temperatures (Kelvin)      0.05037     0.02576     0.02151
 Rotational constants (GHZ):           1.04950     0.53680     0.44813
 Zero-point vibrational energy     592942.4 (Joules/Mol)
                                  141.71664 (Kcal/Mol)
 Warning -- explicit consideration of  30 degrees of freedom as
           vibrations may cause significant error
 Vibrational temperatures:     40.72    82.91    99.67   116.95   123.08
          (Kelvin)            156.24   163.24   168.45   183.06   208.29
                              216.22   238.05   246.95   279.68   292.51
                              365.76   392.25   503.74   547.94   557.98
                              640.83   643.05   666.87   679.04   712.33
                              730.92   758.98   770.32   775.88   887.56
                              930.26   960.02   968.38  1042.16  1079.57
                             1112.49  1158.82  1306.90  1386.41  1443.12
                             1450.69  1477.70  1548.49  1550.43  1631.58
                             1719.68  1763.57  1792.52  1838.14  1842.70
                             1847.28  1921.05  2073.27  2111.07  2126.07
                             2129.51  2139.73  2148.31  2153.05  2167.44
                             2173.54  2184.84  2201.58  2317.90  2351.42
                             4186.39  4220.23  4223.76  4233.09  4359.50
                             4377.57  4383.99  4394.36  4395.06  4430.71
                             4456.06  4457.07  4479.32  4554.90  4573.99
                             4603.82

 Zero-point correction=                           0.225840 (Hartree/Particle)
 Thermal correction to Energy=                    0.244514
 Thermal correction to Enthalpy=                  0.245458
 Thermal correction to Gibbs Free Energy=         0.179327
 Sum of electronic and zero-point Energies=          -2184.682768
 Sum of electronic and thermal Energies=             -2184.664094
 Sum of electronic and thermal Enthalpies=           -2184.663150
 Sum of electronic and thermal Free Energies=        -2184.729281

                     E (Thermal)             CV                S
                      KCal/Mol        Cal/Mol-Kelvin    Cal/Mol-Kelvin
 Total                  153.435             65.812            139.184
 Electronic               0.000              0.000              0.000
 Translational            0.889              2.981             41.987
 Rotational               0.889              2.981             31.521
 Vibrational            151.657             59.850             65.676
 Vibration     1          0.593              1.984              5.945
 Vibration     2          0.596              1.974              4.537
 Vibration     3          0.598              1.969              4.174
 Vibration     4          0.600              1.962              3.860
 Vibration     5          0.601              1.959              3.760
 Vibration     6          0.606              1.942              3.294
 Vibration     7          0.607              1.938              3.209
 Vibration     8          0.608              1.935              3.148
 Vibration     9          0.611              1.926              2.987
 Vibration    10          0.616              1.908              2.740
 Vibration    11          0.618              1.902              2.669
 Vibration    12          0.624              1.885              2.486
 Vibration    13          0.626              1.877              2.417
 Vibration    14          0.635              1.848              2.186
 Vibration    15          0.639              1.835              2.103
 Vibration    16          0.665              1.756              1.701
 Vibration    17          0.676              1.724              1.579
 Vibration    18          0.727              1.575              1.166
 Vibration    19          0.751              1.511              1.036
 Vibration    20          0.756              1.496              1.009
 Vibration    21          0.805              1.371              0.810
 Vibration    22          0.806              1.368              0.805
 Vibration    23          0.821              1.331              0.756
 Vibration    24          0.829              1.312              0.732
 Vibration    25          0.851              1.261              0.671
 Vibration    26          0.863              1.232              0.638
 Vibration    27          0.882              1.189              0.593
 Vibration    28          0.890              1.172              0.575
 Vibration    29          0.894              1.163              0.567
 Vibration    30          0.977              0.996              0.422

 Normal termination of Gaussian 09 at Sun Oct  3 20:48:00 2021.
 Gaussian 09:  AM64L-G09RevA.02 11-Jun-2009

 ----------------------------------------------------------------------
 #p TD(NStates=10, Root=1) b3lyp/6-31G* volume pop=NPA density=current
 Geom=AllCheck Guess=Read
 ----------------------------------------------------------------------

 Cc1cccc(c1)[Zn](C)(C)(C)([Li])[Li]_conf_0
 -----------------------------------------
 Redundant internal coordinates taken from checkpoint file:
 C10H16Li2Zn_6c7c_conf_0.chk
 Charge =  0 Multiplicity = 1

                         Standard orientation:
 ---------------------------------------------------------------------
 Center     Atomic      Atomic             Coordinates (Angstroms)
 Number     Number       Type             X           Y           Z
 ---------------------------------------------------------------------
      1          6           0        0.999515   -2.347787   -0.000838
      2          6           0        1.601457   -0.956639   -0.001238
      3          6           0        2.992092   -0.824533    0.000159
      4          6           0        3.606692    0.433662    0.000102
      5          6           0        2.815265    1.573340   -0.001482
      6          6           0        1.416580    1.430993   -0.002899
      7          6           0        0.746951    0.185466   -0.002711
      8         30           0       -1.377215   -0.454874    0.001914
      9          6           0       -2.023386   -0.578923   -1.900779
     10          6           0       -2.013710   -0.565350    1.909237
     11          6           0       -1.822848    2.528194   -0.006187
     12          3           0       -0.697723    1.326740    1.323598
     13          3           0       -0.699985    1.319804   -1.330371
     14          1           0        1.769112   -3.126911   -0.001769
     15          1           0        0.369189   -2.512049   -0.885199
     16          1           0        0.371227   -2.512400    0.884972
     17          1           0        3.613466   -1.718435    0.001295
     18          1           0        4.691030    0.510754    0.001214
     19          1           0        3.266188    2.563157   -0.001732
     20          1           0        0.835193    2.362830   -0.004514
     21          1           0       -2.101405   -1.637762   -2.181663
     22          1           0       -1.391086   -0.153500   -2.706570
     23          1           0       -3.025009   -0.148607   -2.026901
     24          1           0       -2.104256   -1.622730    2.191785
     25          1           0       -3.008951   -0.122119    2.041697
     26          1           0       -1.369536   -0.147968    2.709711
     27          1           0       -2.888894    2.252447   -0.013290
     28          1           0       -1.708600    3.227524   -0.861956
     29          1           0       -1.719737    3.221836    0.855635
 ---------------------------------------------------------------------

 SCF Done:  E(RB3LYP) =  -2184.90860781     A.U. after    1 cycles

 Excitation energies and oscillator strengths:

 Excited State   1:      Singlet-A      4.2969 eV  288.55 nm  f=0.0020  <S**2>=0.000
      56 -> 57         0.70192
 This state for optimization and/or second-order correction.
 Total Energy, E(TD-HF/TD-KS) =  -2184.75070064
 Copying the excited state density for this state as the 1-particle RhoCI density.

 Excited State   2:      Singlet-A      4.4464 eV  278.84 nm  f=0.0005  <S**2>=0.000
      55 -> 58         0.54711
      55 -> 59        -0.14664
      55 -> 60         0.12428
      56 -> 58        -0.38723

 Excited State   3:      Singlet-A      4.5312 eV  273.62 nm  f=0.0008  <S**2>=0.000
      55 -> 57         0.70089

 Excited State   4:      Singlet-A      4.5395 eV  273.12 nm  f=0.0000  <S**2>=0.000
      55 -> 58         0.37835
      56 -> 58         0.56548
      56 -> 59        -0.10995

 Excited State   5:      Singlet-A      4.5712 eV  271.23 nm  f=0.0121  <S**2>=0.000
      55 -> 58         0.16516
      55 -> 59         0.65692
      56 -> 59        -0.17369

 Excited State   6:      Singlet-A      4.6947 eV  264.09 nm  f=0.0012  <S**2>=0.000
      55 -> 59         0.17817
      56 -> 58         0.13272
      56 -> 59         0.66881

 Excited State   7:      Singlet-A      5.0070 eV  247.62 nm  f=0.0336  <S**2>=0.000
      54 -> 57         0.63822
      55 -> 60         0.28400

 Excited State   8:      Singlet-A      5.1012 eV  243.05 nm  f=0.0009  <S**2>=0.000
      55 -> 60        -0.15152
      56 -> 60         0.67394

 Excited State   9:      Singlet-A      5.1193 eV  242.19 nm  f=0.0087  <S**2>=0.000
      52 -> 58        -0.15765
      52 -> 59        -0.13924
      53 -> 59        -0.30511
      54 -> 58         0.54910
      54 -> 59        -0.19875

 Excited State  10:      Singlet-A      5.1944 eV  238.69 nm  f=0.0011  <S**2>=0.000
      54 -> 57        -0.27804
      55 -> 58        -0.13296
      55 -> 60         0.60191
      56 -> 60         0.18046

 The electronic state is 1-A.
 Alpha  occ. eigenvalues -- -347.23847 -42.20963 -37.19512 -37.19257 -37.19169
 Alpha  occ. eigenvalues --  -10.19431 -10.19147 -10.19037 -10.18979 -10.18641
 Alpha  occ. eigenvalues --  -10.18072 -10.16155 -10.14451 -10.14448 -10.12023
 Alpha  occ. eigenvalues --   -4.78034  -3.17489  -3.16852  -3.16678  -1.97123
 Alpha  occ. eigenvalues --   -1.97068  -0.84661  -0.76631  -0.73559  -0.67902
 Alpha  occ. eigenvalues --   -0.66006  -0.65415  -0.63576  -0.59357  -0.57670
 Alpha  occ. eigenvalues --   -0.49948  -0.45628  -0.44626  -0.43889  -0.43863
 Alpha  occ. eigenvalues --   -0.43619  -0.43324  -0.42983  -0.41592  -0.40877
 Alpha  occ. eigenvalues --   -0.39327  -0.37831  -0.37321  -0.36628  -0.36351
 Alpha  occ. eigenvalues --   -0.36224  -0.35537  -0.35339  -0.35078  -0.33220
 Alpha  occ. eigenvalues --   -0.31678  -0.25809  -0.24268  -0.22961  -0.21330
 Alpha  occ. eigenvalues --   -0.20881
 Alpha virt. eigenvalues --   -0.01839  -0.01326  -0.00950   0.00657   0.02054
 Alpha virt. eigenvalues --    0.03376   0.05225   0.05506   0.06415   0.07672
 Alpha virt. eigenvalues --    0.09343   0.09509   0.10412   0.11083   0.11941

 Mulliken atomic charges:
              1
     1  C   -0.589727
     2  C    0.107566
     3  C   -0.150242
     4  C   -0.130517
     5  C   -0.106489
     6  C   -0.166181
     7  C   -0.187443
     8  Zn   0.797527
     9  C   -0.749152
    10  C   -0.750211
    11  C   -0.645368
    12  Li  -0.258434
    13  Li  -0.258781
    14  H    0.161442
    15  H    0.197380
    16  H    0.197166
    17  H    0.127846
    18  H    0.138119
    19  H    0.139416
    20  H    0.176393
    21  H    0.180537
    22  H    0.201949
    23  H    0.173511
    24  H    0.180907
    25  H    0.174047
    26  H    0.202076
    27  H    0.267781
    28  H    0.284558
    29  H    0.284324
 Sum of Mulliken atomic charges =  -0.00000

 Dipole moment (field-independent basis, Debye):
    X=             -0.3066    Y=              0.1560    Z=              0.0514  Tot=              0.3478
 Quadrupole moment (field-independent basis, Debye-Ang):
   XX=            -82.4217   YY=            -82.6186   ZZ=           -109.9036
   XY=             -7.5753   XZ=             -0.0355   YZ=              0.0135

 Summary of Natural Population Analysis:

                                       Natural Population
                Natural  -----------------------------------------------
    Atom  No    Charge         Core      Valence    Rydberg      Total
 -----------------------------------------------------------------------
      C    1   -0.69841      1.99940     4.68937    0.00964     6.69841
      C    2   -0.01694      1.99898     4.00084    0.01712     6.01694
      C    3   -0.21702      1.99900     4.20523    0.01279     6.21702
      C    4   -0.21548      1.99907     4.20242    0.01399     6.21548
      C    5   -0.21627      1.99904     4.20173    0.01550     6.21627
      C    6   -0.29235      1.99910     4.27518    0.01807     6.29235
      C    7   -0.52044      1.99905     4.48947    0.03192     6.52044
     Zn    8    1.08708     17.99013    10.91417    0.00863    28.91292
      C    9   -1.27656      1.99949     5.25580    0.02127     7.27656
      C   10   -1.27737      1.99949     5.25657    0.02130     7.27737
      C   11   -0.73200      1.99905     4.72518    0.00778     6.73200
     Li   12    0.23938      1.98849     0.75797    0.01416     2.76062
     Li   13    0.23546      1.98849     0.76187    0.01418     2.76454
      H   14    0.24613      0.00000     0.75300    0.00088     0.75387
      H   15    0.24322      0.00000     0.75539    0.00139     0.75678
      H   16    0.24303      0.00000     0.75558    0.00139     0.75697
      H   17    0.23536      0.00000     0.76341    0.00123     0.76464
      H   18    0.24079      0.00000     0.75836    0.00085     0.75921
      H   19    0.24307      0.00000     0.75563    0.00130     0.75693
      H   20    0.21457      0.00000     0.78399    0.00144     0.78543
      H   21    0.26258      0.00000     0.73641    0.00101     0.73742
      H   22    0.22841      0.00000     0.77021    0.00138     0.77159
      H   23    0.24311      0.00000     0.75529    0.00160     0.75689
      H   24    0.26301      0.00000     0.73598    0.00100     0.73699
      H   25    0.24328      0.00000     0.75513    0.00159     0.75672
      H   26    0.22874      0.00000     0.76988    0.00138     0.77126
      H   27    0.25414      0.00000     0.74586    0.00000     0.74586
      H   28    0.25445      0.00000     0.74555    0.00000     0.74555
      H   29    0.25394      0.00000     0.74606    0.00000     0.74606
 =======================================================================
   * Total *   -0.00309     41.95877    69.82153    0.22279   112.00309

 Normal termination of Gaussian 09 at Mon Oct  4 02:27:42 2021.
