 Gaussian 09, Revision A.02,

 -----------------------------------
 #p opt b3lyp/6-31G* scf=(xqc,tight)
 -----------------------------------

 -----------------------------------------
 Cc1ccc(cc1)[Zn](C)(C)(C)([Li])[Li]_conf_0
 -----------------------------------------
 Symbolic Z-matrix:
 Charge =  0 Multiplicity = 1

 SCF Done:  E(RB3LYP) =  -2184.68406915     A.U. after   18 cycles
 SCF Done:  E(RB3LYP) =  -2184.71256527     A.U. after   14 cycles
 SCF Done:  E(RB3LYP) =  -2184.74998422     A.U. after   14 cycles
 SCF Done:  E(RB3LYP) =  -2184.76587156     A.U. after   13 cycles
 SCF Done:  E(RB3LYP) =  -2184.80380855     A.U. after   13 cycles
 SCF Done:  E(RB3LYP) =  -2184.83454316     A.U. after   13 cycles
 SCF Done:  E(RB3LYP) =  -2184.86158854     A.U. after   12 cycles
 SCF Done:  E(RB3LYP) =  -2184.88037815     A.U. after   12 cycles
 SCF Done:  E(RB3LYP) =  -2184.88535885     A.U. after   11 cycles
 SCF Done:  E(RB3LYP) =  -2184.88924289     A.U. after   11 cycles
 SCF Done:  E(RB3LYP) =  -2184.90860786     A.U. after    7 cycles
 SCF Done:  E(RB3LYP) =  -2184.90860804     A.U. after    7 cycles
 SCF Done:  E(RB3LYP) =  -2184.90860810     A.U. after    7 cycles
 SCF Done:  E(RB3LYP) =  -2184.90860814     A.U. after   15 cycles
 SCF Done:  E(RB3LYP) =  -2184.90860819     A.U. after    7 cycles
 SCF Done:  E(RB3LYP) =  -2184.90860826     A.U. after    7 cycles
 SCF Done:  E(RB3LYP) =  -2184.90860830     A.U. after    7 cycles
 SCF Done:  E(RB3LYP) =  -2184.90860833     A.U. after    7 cycles
 Optimization completed.
    -- Stationary point found.
 Normal termination of Gaussian 09 at Sun Oct  3 19:52:21 2021.

 ----------------------------------------------------------------------
 #p freq b3lyp/6-31G* volume NMR pop=NPA density=current Geom=AllCheck
 Guess=Read
 ----------------------------------------------------------------------

 Cc1ccc(cc1)[Zn](C)(C)(C)([Li])[Li]_conf_0
 -----------------------------------------
 Redundant internal coordinates taken from checkpoint file:
 C10H16Li2Zn_8616_conf_0.chk
 Charge =  0 Multiplicity = 1

 SCF Done:  E(RB3LYP) =  -2184.90860833     A.U. after    1 cycles

  1  C    Isotropic =   164.3204   Anisotropy =    35.6128

  2  C    Isotropic =    45.6835   Anisotropy =   184.0399

  3  C    Isotropic =    66.4980   Anisotropy =   142.5455

  4  C    Isotropic =    66.4012   Anisotropy =   164.8810

  5  C    Isotropic =    68.1427   Anisotropy =   164.7046

  6  C    Isotropic =    69.7680   Anisotropy =   146.0167

  7  C    Isotropic =    29.4216   Anisotropy =   251.1470

  8  Zn   Isotropic =  1671.1458   Anisotropy =   488.2214

  9  C    Isotropic =   198.9596   Anisotropy =     8.9159

 10  C    Isotropic =   198.9729   Anisotropy =     8.8966

 11  C    Isotropic =   195.4125   Anisotropy =     6.0092

 12  Li   Isotropic =    89.3110   Anisotropy =     5.1125

 13  Li   Isotropic =    89.3094   Anisotropy =     5.0916

 14  H    Isotropic =    29.4519   Anisotropy =     4.7087

 15  H    Isotropic =    29.4511   Anisotropy =     4.7441

 16  H    Isotropic =    30.1802   Anisotropy =     8.6181

 17  H    Isotropic =    25.0521   Anisotropy =     7.2946

 18  H    Isotropic =    24.9639   Anisotropy =     4.3054

 19  H    Isotropic =    25.1498   Anisotropy =     5.8131

 20  H    Isotropic =    23.9403   Anisotropy =    10.1314

 21  H    Isotropic =    31.9267   Anisotropy =    12.1109

 22  H    Isotropic =    34.1913   Anisotropy =     8.3376

 23  H    Isotropic =    32.2834   Anisotropy =    12.1177

 24  H    Isotropic =    32.2853   Anisotropy =    12.1096

 25  H    Isotropic =    34.1846   Anisotropy =     8.3408

 26  H    Isotropic =    31.9234   Anisotropy =    12.1123

 27  H    Isotropic =    32.8778   Anisotropy =     7.3032

 28  H    Isotropic =    33.9316   Anisotropy =     9.4052

 29  H    Isotropic =    33.9348   Anisotropy =     9.4032

  Exact polarizability: 174.791  -0.108 155.194  -0.019   0.008 113.961
 Approx polarizability: 246.388  -5.992 241.486  -0.021   0.018 162.839

                     1                      2                      3
                     A                      A                      A
 Frequencies --    28.3671                57.4077                69.2343
 Red. masses --     3.4763                 2.5326                 1.4567
 Frc consts  --     0.0016                 0.0049                 0.0041
 IR Inten    --     0.0963                 0.1243                 0.4533

                     4                      5                      6
                     A                      A                      A
 Frequencies --    81.3920                85.0789               108.2229
 Red. masses --     2.5131                 1.5166                 3.1432
 Frc consts  --     0.0098                 0.0065                 0.0217
 IR Inten    --    11.2239                 0.3255                 4.3373

                     7                      8                      9
                     A                      A                      A
 Frequencies --   114.1865               117.0124               127.1905
 Red. masses --     1.0900                 4.4645                 1.7073
 Frc consts  --     0.0084                 0.0360                 0.0163
 IR Inten    --     0.1443                 2.0482                 0.6679

                    10                     11                     12
                     A                      A                      A
 Frequencies --   144.5415               150.2353               165.2247
 Red. masses --     1.3000                 3.6671                 2.4852
 Frc consts  --     0.0160                 0.0488                 0.0400
 IR Inten    --     0.4008                 5.3256                 1.5926

                    13                     14                     15
                     A                      A                      A
 Frequencies --   171.5209               194.4671               203.2993
 Red. masses --     2.1052                 4.0476                 3.8303
 Frc consts  --     0.0365                 0.0902                 0.0933
 IR Inten    --     5.0555                 7.8709                 9.4553

                    16                     17                     18
                     A                      A                      A
 Frequencies --   254.2867               272.7550               350.0118
 Red. masses --     3.4344                 4.1109                 1.6005
 Frc consts  --     0.1308                 0.1802                 0.1155
 IR Inten    --    25.1956                81.4205                 3.7127

                    19                     20                     21
                     A                      A                      A
 Frequencies --   380.9354               387.7326               445.3998
 Red. masses --     5.4642                 2.7434                 3.3197
 Frc consts  --     0.4672                 0.2430                 0.3880
 IR Inten    --     5.7719                 0.9295                 0.2534

                    22                     23                     24
                     A                      A                      A
 Frequencies --   447.0102               463.5222               471.9715
 Red. masses --     4.1224                 2.7908                 4.3401
 Frc consts  --     0.4853                 0.3533                 0.5696
 IR Inten    --    42.3439                96.4365                72.3891

                    25                     26                     27
                     A                      A                      A
 Frequencies --   495.0061               507.9774               527.6018
 Red. masses --     5.0025                 3.2006                 1.4900
 Frc consts  --     0.7222                 0.4866                 0.2444
 IR Inten    --    23.2360                 0.0020               116.0504

                    28                     29                     30
                     A                      A                      A
 Frequencies --   535.3801               539.2562               616.1937
 Red. masses --     5.0333                 5.3168                 1.2200
 Frc consts  --     0.8500                 0.9109                 0.2729
 IR Inten    --    37.5567                 6.8654                16.1343

                    31                     32                     33
                     A                      A                      A
 Frequencies --   646.5370               666.5678               673.1944
 Red. masses --     6.6430                 1.3027                 1.2539
 Frc consts  --     1.6361                 0.3410                 0.3348
 IR Inten    --     1.8536                50.2923                12.1505

                    34                     35                     36
                     A                      A                      A
 Frequencies --   724.4358               750.3416               773.2219
 Red. masses --     1.2883                 2.6966                 1.3634
 Frc consts  --     0.3983                 0.8945                 0.4803
 IR Inten    --   110.9819                 0.6408                30.8671

                    37                     38                     39
                     A                      A                      A
 Frequencies --   805.4219               908.3450               963.6101
 Red. masses --     4.8649                 1.2677                 1.3322
 Frc consts  --     1.8594                 0.6162                 0.7288
 IR Inten    --     5.9534                 0.1864                 0.3413

                    40                     41                     42
                     A                      A                      A
 Frequencies --  1003.0276              1008.2404              1027.0293
 Red. masses --     1.2599                 1.6603                 5.1051
 Frc consts  --     0.7468                 0.9944                 3.1727
 IR Inten    --     0.4052                 3.1879                 4.0633

                    43                     44                     45
                     A                      A                      A
 Frequencies --  1076.2298              1077.5933              1133.9890
 Red. masses --     1.5452                 2.7103                 1.6177
 Frc consts  --     1.0545                 1.8543                 1.2256
 IR Inten    --     5.3129                 0.3741                 9.3651

                    46                     47                     48
                     A                      A                      A
 Frequencies --  1195.2365              1225.7406              1245.8104
 Red. masses --     1.1311                 2.4633                 1.1773
 Frc consts  --     0.9520                 2.1805                 1.0766
 IR Inten    --     0.4552                 1.6797                20.1707

                    49                     50                     51
                     A                      A                      A
 Frequencies --  1277.1850              1280.7135              1283.5320
 Red. masses --     1.1933                 2.5776                 1.2423
 Frc consts  --     1.1469                 2.4910                 1.2058
 IR Inten    --    17.3922                10.9310                 2.8313

                    52                     53                     54
                     A                      A                      A
 Frequencies --  1335.1931              1440.9649              1467.2700
 Red. masses --     2.1458                 1.2466                 1.8568
 Frc consts  --     2.2539                 1.5250                 2.3552
 IR Inten    --     1.3623                 1.8144                 7.2786

                    55                     56                     57
                     A                      A                      A
 Frequencies --  1478.0555              1480.3214              1487.2580
 Red. masses --     1.0606                 1.0613                 1.1725
 Frc consts  --     1.3651                 1.3702                 1.5280
 IR Inten    --     2.1171                 1.4561                 5.3636

                    58                     59                     60
                     A                      A                      A
 Frequencies --  1493.1612              1496.4576              1506.5255
 Red. masses --     1.8044                 1.0663                 1.0542
 Frc consts  --     2.3703                 1.4069                 1.4098
 IR Inten    --     4.4654                 0.3010                 0.4932

                    61                     62                     63
                     A                      A                      A
 Frequencies --  1510.7458              1518.5147              1530.1438
 Red. masses --     1.0514                 1.0446                 1.0964
 Frc consts  --     1.4139                 1.4193                 1.5125
 IR Inten    --     2.5423                 6.2186                17.8511

                    64                     65                     66
                     A                      A                      A
 Frequencies --  1611.0224              1634.3145              2909.6875
 Red. masses --     4.4892                 4.7573                 1.0485
 Frc consts  --     6.8646                 7.4866                 5.2303
 IR Inten    --     1.4373                 5.6675                53.9322

                    67                     68                     69
                     A                      A                      A
 Frequencies --  2933.7741              2936.1330              2942.1550
 Red. masses --     1.0641                 1.0623                 1.0906
 Frc consts  --     5.3964                 5.3956                 5.5621
 IR Inten    --    64.9445                47.9928               133.6236

                    70                     71                     72
                     A                      A                      A
 Frequencies --  3029.8897              3042.5723              3047.0214
 Red. masses --     1.0387                 1.0869                 1.0845
 Frc consts  --     5.6180                 5.9280                 5.9323
 IR Inten    --    17.2032                30.2597                20.3388

                    73                     74                     75
                     A                      A                      A
 Frequencies --  3054.3199              3054.8071              3079.3547
 Red. masses --     1.0678                 1.0678                 1.1008
 Frc consts  --     5.8691                 5.8709                 6.1503
 IR Inten    --     2.5867                57.9827                14.3579

                    76                     77                     78
                     A                      A                      A
 Frequencies --  3097.0152              3097.4415              3113.2475
 Red. masses --     1.0992                 1.0991                 1.0986
 Frc consts  --     6.2118                 6.2130                 6.2734
 IR Inten    --     1.2574                48.0793                25.9467

                    79                     80                     81
                     A                      A                      A
 Frequencies --  3165.8113              3179.0817              3199.8134
 Red. masses --     1.0873                 1.0894                 1.0966
 Frc consts  --     6.4203                 6.4868                 6.6150
 IR Inten    --    14.7651                22.6806                39.8066

 - Thermochemistry -
 -------------------
 Temperature   298.150 Kelvin.  Pressure   1.00000 Atm.
 Atom     1 has atomic number  6 and mass  12.00000

 Molecular mass:   214.08635 amu.
 Principal axes and moments of inertia in atomic units:
                           1         2         3
     Eigenvalues --  1719.685383362.224024027.28549
           X            0.99972   0.02361  -0.00004
           Y           -0.02361   0.99972   0.00002
           Z            0.00004  -0.00002   1.00000
 This molecule is an asymmetric top.
 Rotational symmetry number  1.
 Warning -- assumption of classical behavior for rotation
           may cause significant error
 Rotational temperatures (Kelvin)      0.05037     0.02576     0.02151
 Rotational constants (GHZ):           1.04946     0.53677     0.44813
 Zero-point vibrational energy     592932.0 (Joules/Mol)
                                  141.71416 (Kcal/Mol)
 Warning -- explicit consideration of  30 degrees of freedom as
           vibrations may cause significant error
 Vibrational temperatures:     40.81    82.60    99.61   117.10   122.41
          (Kelvin)            155.71   164.29   168.35   183.00   207.96
                              216.15   237.72   246.78   279.79   292.50
                              365.86   392.43   503.59   548.08   557.86
                              640.83   643.15   666.90   679.06   712.20
                              730.87   759.10   770.29   775.87   886.56
                              930.22   959.04   968.58  1042.30  1079.57
                             1112.49  1158.82  1306.90  1386.42  1443.13
                             1450.63  1477.66  1548.45  1550.41  1631.56
                             1719.68  1763.57  1792.44  1837.58  1842.66
                             1846.71  1921.04  2073.22  2111.07  2126.59
                             2129.85  2139.83  2148.32  2153.07  2167.55
                             2173.62  2184.80  2201.53  2317.90  2351.41
                             4186.39  4221.04  4224.44  4233.10  4359.33
                             4377.58  4383.98  4394.48  4395.18  4430.50
                             4455.91  4456.52  4479.26  4554.89  4573.98
                             4603.81

 Zero-point correction=                           0.225836 (Hartree/Particle)
 Thermal correction to Energy=                    0.244512
 Thermal correction to Enthalpy=                  0.245456
 Thermal correction to Gibbs Free Energy=         0.179318
 Sum of electronic and zero-point Energies=          -2184.682772
 Sum of electronic and thermal Energies=             -2184.664096
 Sum of electronic and thermal Enthalpies=           -2184.663152
 Sum of electronic and thermal Free Energies=        -2184.729291

                     E (Thermal)             CV                S
                      KCal/Mol        Cal/Mol-Kelvin    Cal/Mol-Kelvin
 Total                  153.433             65.815            139.200
 Electronic               0.000              0.000              0.000
 Translational            0.889              2.981             41.987
 Rotational               0.889              2.981             31.521
 Vibrational            151.656             59.854             65.692
 Vibration     1          0.593              1.984              5.940
 Vibration     2          0.596              1.975              4.544
 Vibration     3          0.598              1.969              4.175
 Vibration     4          0.600              1.962              3.857
 Vibration     5          0.601              1.960              3.770
 Vibration     6          0.606              1.943              3.301
 Vibration     7          0.607              1.938              3.196
 Vibration     8          0.608              1.935              3.149
 Vibration     9          0.611              1.926              2.988
 Vibration    10          0.616              1.909              2.743
 Vibration    11          0.618              1.902              2.669
 Vibration    12          0.624              1.885              2.489
 Vibration    13          0.626              1.878              2.419
 Vibration    14          0.635              1.848              2.185
 Vibration    15          0.639              1.835              2.103
 Vibration    16          0.665              1.756              1.701
 Vibration    17          0.676              1.724              1.579
 Vibration    18          0.727              1.575              1.166
 Vibration    19          0.751              1.511              1.035
 Vibration    20          0.756              1.496              1.009
 Vibration    21          0.805              1.371              0.810
 Vibration    22          0.806              1.367              0.805
 Vibration    23          0.821              1.331              0.756
 Vibration    24          0.829              1.312              0.732
 Vibration    25          0.851              1.261              0.671
 Vibration    26          0.863              1.232              0.638
 Vibration    27          0.883              1.189              0.593
 Vibration    28          0.890              1.172              0.575
 Vibration    29          0.894              1.163              0.567
 Vibration    30          0.976              0.998              0.423

 Normal termination of Gaussian 09 at Sun Oct  3 22:00:53 2021.
 Gaussian 09:  AM64L-G09RevA.02 11-Jun-2009

 ----------------------------------------------------------------------
 #p TD(NStates=10, Root=1) b3lyp/6-31G* volume pop=NPA density=current
 Geom=AllCheck Guess=Read
 ----------------------------------------------------------------------

 Cc1ccc(cc1)[Zn](C)(C)(C)([Li])[Li]_conf_0
 -----------------------------------------
 Redundant internal coordinates taken from checkpoint file:
 C10H16Li2Zn_8616_conf_0.chk
 Charge =  0 Multiplicity = 1

                         Standard orientation:
 ---------------------------------------------------------------------
 Center     Atomic      Atomic             Coordinates (Angstroms)
 Number     Number       Type             X           Y           Z
 ---------------------------------------------------------------------
      1          6           0       -0.999506   -2.347704   -0.001293
      2          6           0       -1.601503   -0.956578   -0.000918
      3          6           0       -2.992142   -0.824496   -0.000291
      4          6           0       -3.606736    0.433705    0.000273
      5          6           0       -2.815310    1.573389    0.000124
      6          6           0       -1.416622    1.431049   -0.000540
      7          6           0       -0.747010    0.185524   -0.001013
      8         30           0        1.377575   -0.455477    0.001043
      9          6           0        2.016405   -0.569391    1.907105
     10          6           0        2.019907   -0.573232   -1.903624
     11          6           0        1.822739    2.528272   -0.002896
     12          3           0        0.699555    1.320939   -1.328323
     13          3           0        0.698158    1.324742    1.325041
     14          1           0       -0.371390   -2.512851    0.884530
     15          1           0       -0.369009   -2.511397   -0.885666
     16          1           0       -1.769054   -3.126879   -0.002921
     17          1           0       -3.613515   -1.718399   -0.000244
     18          1           0       -4.691074    0.510801    0.000767
     19          1           0       -3.266241    2.563203    0.000442
     20          1           0       -0.835220    2.362882   -0.000908
     21          1           0        2.107039   -1.627053    2.188531
     22          1           0        1.373141   -0.152550    2.708589
     23          1           0        3.011786   -0.126309    2.038935
     24          1           0        3.013703   -0.126523   -2.035336
     25          1           0        1.376076   -0.161668   -2.707358
     26          1           0        2.115460   -1.631408   -2.181431
     27          1           0        2.888860    2.252727   -0.004963
     28          1           0        1.715727    3.225104    0.855825
     29          1           0        1.711993    3.224354   -0.861815
 ---------------------------------------------------------------------

 SCF Done:  E(RB3LYP) =  -2184.90860833     A.U. after    1 cycles

 Excitation energies and oscillator strengths:

 Excited State   1:      Singlet-A      4.2970 eV  288.54 nm  f=0.0020  <S**2>=0.000
      56 -> 57         0.70193
 This state for optimization and/or second-order correction.
 Total Energy, E(TD-HF/TD-KS) =  -2184.75069623
 Copying the excited state density for this state as the 1-particle RhoCI density.

 Excited State   2:      Singlet-A      4.4462 eV  278.85 nm  f=0.0005  <S**2>=0.000
      55 -> 58         0.54593
      55 -> 59         0.14641
      55 -> 60        -0.12409
      56 -> 58         0.38889

 Excited State   3:      Singlet-A      4.5320 eV  273.58 nm  f=0.0008  <S**2>=0.000
      55 -> 57         0.70099

 Excited State   4:      Singlet-A      4.5398 eV  273.10 nm  f=0.0000  <S**2>=0.000
      55 -> 58        -0.37989
      56 -> 58         0.56397
      56 -> 59         0.10996

 Excited State   5:      Singlet-A      4.5710 eV  271.24 nm  f=0.0121  <S**2>=0.000
      55 -> 58        -0.16545
      55 -> 59         0.65642
      56 -> 59         0.17663

 Excited State   6:      Singlet-A      4.6945 eV  264.11 nm  f=0.0012  <S**2>=0.000
      55 -> 59        -0.18092
      56 -> 58        -0.13308
      56 -> 59         0.66797

 Excited State   7:      Singlet-A      5.0088 eV  247.53 nm  f=0.0337  <S**2>=0.000
      54 -> 57         0.63755
      55 -> 60        -0.28538

 Excited State   8:      Singlet-A      5.1011 eV  243.05 nm  f=0.0009  <S**2>=0.000
      55 -> 60         0.14867
      56 -> 60         0.67444

 Excited State   9:      Singlet-A      5.1203 eV  242.14 nm  f=0.0087  <S**2>=0.000
      52 -> 58        -0.15841
      52 -> 59         0.13953
      53 -> 59         0.30561
      54 -> 58         0.54813
      54 -> 59         0.19974

 Excited State  10:      Singlet-A      5.1953 eV  238.65 nm  f=0.0011  <S**2>=0.000
      54 -> 57         0.27934
      55 -> 58         0.13278
      55 -> 60         0.60197
      56 -> 60        -0.17834

 The electronic state is 1-A.
 Alpha  occ. eigenvalues -- -347.23851 -42.20966 -37.19516 -37.19260 -37.19172
 Alpha  occ. eigenvalues --  -10.19430 -10.19145 -10.19036 -10.18978 -10.18640
 Alpha  occ. eigenvalues --  -10.18074 -10.16151 -10.14451 -10.14449 -10.12019
 Alpha  occ. eigenvalues --   -4.78038  -3.17492  -3.16855  -3.16682  -1.97120
 Alpha  occ. eigenvalues --   -1.97065  -0.84660  -0.76631  -0.73557  -0.67902
 Alpha  occ. eigenvalues --   -0.66009  -0.65418  -0.63572  -0.59355  -0.57669
 Alpha  occ. eigenvalues --   -0.49947  -0.45627  -0.44625  -0.43893  -0.43866
 Alpha  occ. eigenvalues --   -0.43623  -0.43325  -0.42986  -0.41594  -0.40877
 Alpha  occ. eigenvalues --   -0.39327  -0.37829  -0.37330  -0.36631  -0.36352
 Alpha  occ. eigenvalues --   -0.36229  -0.35534  -0.35338  -0.35075  -0.33220
 Alpha  occ. eigenvalues --   -0.31678  -0.25807  -0.24267  -0.22964  -0.21329
 Alpha  occ. eigenvalues --   -0.20877
 Alpha virt. eigenvalues --   -0.01835  -0.01323  -0.00948   0.00661   0.02050
 Alpha virt. eigenvalues --    0.03378   0.05218   0.05506   0.06415   0.07665
 Alpha virt. eigenvalues --    0.09349   0.09508   0.10410   0.11083   0.11942

 Mulliken atomic charges:
              1
     1  C   -0.589851
     2  C    0.107567
     3  C   -0.150248
     4  C   -0.130507
     5  C   -0.106499
     6  C   -0.165956
     7  C   -0.187526
     8  Zn   0.798122
     9  C   -0.750060
    10  C   -0.750176
    11  C   -0.645288
    12  Li  -0.258939
    13  Li  -0.258927
    14  H    0.197280
    15  H    0.197432
    16  H    0.161462
    17  H    0.127845
    18  H    0.138117
    19  H    0.139416
    20  H    0.176463
    21  H    0.180776
    22  H    0.202137
    23  H    0.173912
    24  H    0.173852
    25  H    0.202154
    26  H    0.180805
    27  H    0.267736
    28  H    0.284478
    29  H    0.284426
 Sum of Mulliken atomic charges =  -0.00000

 Dipole moment (field-independent basis, Debye):
    X=              0.3079    Y=              0.1519    Z=             -0.0020  Tot=              0.3433
 Quadrupole moment (field-independent basis, Debye-Ang):
   XX=            -82.4211   YY=            -82.6209   ZZ=           -109.9083
   XY=              7.5661   XZ=              0.0014   YZ=             -0.0412

 Summary of Natural Population Analysis:

                                       Natural Population
                Natural  -----------------------------------------------
    Atom  No    Charge         Core      Valence    Rydberg      Total
 -----------------------------------------------------------------------
      C    1   -0.69842      1.99940     4.68937    0.00964     6.69842
      C    2   -0.01697      1.99898     4.00087    0.01712     6.01697
      C    3   -0.21703      1.99900     4.20524    0.01279     6.21703
      C    4   -0.21548      1.99907     4.20241    0.01399     6.21548
      C    5   -0.21626      1.99904     4.20172    0.01550     6.21626
      C    6   -0.29232      1.99910     4.27515    0.01807     6.29232
      C    7   -0.52036      1.99905     4.48939    0.03192     6.52036
     Zn    8    1.08731     17.99013    10.91394    0.00862    28.91269
      C    9   -1.27732      1.99949     5.25652    0.02130     7.27732
      C   10   -1.27756      1.99949     5.25676    0.02131     7.27756
      C   11   -0.73194      1.99905     4.72512    0.00778     6.73194
     Li   12    0.23743      1.98848     0.75994    0.01414     2.76257
     Li   13    0.23697      1.98848     0.76038    0.01416     2.76303
      H   14    0.24312      0.00000     0.75549    0.00139     0.75688
      H   15    0.24313      0.00000     0.75547    0.00139     0.75687
      H   16    0.24614      0.00000     0.75298    0.00088     0.75386
      H   17    0.23537      0.00000     0.76341    0.00123     0.76463
      H   18    0.24079      0.00000     0.75836    0.00085     0.75921
      H   19    0.24307      0.00000     0.75563    0.00130     0.75693
      H   20    0.21461      0.00000     0.78396    0.00144     0.78539
      H   21    0.26292      0.00000     0.73608    0.00101     0.73708
      H   22    0.22884      0.00000     0.76978    0.00138     0.77116
      H   23    0.24324      0.00000     0.75517    0.00159     0.75676
      H   24    0.24318      0.00000     0.75523    0.00159     0.75682
      H   25    0.22897      0.00000     0.76964    0.00138     0.77103
      H   26    0.26296      0.00000     0.73604    0.00100     0.73704
      H   27    0.25411      0.00000     0.74589    0.00000     0.74589
      H   28    0.25422      0.00000     0.74578    0.00000     0.74578
      H   29    0.25415      0.00000     0.74585    0.00000     0.74585
 =======================================================================
   * Total *   -0.00310     41.95876    69.82157    0.22277   112.00310

 Normal termination of Gaussian 09 at Mon Oct  4 03:37:59 2021.
