 Gaussian 09, Revision A.02,

 -----------------------------------
 #p opt b3lyp/6-31G* scf=(xqc,tight)
 -----------------------------------

 -----------------------
 COc1cccc2c1nccc2_conf_0
 -----------------------
 Symbolic Z-matrix:
 Charge =  0 Multiplicity = 1

 SCF Done:  E(RB3LYP) =  -516.439168229     A.U. after   15 cycles
 SCF Done:  E(RB3LYP) =  -516.445840597     A.U. after   14 cycles
 SCF Done:  E(RB3LYP) =  -516.446620314     A.U. after   13 cycles
 SCF Done:  E(RB3LYP) =  -516.447202986     A.U. after   12 cycles
 SCF Done:  E(RB3LYP) =  -516.447271291     A.U. after   11 cycles
 SCF Done:  E(RB3LYP) =  -516.447298579     A.U. after   11 cycles
 SCF Done:  E(RB3LYP) =  -516.447347156     A.U. after   11 cycles
 SCF Done:  E(RB3LYP) =  -516.447401044     A.U. after   12 cycles
 SCF Done:  E(RB3LYP) =  -516.447419999     A.U. after   11 cycles
 SCF Done:  E(RB3LYP) =  -516.447468392     A.U. after   12 cycles
 SCF Done:  E(RB3LYP) =  -516.447468718     A.U. after   11 cycles
 SCF Done:  E(RB3LYP) =  -516.447472204     A.U. after   10 cycles
 SCF Done:  E(RB3LYP) =  -516.447473045     A.U. after   10 cycles
 SCF Done:  E(RB3LYP) =  -516.447473059     A.U. after    7 cycles
 SCF Done:  E(RB3LYP) =  -516.447473145     A.U. after    7 cycles
 Optimization completed.
    -- Stationary point found.
 Normal termination of Gaussian 09 at Thu Sep 30 20:21:13 2021.

 ----------------------------------------------------------------------
 #p freq b3lyp/6-31G* volume NMR pop=NPA density=current Geom=AllCheck
 Guess=Read
 ----------------------------------------------------------------------

 COc1cccc2c1nccc2_conf_0
 -----------------------
 Redundant internal coordinates taken from checkpoint file:
 C10H9NO_50f9_conf_0.chk
 Charge =  0 Multiplicity = 1

 SCF Done:  E(RB3LYP) =  -516.447473145     A.U. after    1 cycles

  1  C    Isotropic =   129.6076   Anisotropy =    74.2698

  2  O    Isotropic =   239.7043   Anisotropy =   102.8633

  3  C    Isotropic =    39.3928   Anisotropy =   124.6077

  4  C    Isotropic =    76.0059   Anisotropy =   134.8340

  5  C    Isotropic =    68.7813   Anisotropy =   162.6808

  6  C    Isotropic =    75.4334   Anisotropy =   134.4044

  7  C    Isotropic =    65.8452   Anisotropy =   191.7585

  8  C    Isotropic =    53.2287   Anisotropy =   160.4896

  9  N    Isotropic =   -48.3815   Anisotropy =   518.1649

 10  C    Isotropic =    50.4229   Anisotropy =   149.8785

 11  C    Isotropic =    75.7945   Anisotropy =   153.4856

 12  C    Isotropic =    60.4940   Anisotropy =   163.3886

 13  H    Isotropic =    28.2322   Anisotropy =     8.2858

 14  H    Isotropic =    28.4763   Anisotropy =     8.0863

 15  H    Isotropic =    26.6217   Anisotropy =     8.1086

 16  H    Isotropic =    25.0855   Anisotropy =     6.7660

 17  H    Isotropic =    24.8139   Anisotropy =     4.9337

 18  H    Isotropic =    25.0249   Anisotropy =     5.7948

 19  H    Isotropic =    23.4125   Anisotropy =     5.9020

 20  H    Isotropic =    25.0946   Anisotropy =     5.2981

 21  H    Isotropic =    24.4215   Anisotropy =     6.9536

  Exact polarizability: 147.622 -11.277 144.328   2.329   2.831  44.438
 Approx polarizability: 248.010 -23.308 251.970   9.107   8.569  69.496

                     1                      2                      3
                     A                      A                      A
 Frequencies --    48.9816               115.0188               170.6055
 Red. masses --     2.4993                 2.6670                 1.6473
 Frc consts  --     0.0035                 0.0208                 0.0282
 IR Inten    --     6.8300                 0.7801                 1.1822

                     4                      5                      6
                     A                      A                      A
 Frequencies --   177.9348               233.5835               264.7571
 Red. masses --     4.2635                 2.6106                 4.8665
 Frc consts  --     0.0795                 0.0839                 0.2010
 IR Inten    --     3.4106                 1.9770                 0.0555

                     7                      8                      9
                     A                      A                      A
 Frequencies --   349.9054               436.1722               455.1902
 Red. masses --     3.9011                 4.1422                 5.0159
 Frc consts  --     0.2814                 0.4643                 0.6123
 IR Inten    --     6.8076                 0.6265                 2.5522

                    10                     11                     12
                     A                      A                      A
 Frequencies --   483.1863               488.2251               567.0437
 Red. masses --     3.5653                 6.0626                 5.3140
 Frc consts  --     0.4904                 0.8514                 1.0067
 IR Inten    --     0.2100                 0.1731                 0.7579

                    13                     14                     15
                     A                      A                      A
 Frequencies --   573.2899               601.3932               660.2038
 Red. masses --     7.1372                 4.1074                 3.4469
 Frc consts  --     1.3821                 0.8753                 0.8852
 IR Inten    --     1.2873                 1.7315                 2.2273

                    16                     17                     18
                     A                      A                      A
 Frequencies --   702.2795               772.3155               799.8730
 Red. masses --     6.3561                 1.3440                 2.3780
 Frc consts  --     1.8470                 0.4723                 0.8964
 IR Inten    --    12.6541                15.3907                17.8766

                    19                     20                     21
                     A                      A                      A
 Frequencies --   821.4774               838.4992               886.9621
 Red. masses --     4.9105                 1.9830                 5.2994
 Frc consts  --     1.9524                 0.8214                 2.4563
 IR Inten    --     7.4430                41.3424                 6.2839

                    22                     23                     24
                     A                      A                      A
 Frequencies --   904.3735               961.5020               972.7236
 Red. masses --     1.4463                 1.3948                 1.2743
 Frc consts  --     0.6969                 0.7597                 0.7104
 IR Inten    --     1.5580                 0.3356                 0.4267

                    25                     26                     27
                     A                      A                      A
 Frequencies --   992.8868              1021.1357              1060.7652
 Red. masses --     1.3248                 6.6627                 2.8325
 Frc consts  --     0.7695                 4.0933                 1.8779
 IR Inten    --     0.9490                20.4368                 6.7479

                    28                     29                     30
                     A                      A                      A
 Frequencies --  1090.9529              1130.6621              1169.7523
 Red. masses --     2.0655                 2.4654                 1.2759
 Frc consts  --     1.4484                 1.8570                 1.0286
 IR Inten    --    19.7275                78.8448                 2.0667

                    31                     32                     33
                     A                      A                      A
 Frequencies --  1180.0378              1196.5903              1222.1061
 Red. masses --     1.2445                 1.2421                 1.5273
 Frc consts  --     1.0210                 1.0479                 1.3440
 IR Inten    --     2.3014                 1.3438                 6.7039

                    34                     35                     36
                     A                      A                      A
 Frequencies --  1250.3501              1273.3701              1314.3234
 Red. masses --     2.1893                 1.8777                 3.2107
 Frc consts  --     2.0166                 1.7938                 3.2678
 IR Inten    --     0.5662                 4.9886               174.6258

                    37                     38                     39
                     A                      A                      A
 Frequencies --  1362.6819              1397.7651              1429.7850
 Red. masses --     3.3852                 5.8106                 2.0200
 Frc consts  --     3.7035                 6.6887                 2.4330
 IR Inten    --    23.5051                25.7553                55.8076

                    40                     41                     42
                     A                      A                      A
 Frequencies --  1471.6493              1494.2429              1512.2070
 Red. masses --     1.9064                 1.5074                 1.0632
 Frc consts  --     2.4326                 1.9830                 1.4325
 IR Inten    --    10.2181                23.2285                 9.8132

                    43                     44                     45
                     A                      A                      A
 Frequencies --  1523.4382              1530.2764              1554.4926
 Red. masses --     1.7721                 1.1518                 3.7512
 Frc consts  --     2.4232                 1.5892                 5.3407
 IR Inten    --    71.3453                 3.9735                60.4194

                    46                     47                     48
                     A                      A                      A
 Frequencies --  1622.9234              1652.9863              1667.2508
 Red. masses --     6.3763                 5.2259                 6.2677
 Frc consts  --     9.8949                 8.4130                10.2650
 IR Inten    --    25.6378                21.4069                 5.8795

                    49                     50                     51
                     A                      A                      A
 Frequencies --  3055.8320              3132.1684              3160.6028
 Red. masses --     1.0347                 1.1031                 1.0892
 Frc consts  --     5.6930                 6.3759                 6.4103
 IR Inten    --    64.3400                47.6430                32.5116

                    52                     53                     54
                     A                      A                      A
 Frequencies --  3172.3319              3183.4670              3185.9663
 Red. masses --     1.1043                 1.0881                 1.0873
 Frc consts  --     6.5477                 6.4971                 6.5022
 IR Inten    --    14.2492                 4.2347                 6.4537

                    55                     56                     57
                     A                      A                      A
 Frequencies --  3201.6264              3212.5475              3218.7533
 Red. masses --     1.0933                 1.0961                 1.0937
 Frc consts  --     6.6029                 6.6647                 6.6764
 IR Inten    --    26.6522                24.8111                 9.7935

 - Thermochemistry -
 -------------------
 Temperature   298.150 Kelvin.  Pressure   1.00000 Atm.
 Atom     1 has atomic number  6 and mass  12.00000

 Molecular mass:   159.06841 amu.
 Principal axes and moments of inertia in atomic units:
                           1         2         3
     Eigenvalues --  1316.119531763.830133031.23346
           X            0.99906   0.04291  -0.00605
           Y           -0.04294   0.99907  -0.00486
           Z            0.00584   0.00511   0.99997
 This molecule is an asymmetric top.
 Rotational symmetry number  1.
 Warning -- assumption of classical behavior for rotation
           may cause significant error
 Rotational temperatures (Kelvin)      0.06581     0.04911     0.02857
 Rotational constants (GHZ):           1.37126     1.02319     0.59538
 Zero-point vibrational energy     442208.1 (Joules/Mol)
                                  105.69028 (Kcal/Mol)
 Warning -- explicit consideration of  14 degrees of freedom as
           vibrations may cause significant error
 Vibrational temperatures:     70.47   165.49   245.46   256.01   336.07
          (Kelvin)            380.93   503.44   627.55   654.92   695.20
                              702.45   815.85   824.84   865.27   949.88
                             1010.42  1111.19  1150.84  1181.92  1206.41
                             1276.14  1301.19  1383.39  1399.53  1428.54
                             1469.18  1526.20  1569.64  1626.77  1683.01
                             1697.81  1721.62  1758.34  1798.97  1832.09
                             1891.02  1960.59  2011.07  2057.14  2117.37
                             2149.88  2175.73  2191.89  2201.72  2236.57
                             2335.02  2378.28  2398.80  4396.66  4506.49
                             4547.40  4564.27  4580.29  4583.89  4606.42
                             4622.13  4631.06

 Zero-point correction=                           0.168428 (Hartree/Particle)
 Thermal correction to Energy=                    0.177919
 Thermal correction to Enthalpy=                  0.178863
 Thermal correction to Gibbs Free Energy=         0.133199
 Sum of electronic and zero-point Energies=           -516.279045
 Sum of electronic and thermal Energies=              -516.269555
 Sum of electronic and thermal Enthalpies=            -516.268610
 Sum of electronic and thermal Free Energies=         -516.314274

                     E (Thermal)             CV                S
                      KCal/Mol        Cal/Mol-Kelvin    Cal/Mol-Kelvin
 Total                  111.646             37.181             96.107
 Electronic               0.000              0.000              0.000
 Translational            0.889              2.981             41.102
 Rotational               0.889              2.981             30.332
 Vibrational            109.868             31.220             24.674
 Vibration     1          0.595              1.978              4.858
 Vibration     2          0.608              1.937              3.182
 Vibration     3          0.626              1.879              2.429
 Vibration     4          0.628              1.869              2.350
 Vibration     5          0.654              1.790              1.851
 Vibration     6          0.671              1.738              1.630
 Vibration     7          0.727              1.575              1.167
 Vibration     8          0.797              1.391              0.839
 Vibration     9          0.814              1.349              0.780
 Vibration    10          0.839              1.287              0.702
 Vibration    11          0.844              1.276              0.688
 Vibration    12          0.923              1.103              0.510
 Vibration    13          0.930              1.089              0.498
 Vibration    14          0.960              1.029              0.447

 Optimization completed.
    -- Stationary point found.
 Normal termination of Gaussian 09 at Thu Sep 30 21:03:54 2021.
 Gaussian 09:  AM64L-G09RevA.02 11-Jun-2009

 ----------------------------------------------------------------------
 #p TD(NStates=10, Root=1) b3lyp/6-31G* volume pop=NPA density=current
 Geom=AllCheck Guess=Read
 ----------------------------------------------------------------------

 COc1cccc2c1nccc2_conf_0
 -----------------------
 Redundant internal coordinates taken from checkpoint file:
 C10H9NO_50f9_conf_0.chk
 Charge =  0 Multiplicity = 1

                         Standard orientation:
 ---------------------------------------------------------------------
 Center     Atomic      Atomic             Coordinates (Angstroms)
 Number     Number       Type             X           Y           Z
 ---------------------------------------------------------------------
      1          6           0       -2.418765   -1.865820    0.385019
      2          8           0       -2.357922   -0.608923   -0.298621
      3          6           0       -1.299136    0.229077   -0.131143
      4          6           0       -1.596037    1.581627   -0.088497
      5          6           0       -0.582247    2.554435    0.025762
      6          6           0        0.741402    2.183775    0.108866
      7          6           0        1.089554    0.811447    0.058177
      8          6           0        0.071808   -0.193755   -0.074359
      9          7           0        0.372876   -1.520306   -0.170953
     10          6           0        1.638557   -1.882245   -0.126350
     11          6           0        2.717205   -0.976545    0.019250
     12          6           0        2.435660    0.364867    0.110615
     13          1           0       -3.479567   -2.130636    0.401932
     14          1           0       -2.050476   -1.773337    1.413043
     15          1           0       -1.839606   -2.631007   -0.132134
     16          1           0       -2.640171    1.872786   -0.143601
     17          1           0       -0.859329    3.604630    0.058564
     18          1           0        1.528065    2.927744    0.203498
     19          1           0        1.837870   -2.950474   -0.209573
     20          1           0        3.737548   -1.346638    0.052892
     21          1           0        3.230902    1.099282    0.216967
 ---------------------------------------------------------------------

 SCF Done:  E(RB3LYP) =  -516.447473145     A.U. after    1 cycles

 Excitation energies and oscillator strengths:

 Excited State   1:      Singlet-A      3.8556 eV  321.57 nm  f=0.0555  <S**2>=0.000
      42 -> 43         0.68783
 This state for optimization and/or second-order correction.
 Total Energy, E(TD-HF/TD-KS) =  -516.305783882
 Copying the excited state density for this state as the 1-particle RhoCI density.

 Excited State   2:      Singlet-A      4.3493 eV  285.07 nm  f=0.0037  <S**2>=0.000
      40 -> 43         0.69369

 Excited State   3:      Singlet-A      4.3935 eV  282.20 nm  f=0.0018  <S**2>=0.000
      41 -> 43         0.44139
      42 -> 44         0.54418

 Excited State   4:      Singlet-A      5.2315 eV  237.00 nm  f=0.0277  <S**2>=0.000
      40 -> 44         0.67213
      41 -> 43        -0.16118
      42 -> 44         0.12922

 Excited State   5:      Singlet-A      5.5403 eV  223.78 nm  f=0.4776  <S**2>=0.000
      39 -> 43        -0.13279
      39 -> 44        -0.24815
      40 -> 44         0.18674
      41 -> 43         0.46009
      41 -> 45         0.11911
      42 -> 44        -0.38727

 Excited State   6:      Singlet-A      5.6286 eV  220.28 nm  f=0.0171  <S**2>=0.000
      38 -> 43        -0.16442
      39 -> 43         0.61772
      41 -> 43         0.11178
      41 -> 44         0.21601

 Excited State   7:      Singlet-A      5.8209 eV  213.00 nm  f=0.0266  <S**2>=0.000
      38 -> 43         0.27820
      41 -> 44         0.27619
      42 -> 45         0.56704

 Excited State   8:      Singlet-A      6.3696 eV  194.65 nm  f=0.2027  <S**2>=0.000
      37 -> 43        -0.17552
      38 -> 43         0.39072
      41 -> 44         0.40112
      42 -> 45        -0.35651

 Excited State   9:      Singlet-A      6.4754 eV  191.47 nm  f=0.1142  <S**2>=0.000
      37 -> 43         0.21596
      38 -> 43        -0.35012
      39 -> 43        -0.24319
      40 -> 45        -0.25931
      41 -> 44         0.39248

 Excited State  10:      Singlet-A      6.5379 eV  189.64 nm  f=0.0364  <S**2>=0.000
      38 -> 43        -0.22038
      40 -> 45         0.63301
      41 -> 44         0.16796

 The electronic state is 1-A.
 Alpha  occ. eigenvalues --  -19.16426 -14.32981 -10.24651 -10.22580 -10.22498
 Alpha  occ. eigenvalues --  -10.22268 -10.20862 -10.20487 -10.19952 -10.19460
 Alpha  occ. eigenvalues --  -10.18921 -10.18573  -1.04925  -0.94080  -0.84516
 Alpha  occ. eigenvalues --   -0.80382  -0.75190  -0.74525  -0.68389  -0.64185
 Alpha  occ. eigenvalues --   -0.63004  -0.58794  -0.53309  -0.52053  -0.50881
 Alpha  occ. eigenvalues --   -0.47661  -0.45989  -0.45333  -0.44298  -0.41913
 Alpha  occ. eigenvalues --   -0.41053  -0.40412  -0.39953  -0.37761  -0.35733
 Alpha  occ. eigenvalues --   -0.35116  -0.32776  -0.30832  -0.28104  -0.25119
 Alpha  occ. eigenvalues --   -0.25002  -0.20895
 Alpha virt. eigenvalues --   -0.04817  -0.01424   0.02842   0.09397   0.09532
 Alpha virt. eigenvalues --    0.10624   0.13234   0.13518   0.15405   0.16510
 Alpha virt. eigenvalues --    0.17031   0.17359   0.18454   0.19217   0.20658

 Mulliken atomic charges:
              1
     1  C   -0.216786
     2  O   -0.454066
     3  C    0.348526
     4  C   -0.162517
     5  C   -0.140508
     6  C   -0.161320
     7  C    0.154256
     8  C    0.231950
     9  N   -0.584145
    10  C    0.017226
    11  C   -0.148062
    12  C   -0.227503
    13  H    0.165170
    14  H    0.177228
    15  H    0.214907
    16  H    0.155995
    17  H    0.143568
    18  H    0.155983
    19  H    0.111788
    20  H    0.114351
    21  H    0.103962
 Sum of Mulliken atomic charges =  -0.00000

 Dipole moment (field-independent basis, Debye):
    X=             -2.4537    Y=              1.7133    Z=              1.0152  Tot=              3.1602
 Quadrupole moment (field-independent basis, Debye-Ang):
   XX=            -62.9765   YY=            -60.1669   ZZ=            -71.8470
   XY=              3.4733   XZ=             -1.7356   YZ=             -1.1287

 Summary of Natural Population Analysis:

                                       Natural Population
                Natural  -----------------------------------------------
    Atom  No    Charge         Core      Valence    Rydberg      Total
 -----------------------------------------------------------------------
      C    1   -0.31377      1.99938     4.30120    0.01320     6.31377
      O    2   -0.42905      1.99974     6.41744    0.01187     8.42905
      C    3    0.37155      1.99872     3.60596    0.02377     5.62845
      C    4   -0.22123      1.99905     4.20743    0.01475     6.22123
      C    5   -0.26323      1.99913     4.24936    0.01474     6.26323
      C    6   -0.10702      1.99904     4.09447    0.01351     6.10702
      C    7   -0.08956      1.99902     4.07551    0.01503     6.08956
      C    8    0.13829      1.99897     3.84193    0.02080     5.86171
      N    9   -0.58266      1.99937     5.55846    0.02483     7.58266
      C   10   -0.00334      1.99925     3.97875    0.02535     6.00334
      C   11   -0.26879      1.99908     4.25487    0.01484     6.26879
      C   12   -0.32706      1.99906     4.31007    0.01792     6.32706
      H   13    0.22024      0.00000     0.77882    0.00095     0.77976
      H   14    0.22441      0.00000     0.77450    0.00109     0.77559
      H   15    0.25418      0.00000     0.74452    0.00131     0.74582
      H   16    0.25063      0.00000     0.74808    0.00129     0.74937
      H   17    0.24424      0.00000     0.75498    0.00078     0.75576
      H   18    0.24043      0.00000     0.75843    0.00114     0.75957
      H   19    0.20885      0.00000     0.79007    0.00108     0.79115
      H   20    0.23127      0.00000     0.76780    0.00094     0.76873
      H   21    0.22162      0.00000     0.77742    0.00096     0.77838
 =======================================================================
   * Total *   -0.00000     23.98980    59.79006    0.22014    84.00000

 Normal termination of Gaussian 09 at Thu Sep 30 23:50:45 2021.
