 Gaussian 09, Revision A.02,

 -----------------------------------
 #p opt b3lyp/6-31G* scf=(xqc,tight)
 -----------------------------------

 -----------------------
 Cn1cncc1c1ccccc1_conf_0
 -----------------------
 Symbolic Z-matrix:
 Charge =  0 Multiplicity = 1

 SCF Done:  E(RB3LYP) =  -496.583733453     A.U. after   15 cycles
 SCF Done:  E(RB3LYP) =  -496.585355291     A.U. after   12 cycles
 SCF Done:  E(RB3LYP) =  -496.585622240     A.U. after   11 cycles
 SCF Done:  E(RB3LYP) =  -496.585735058     A.U. after   11 cycles
 SCF Done:  E(RB3LYP) =  -496.585772161     A.U. after   11 cycles
 SCF Done:  E(RB3LYP) =  -496.585783935     A.U. after   10 cycles
 SCF Done:  E(RB3LYP) =  -496.585786908     A.U. after    8 cycles
 SCF Done:  E(RB3LYP) =  -496.585788603     A.U. after    8 cycles
 SCF Done:  E(RB3LYP) =  -496.585789188     A.U. after    8 cycles
 SCF Done:  E(RB3LYP) =  -496.585789589     A.U. after    7 cycles
 SCF Done:  E(RB3LYP) =  -496.585789784     A.U. after    7 cycles
 SCF Done:  E(RB3LYP) =  -496.585789822     A.U. after    6 cycles
 Optimization completed.
    -- Stationary point found.
 Normal termination of Gaussian 09 at Sun Oct  3 23:06:13 2021.

 ----------------------------------------------------------------------
 #p freq b3lyp/6-31G* volume NMR pop=NPA density=current Geom=AllCheck
 Guess=Read
 ----------------------------------------------------------------------

 Cn1cncc1c1ccccc1_conf_0
 -----------------------
 Redundant internal coordinates taken from checkpoint file:
 C10H10N2_7bd1_conf_0.chk
 Charge =  0 Multiplicity = 1

 SCF Done:  E(RB3LYP) =  -496.585789822     A.U. after    1 cycles

  1  C    Isotropic =   157.2401   Anisotropy =    41.2910

  2  N    Isotropic =    98.9727   Anisotropy =   115.4186

  3  C    Isotropic =    58.6662   Anisotropy =    72.7417

  4  N    Isotropic =    -9.1364   Anisotropy =   387.1993

  5  C    Isotropic =    66.0778   Anisotropy =    96.5259

  6  C    Isotropic =    62.3249   Anisotropy =   102.7882

  7  C    Isotropic =    64.7432   Anisotropy =   165.4738

  8  C    Isotropic =    69.8393   Anisotropy =   156.2806

  9  C    Isotropic =    68.5275   Anisotropy =   165.1034

 10  C    Isotropic =    69.8902   Anisotropy =   165.4604

 11  C    Isotropic =    67.3888   Anisotropy =   166.6596

 12  C    Isotropic =    66.9585   Anisotropy =   152.7665

 13  H    Isotropic =    28.7569   Anisotropy =     8.1965

 14  H    Isotropic =    28.6521   Anisotropy =     9.1989

 15  H    Isotropic =    28.8276   Anisotropy =     5.6983

 16  H    Isotropic =    25.1995   Anisotropy =     4.7988

 17  H    Isotropic =    25.2794   Anisotropy =     5.5282

 18  H    Isotropic =    25.0992   Anisotropy =     8.6636

 19  H    Isotropic =    24.9341   Anisotropy =     4.9391

 20  H    Isotropic =    25.0463   Anisotropy =     4.1116

 21  H    Isotropic =    24.9101   Anisotropy =     4.6598

 22  H    Isotropic =    24.8729   Anisotropy =     7.9637

  Exact polarizability: 168.110   2.420 112.910   2.099  -8.893  56.657
 Approx polarizability: 253.177  10.568 193.312   5.714 -19.648  90.371

                     1                      2                      3
                     A                      A                      A
 Frequencies --    56.0110               101.4367               128.4329
 Red. masses --     3.7079                 4.4724                 4.2179
 Frc consts  --     0.0069                 0.0271                 0.0410
 IR Inten    --     2.1486                 0.8165                 0.5842

                     4                      5                      6
                     A                      A                      A
 Frequencies --   161.2151               205.7423               268.4905
 Red. masses --     1.0933                 2.8733                 3.7585
 Frc consts  --     0.0167                 0.0717                 0.1596
 IR Inten    --     0.5155                 0.8329                 1.4001

                     7                      8                      9
                     A                      A                      A
 Frequencies --   323.2478               360.3780               418.7796
 Red. masses --     5.0992                 4.9563                 3.0458
 Frc consts  --     0.3139                 0.3793                 0.3147
 IR Inten    --     0.6402                 0.4555                 0.0013

                    10                     11                     12
                     A                      A                      A
 Frequencies --   453.5911               532.9342               631.4003
 Red. masses --     3.7739                 3.4358                 6.0473
 Frc consts  --     0.4575                 0.5749                 1.4204
 IR Inten    --     0.0751                 6.4769                 0.4904

                    13                     14                     15
                     A                      A                      A
 Frequencies --   656.8363               678.1718               687.7341
 Red. masses --     3.7277                 4.7556                 4.3251
 Frc consts  --     0.9475                 1.2887                 1.2053
 IR Inten    --    15.0759                 5.3924                 5.4822

                    16                     17                     18
                     A                      A                      A
 Frequencies --   712.3905               722.3056               777.9333
 Red. masses --     2.2896                 3.6301                 1.7957
 Frc consts  --     0.6846                 1.1159                 0.6403
 IR Inten    --    18.5531                 5.2213                28.5907

                    19                     20                     21
                     A                      A                      A
 Frequencies --   796.1435               843.7573               860.5503
 Red. masses --     1.4003                 1.4193                 1.2453
 Frc consts  --     0.5229                 0.5953                 0.5433
 IR Inten    --    18.8789                 8.3847                 0.0570

                    22                     23                     24
                     A                      A                      A
 Frequencies --   924.2552               927.6682               968.2372
 Red. masses --     4.7553                 1.4840                 1.3427
 Frc consts  --     2.3934                 0.7525                 0.7417
 IR Inten    --    20.0760                 2.4023                 0.2117

                    25                     26                     27
                     A                      A                      A
 Frequencies --   995.7104              1016.5449              1034.6875
 Red. masses --     1.2469                 6.0387                 5.6524
 Frc consts  --     0.7284                 3.6766                 3.5654
 IR Inten    --     0.2253                 0.0543                 5.1330

                    28                     29                     30
                     A                      A                      A
 Frequencies --  1068.9758              1086.5749              1111.9333
 Red. masses --     2.0138                 1.5673                 1.6081
 Frc consts  --     1.3558                 1.0902                 1.1714
 IR Inten    --     0.7881                 2.1995                 4.0451

                    31                     32                     33
                     A                      A                      A
 Frequencies --  1157.8544              1163.0371              1193.7145
 Red. masses --     1.3196                 1.8804                 1.0963
 Frc consts  --     1.0423                 1.4986                 0.9204
 IR Inten    --     3.5163                34.0933                 0.0448

                    34                     35                     36
                     A                      A                      A
 Frequencies --  1217.2532              1255.9764              1263.7488
 Red. masses --     1.1373                 3.3670                 1.5297
 Frc consts  --     0.9929                 3.1294                 1.4394
 IR Inten    --     0.2909                 1.7824                15.2496

                    37                     38                     39
                     A                      A                      A
 Frequencies --  1325.0984              1340.0103              1367.2304
 Red. masses --     3.1731                 2.9435                 1.8105
 Frc consts  --     3.2827                 3.1141                 1.9940
 IR Inten    --    10.9710                 9.5810                 0.2570

                    40                     41                     42
                     A                      A                      A
 Frequencies --  1381.1417              1419.8879              1472.1376
 Red. masses --     4.0049                 6.8151                 1.5471
 Frc consts  --     4.5011                 8.0953                 1.9754
 IR Inten    --     1.3612                 9.3897                12.9291

                    43                     44                     45
                     A                      A                      A
 Frequencies --  1487.3378              1514.9342              1529.6168
 Red. masses --     1.9658                 1.1442                 1.9039
 Frc consts  --     2.5622                 1.5472                 2.6245
 IR Inten    --     2.9518                19.9646                19.2357

                    46                     47                     48
                     A                      A                      A
 Frequencies --  1542.5846              1543.9493              1600.4674
 Red. masses --     1.2555                 2.1011                 4.6999
 Frc consts  --     1.7602                 2.9509                 7.0931
 IR Inten    --    26.6831                17.7003                16.7389

                    49                     50                     51
                     A                      A                      A
 Frequencies --  1634.3869              1664.2942              3062.9130
 Red. masses --     5.4058                 5.5729                 1.0371
 Frc consts  --     8.5078                 9.0947                 5.7323
 IR Inten    --     2.0832                18.2716                34.7306

                    52                     53                     54
                     A                      A                      A
 Frequencies --  3131.4069              3160.5132              3182.7407
 Red. masses --     1.0998                 1.1053                 1.0848
 Frc consts  --     6.3542                 6.5048                 6.4746
 IR Inten    --    16.7712                10.4436                 2.5885

                    55                     56                     57
                     A                      A                      A
 Frequencies --  3190.4159              3202.0474              3207.9866
 Red. masses --     1.0880                 1.0912                 1.0936
 Frc consts  --     6.5246                 6.5916                 6.6312
 IR Inten    --     4.8058                24.2172                32.2585

                    58                     59                     60
                     A                      A                      A
 Frequencies --  3214.0408              3254.1360              3258.6161
 Red. masses --     1.0975                 1.0940                 1.0976
 Frc consts  --     6.6799                 6.8257                 6.8669
 IR Inten    --     9.6965                 7.1913                 2.7681

 - Thermochemistry -
 -------------------
 Temperature   298.150 Kelvin.  Pressure   1.00000 Atm.
 Atom     1 has atomic number  6 and mass  12.00000

 Molecular mass:   158.08440 amu.
 Principal axes and moments of inertia in atomic units:
                           1         2         3
     Eigenvalues --   808.178732880.069593485.69506
           X            0.99983  -0.01810  -0.00351
           Y            0.01808   0.99982  -0.00485
           Z            0.00360   0.00479   0.99998
 This molecule is an asymmetric top.
 Rotational symmetry number  1.
 Warning -- assumption of classical behavior for rotation
           may cause significant error
 Rotational temperatures (Kelvin)      0.10717     0.03007     0.02485
 Rotational constants (GHZ):           2.23310     0.62663     0.51776
 Zero-point vibrational energy     475225.8 (Joules/Mol)
                                  113.58169 (Kcal/Mol)
 Warning -- explicit consideration of  11 degrees of freedom as
           vibrations may cause significant error
 Vibrational temperatures:     80.59   145.94   184.79   231.95   296.02
          (Kelvin)            386.30   465.08   518.50   602.53   652.62
                              766.77   908.44   945.04   975.74   989.49
                             1024.97  1039.24  1119.27  1145.47  1213.98
                             1238.14  1329.80  1334.71  1393.08  1432.60
                             1462.58  1488.68  1538.02  1563.34  1599.82
                             1665.89  1673.35  1717.49  1751.35  1807.07
                             1818.25  1906.52  1927.97  1967.14  1987.15
                             2042.90  2118.08  2139.94  2179.65  2200.77
                             2219.43  2221.40  2302.71  2351.52  2394.55
                             4406.84  4505.39  4547.27  4579.25  4590.29
                             4607.03  4615.57  4624.28  4681.97  4688.42

 Zero-point correction=                           0.181004 (Hartree/Particle)
 Thermal correction to Energy=                    0.190724
 Thermal correction to Enthalpy=                  0.191668
 Thermal correction to Gibbs Free Energy=         0.145363
 Sum of electronic and zero-point Energies=           -496.404786
 Sum of electronic and thermal Energies=              -496.395066
 Sum of electronic and thermal Enthalpies=            -496.394122
 Sum of electronic and thermal Free Energies=         -496.440427

                     E (Thermal)             CV                S
                      KCal/Mol        Cal/Mol-Kelvin    Cal/Mol-Kelvin
 Total                  119.681             37.751             97.457
 Electronic               0.000              0.000              0.000
 Translational            0.889              2.981             41.083
 Rotational               0.889              2.981             30.474
 Vibrational            117.904             31.789             25.900
 Vibration     1          0.596              1.975              4.593
 Vibration     2          0.604              1.948              3.427
 Vibration     3          0.611              1.925              2.969
 Vibration     4          0.622              1.890              2.535
 Vibration     5          0.640              1.832              2.081
 Vibration     6          0.673              1.731              1.606
 Vibration     7          0.708              1.629              1.294
 Vibration     8          0.735              1.554              1.120
 Vibration     9          0.782              1.429              0.896
 Vibration    10          0.812              1.353              0.785
 Vibration    11          0.888              1.177              0.581

 Optimization completed.
    -- Stationary point found.
 Normal termination of Gaussian 09 at Mon Oct  4 00:08:43 2021.
 Gaussian 09:  AM64L-G09RevA.02 11-Jun-2009

 ----------------------------------------------------------------------
 #p TD(NStates=10, Root=1) b3lyp/6-31G* volume pop=NPA density=current
 Geom=AllCheck Guess=Read
 ----------------------------------------------------------------------

 Cn1cncc1c1ccccc1_conf_0
 -----------------------
 Redundant internal coordinates taken from checkpoint file:
 C10H10N2_7bd1_conf_0.chk
 Charge =  0 Multiplicity = 1

                         Standard orientation:
 ---------------------------------------------------------------------
 Center     Atomic      Atomic             Coordinates (Angstroms)
 Number     Number       Type             X           Y           Z
 ---------------------------------------------------------------------
      1          6           0       -1.580513    1.998494    0.595038
      2          7           0       -1.799046    0.628598    0.158827
      3          6           0       -3.023460    0.035855    0.016196
      4          7           0       -2.940339   -1.232699   -0.322690
      5          6           0       -1.594803   -1.484710   -0.396847
      6          6           0       -0.849677   -0.357016   -0.105953
      7          6           0        0.605818   -0.175150   -0.058144
      8          6           0        1.245861    0.967906   -0.570870
      9          6           0        2.634620    1.087255   -0.532812
     10          6           0        3.416240    0.062713    0.003276
     11          6           0        2.795533   -1.083766    0.504245
     12          6           0        1.407500   -1.198510    0.481334
     13          1           0       -2.474525    2.345643    1.118772
     14          1           0       -1.387295    2.668663   -0.249754
     15          1           0       -0.731077    2.042771    1.280433
     16          1           0       -3.940327    0.587490    0.182708
     17          1           0       -1.217304   -2.458028   -0.682173
     18          1           0        0.657067    1.755813   -1.030907
     19          1           0        3.107219    1.978744   -0.936913
     20          1           0        4.498458    0.155839    0.028931
     21          1           0        3.393613   -1.887153    0.926259
     22          1           0        0.927144   -2.079500    0.896905
 ---------------------------------------------------------------------

 SCF Done:  E(RB3LYP) =  -496.585789822     A.U. after    3 cycles

 Excitation energies and oscillator strengths:

 Excited State   1:      Singlet-A      4.7098 eV  263.25 nm  f=0.3268  <S**2>=0.000
      42 -> 43         0.68326
      42 -> 44         0.11974
 This state for optimization and/or second-order correction.
 Total Energy, E(TD-HF/TD-KS) =  -496.412709079
 Copying the excited state density for this state as the 1-particle RhoCI density.

 Excited State   2:      Singlet-A      4.7357 eV  261.81 nm  f=0.0172  <S**2>=0.000
      41 -> 43         0.23697
      42 -> 43        -0.12371
      42 -> 44         0.65182

 Excited State   3:      Singlet-A      5.6328 eV  220.11 nm  f=0.0192  <S**2>=0.000
      39 -> 43        -0.33543
      40 -> 43         0.59230

 Excited State   4:      Singlet-A      5.6640 eV  218.90 nm  f=0.0204  <S**2>=0.000
      38 -> 44         0.24109
      39 -> 44         0.12802
      40 -> 44         0.32217
      41 -> 43         0.52080
      42 -> 44        -0.20429

 Excited State   5:      Singlet-A      5.8981 eV  210.21 nm  f=0.0174  <S**2>=0.000
      38 -> 43        -0.14516
      39 -> 43         0.57982
      40 -> 43         0.30822
      42 -> 45        -0.12777
      42 -> 46         0.11399

 Excited State   6:      Singlet-A      6.1336 eV  202.14 nm  f=0.0706  <S**2>=0.000
      38 -> 43         0.37918
      39 -> 43         0.15715
      41 -> 44        -0.10963
      42 -> 45         0.55060

 Excited State   7:      Singlet-A      6.3555 eV  195.08 nm  f=0.0061  <S**2>=0.000
      39 -> 44         0.51619
      40 -> 44        -0.45831

 Excited State   8:      Singlet-A      6.3954 eV  193.86 nm  f=0.0642  <S**2>=0.000
      38 -> 43         0.21892
      38 -> 44        -0.25180
      39 -> 44         0.33211
      40 -> 44         0.30340
      41 -> 43        -0.16132
      41 -> 44        -0.32704
      42 -> 45        -0.20126

 Excited State   9:      Singlet-A      6.4164 eV  193.23 nm  f=0.1022  <S**2>=0.000
      38 -> 43        -0.30975
      38 -> 44        -0.18658
      39 -> 44         0.30558
      40 -> 44         0.24997
      41 -> 44         0.34116
      42 -> 45         0.26269

 Excited State  10:      Singlet-A      6.8577 eV  180.79 nm  f=0.0384  <S**2>=0.000
      38 -> 43         0.13989
      38 -> 44         0.12776
      39 -> 45         0.24249
      41 -> 44         0.17308
      42 -> 46         0.57795

 The electronic state is 1-A.
 Alpha  occ. eigenvalues --  -14.39268 -14.30534 -10.23941 -10.23189 -10.21458
 Alpha  occ. eigenvalues --  -10.20797 -10.19574 -10.19493 -10.19387 -10.19311
 Alpha  occ. eigenvalues --  -10.19254 -10.19105  -1.01185  -0.88196  -0.85814
 Alpha  occ. eigenvalues --   -0.78023  -0.74826  -0.72995  -0.70782  -0.61887
 Alpha  occ. eigenvalues --   -0.61404  -0.58386  -0.56144  -0.53382  -0.50228
 Alpha  occ. eigenvalues --   -0.47665  -0.46703  -0.45435  -0.43598  -0.42361
 Alpha  occ. eigenvalues --   -0.42090  -0.41431  -0.39714  -0.39443  -0.36704
 Alpha  occ. eigenvalues --   -0.35391  -0.34607  -0.27697  -0.26258  -0.25723
 Alpha  occ. eigenvalues --   -0.25442  -0.20740
 Alpha virt. eigenvalues --   -0.01975  -0.00502   0.04222   0.07306   0.08584
 Alpha virt. eigenvalues --    0.10258   0.12215   0.13098   0.14024   0.14686
 Alpha virt. eigenvalues --    0.15335   0.16725   0.17234   0.17611   0.19544

 Mulliken atomic charges:
              1
     1  C   -0.336089
     2  N   -0.431124
     3  C    0.241505
     4  N   -0.410014
     5  C   -0.035693
     6  C    0.280515
     7  C    0.051569
     8  C   -0.169002
     9  C   -0.152155
    10  C   -0.170612
    11  C   -0.127735
    12  C   -0.196876
    13  H    0.174326
    14  H    0.191029
    15  H    0.213330
    16  H    0.186030
    17  H    0.183722
    18  H    0.096870
    19  H    0.104079
    20  H    0.099280
    21  H    0.110256
    22  H    0.096787
 Sum of Mulliken atomic charges =  -0.00000

 Dipole moment (field-independent basis, Debye):
    X=             -4.0997    Y=              2.7060    Z=              0.8211  Tot=              4.9803
 Quadrupole moment (field-independent basis, Debye-Ang):
   XX=            -72.5892   YY=            -64.3485   ZZ=            -71.9092
   XY=             -9.2962   XZ=             -2.2549   YZ=             -0.2538

 Summary of Natural Population Analysis:

                                       Natural Population
                Natural  -----------------------------------------------
    Atom  No    Charge         Core      Valence    Rydberg      Total
 -----------------------------------------------------------------------
      C    1   -0.47389      1.99946     4.46215    0.01228     6.47389
      N    2   -0.41021      1.99928     5.39936    0.01156     7.41021
      C    3    0.27521      1.99936     3.69686    0.02856     5.72479
      N    4   -0.48230      1.99953     5.45937    0.02340     7.48230
      C    5   -0.00815      1.99908     3.98614    0.02293     6.00815
      C    6    0.31418      1.99907     3.66504    0.02171     5.68582
      C    7   -0.26482      1.99898     4.24883    0.01701     6.26482
      C    8   -0.20330      1.99906     4.19017    0.01407     6.20330
      C    9   -0.27502      1.99910     4.25942    0.01649     6.27502
      C   10   -0.31628      1.99909     4.29846    0.01873     6.31628
      C   11   -0.22241      1.99910     4.20849    0.01482     6.22241
      C   12   -0.26095      1.99906     4.24582    0.01607     6.26095
      H   13    0.23917      0.00000     0.75989    0.00094     0.76083
      H   14    0.24167      0.00000     0.75703    0.00130     0.75833
      H   15    0.26376      0.00000     0.73477    0.00147     0.73624
      H   16    0.23165      0.00000     0.76761    0.00074     0.76835
      H   17    0.24806      0.00000     0.75111    0.00083     0.75194
      H   18    0.21200      0.00000     0.78674    0.00125     0.78800
      H   19    0.22509      0.00000     0.77404    0.00087     0.77491
      H   20    0.22211      0.00000     0.77692    0.00098     0.77789
      H   21    0.22759      0.00000     0.77150    0.00091     0.77241
      H   22    0.21682      0.00000     0.78173    0.00145     0.78318
 =======================================================================
   * Total *   -0.00000     23.99019    59.78144    0.22837    84.00000

 Normal termination of Gaussian 09 at Mon Oct  4 04:02:16 2021.
