 Gaussian 09, Revision A.02,

 -----------------------------------
 #p opt b3lyp/6-31G* scf=(xqc,tight)
 -----------------------------------

 ------------------------------
 Cc1ccc(cc1)O[Si](C)(C)C_conf_0
 ------------------------------
 Symbolic Z-matrix:
 Charge =  0 Multiplicity = 1

 SCF Done:  E(RB3LYP) =  -755.497508958     A.U. after   14 cycles
 SCF Done:  E(RB3LYP) =  -755.500259009     A.U. after   11 cycles
 SCF Done:  E(RB3LYP) =  -755.500622926     A.U. after   11 cycles
 SCF Done:  E(RB3LYP) =  -755.500707978     A.U. after   11 cycles
 SCF Done:  E(RB3LYP) =  -755.500729836     A.U. after   10 cycles
 SCF Done:  E(RB3LYP) =  -755.500731913     A.U. after    8 cycles
 SCF Done:  E(RB3LYP) =  -755.500732552     A.U. after    7 cycles
 SCF Done:  E(RB3LYP) =  -755.500733239     A.U. after    7 cycles
 SCF Done:  E(RB3LYP) =  -755.500734023     A.U. after    7 cycles
 SCF Done:  E(RB3LYP) =  -755.500734280     A.U. after    7 cycles
 SCF Done:  E(RB3LYP) =  -755.500734314     A.U. after    6 cycles
 SCF Done:  E(RB3LYP) =  -755.500734347     A.U. after    6 cycles
 SCF Done:  E(RB3LYP) =  -755.500734399     A.U. after    6 cycles
 SCF Done:  E(RB3LYP) =  -755.500734426     A.U. after    6 cycles
 SCF Done:  E(RB3LYP) =  -755.500734426     A.U. after    6 cycles
 Optimization completed.
    -- Stationary point found.
 Normal termination of Gaussian 09 at Thu Sep 30 13:10:56 2021.

 ----------------------------------------------------------------------
 #p freq b3lyp/6-31G* volume NMR pop=NPA density=current Geom=AllCheck
 Guess=Read
 ----------------------------------------------------------------------

 Cc1ccc(cc1)O[Si](C)(C)C_conf_0
 ------------------------------
 Redundant internal coordinates taken from checkpoint file:
 C10H16OSi_93d7_conf_0.chk
 Charge =  0 Multiplicity = 1

 SCF Done:  E(RB3LYP) =  -755.500734426     A.U. after    1 cycles

  1  C    Isotropic =   168.3646   Anisotropy =    34.5747

  2  C    Isotropic =    67.3525   Anisotropy =   167.5002

  3  C    Isotropic =    66.5967   Anisotropy =   140.6258

  4  C    Isotropic =    80.2503   Anisotropy =   126.9033

  5  C    Isotropic =    42.6969   Anisotropy =   121.1851

  6  C    Isotropic =    75.7080   Anisotropy =   133.4361

  7  C    Isotropic =    66.1223   Anisotropy =   152.6519

  8  O    Isotropic =   216.2955   Anisotropy =    82.0332

  9  Si   Isotropic =   395.3075   Anisotropy =    30.8021

 10  C    Isotropic =   189.1029   Anisotropy =     8.7433

 11  C    Isotropic =   189.1907   Anisotropy =     8.7846

 12  C    Isotropic =   188.5118   Anisotropy =    11.4260

 13  H    Isotropic =    30.5050   Anisotropy =     6.8674

 14  H    Isotropic =    29.8425   Anisotropy =     8.3493

 15  H    Isotropic =    29.8991   Anisotropy =     8.1359

 16  H    Isotropic =    25.4162   Anisotropy =     6.9021

 17  H    Isotropic =    25.7251   Anisotropy =     8.8326

 18  H    Isotropic =    25.5334   Anisotropy =     6.8987

 19  H    Isotropic =    25.1754   Anisotropy =     6.4633

 20  H    Isotropic =    31.6089   Anisotropy =     8.7156

 21  H    Isotropic =    31.9594   Anisotropy =     8.8510

 22  H    Isotropic =    32.2918   Anisotropy =     9.5297

 23  H    Isotropic =    31.6057   Anisotropy =     8.7083

 24  H    Isotropic =    32.2955   Anisotropy =     9.5341

 25  H    Isotropic =    31.9649   Anisotropy =     8.8789

 26  H    Isotropic =    31.8482   Anisotropy =     9.1177

 27  H    Isotropic =    31.8489   Anisotropy =     9.1257

 28  H    Isotropic =    32.3408   Anisotropy =     9.5466

  Exact polarizability: 173.291  -1.503 123.068   0.222   0.013  82.677
 Approx polarizability: 224.990  -2.273 199.846   0.294   0.029 114.671

 ******    1 imaginary frequencies (negative Signs) ******

                     1                      2                      3
                     A                      A                      A
 Frequencies --   -16.1161                29.4526                47.5451
 Red. masses --     3.5703                 1.0416                 2.7600
 Frc consts  --     0.0005                 0.0005                 0.0037
 IR Inten    --     0.4191                 0.1382                 0.3887

                     4                      5                      6
                     A                      A                      A
 Frequencies --    86.3934               112.9597               123.7625
 Red. masses --     3.4646                 1.1459                 1.0537
 Frc consts  --     0.0152                 0.0086                 0.0095
 IR Inten    --     0.2380                 0.0019                 0.0653

                     7                      8                      9
                     A                      A                      A
 Frequencies --   136.5858               146.5389               176.8813
 Red. masses --     1.8109                 1.3269                 2.5578
 Frc consts  --     0.0199                 0.0168                 0.0472
 IR Inten    --     0.1257                 0.0676                 0.1934

                    10                     11                     12
                     A                      A                      A
 Frequencies --   197.6682               198.5288               241.8513
 Red. masses --     2.5614                 2.6141                 2.8677
 Frc consts  --     0.0590                 0.0607                 0.0988
 IR Inten    --     0.0117                 1.2069                 3.8190

                    13                     14                     15
                     A                      A                      A
 Frequencies --   264.5558               310.8790               344.7618
 Red. masses --     3.3707                 3.1176                 4.4972
 Frc consts  --     0.1390                 0.1775                 0.3149
 IR Inten    --     6.4400                 4.6168                 7.9355

                    16                     17                     18
                     A                      A                      A
 Frequencies --   381.9511               424.4673               486.8340
 Red. masses --     3.5714                 3.1115                 5.6499
 Frc consts  --     0.3070                 0.3303                 0.7890
 IR Inten    --     2.5185                 0.0612                 5.6732

                    19                     20                     21
                     A                      A                      A
 Frequencies --   523.4931               588.8845               648.7823
 Red. masses --     2.4368                 4.2096                 5.2842
 Frc consts  --     0.3934                 0.8601                 1.3105
 IR Inten    --     5.2923                 0.1549                 9.8056

                    22                     23                     24
                     A                      A                      A
 Frequencies --   677.3814               689.4336               698.2801
 Red. masses --     4.8389                 2.2986                 2.2869
 Frc consts  --     1.3082                 0.6437                 0.6570
 IR Inten    --     8.0815                 8.6554                 6.0382

                    25                     26                     27
                     A                      A                      A
 Frequencies --   702.7910               714.2339               780.3218
 Red. masses --     1.1809                 3.0764                 1.4953
 Frc consts  --     0.3436                 0.9246                 0.5364
 IR Inten    --     0.1175                 0.1325                16.9889

                    28                     29                     30
                     A                      A                      A
 Frequencies --   791.4609               809.6359               817.4817
 Red. masses --     1.4972                 4.2067                 1.3905
 Frc consts  --     0.5526                 1.6247                 0.5475
 IR Inten    --    23.2674                 4.8110                22.3609

                    31                     32                     33
                     A                      A                      A
 Frequencies --   841.5868               887.6437               889.7162
 Red. masses --     1.4460                 1.8038                 1.6214
 Frc consts  --     0.6034                 0.8374                 0.7562
 IR Inten    --    28.2426                84.4673               113.9474

                    34                     35                     36
                     A                      A                      A
 Frequencies --   890.7943               934.8305               946.0077
 Red. masses --     1.8053                 1.2959                 5.1681
 Frc consts  --     0.8440                 0.6672                 2.7251
 IR Inten    --    82.0555                 1.6257               435.2582

                    37                     38                     39
                     A                      A                      A
 Frequencies --   957.5477              1015.8954              1036.2007
 Red. masses --     1.2918                 1.4285                 2.6291
 Frc consts  --     0.6978                 0.8686                 1.6632
 IR Inten    --     0.6577                 0.0685                 4.4808

                    40                     41                     42
                     A                      A                      A
 Frequencies --  1075.9409              1144.3692              1208.6444
 Red. masses --     1.4877                 1.2635                 1.1469
 Frc consts  --     1.0147                 0.9749                 0.9871
 IR Inten    --     4.4101                 7.7123                17.5309

                    43                     44                     45
                     A                      A                      A
 Frequencies --  1240.5405              1299.7728              1331.6693
 Red. masses --     2.9288                 4.7497                 1.4755
 Frc consts  --     2.6556                 4.7277                 1.5416
 IR Inten    --     0.6986               400.7767                29.3349

                    46                     47                     48
                     A                      A                      A
 Frequencies --  1333.9954              1334.3223              1344.0141
 Red. masses --     1.2547                 1.6089                 1.4014
 Frc consts  --     1.3156                 1.6878                 1.4915
 IR Inten    --    40.8627                10.8007                89.6119

                    49                     50                     51
                     A                      A                      A
 Frequencies --  1350.9778              1443.6446              1460.2728
 Red. masses --     2.1165                 1.2441                 2.7752
 Frc consts  --     2.2760                 1.5276                 3.4867
 IR Inten    --     6.1759                 0.2064                 2.9027

                    52                     53                     54
                     A                      A                      A
 Frequencies --  1483.9109              1490.0829              1490.4223
 Red. masses --     1.0538                 1.0534                 1.0538
 Frc consts  --     1.3672                 1.3780                 1.3793
 IR Inten    --     0.2359                 0.0029                 0.2581

                    55                     56                     57
                     A                      A                      A
 Frequencies --  1497.0536              1498.2560              1507.8144
 Red. masses --     1.0480                 1.0517                 1.0478
 Frc consts  --     1.3838                 1.3910                 1.4035
 IR Inten    --     1.7378                 6.2423                 4.6181

                    58                     59                     60
                     A                      A                      A
 Frequencies --  1515.6047              1526.9718              1562.9090
 Red. masses --     1.0447                 1.1011                 2.6520
 Frc consts  --     1.4139                 1.5126                 3.8168
 IR Inten    --     4.7706                 5.3714               220.8659

                    61                     62                     63
                     A                      A                      A
 Frequencies --  1630.2376              1674.3741              3038.5287
 Red. masses --     5.8938                 5.9093                 1.0380
 Frc consts  --     9.2289                 9.7609                 5.6462
 IR Inten    --    11.3226                57.7157                46.1017

                    64                     65                     66
                     A                      A                      A
 Frequencies --  3044.7129              3045.7720              3048.5428
 Red. masses --     1.0366                 1.0364                 1.0357
 Frc consts  --     5.6620                 5.6644                 5.6712
 IR Inten    --     4.0417                 3.4384                 4.5086

                    67                     68                     69
                     A                      A                      A
 Frequencies --  3088.4546              3114.0602              3115.1145
 Red. masses --     1.1005                 1.0994                 1.0997
 Frc consts  --     6.1846                 6.2815                 6.2875
 IR Inten    --    24.3790                 3.1624                15.2133

                    70                     71                     72
                     A                      A                      A
 Frequencies --  3119.9069              3120.3939              3126.5532
 Red. masses --     1.1006                 1.0999                 1.1005
 Frc consts  --     6.3117                 6.3101                 6.3384
 IR Inten    --    17.4913                30.2927                 1.3086

                    73                     74                     75
                     A                      A                      A
 Frequencies --  3127.4915              3127.9550              3174.3485
 Red. masses --     1.1001                 1.1008                 1.0889
 Frc consts  --     6.3398                 6.3457                 6.4647
 IR Inten    --    25.6143                15.4089                19.9479

                    76                     77                     78
                     A                      A                      A
 Frequencies --  3175.5704              3210.1439              3211.9335
 Red. masses --     1.0885                 1.0920                 1.0929
 Frc consts  --     6.4673                 6.6302                 6.6432
 IR Inten    --    23.2606                24.2914                 6.6918

 - Thermochemistry -
 -------------------
 Temperature   298.150 Kelvin.  Pressure   1.00000 Atm.
 Atom     1 has atomic number  6 and mass  12.00000

 Molecular mass:   180.09704 amu.
 Principal axes and moments of inertia in atomic units:
                           1         2         3
     Eigenvalues --   926.366984676.814765005.84231
           X            1.00000  -0.00104   0.00007
           Y            0.00104   1.00000   0.00018
           Z           -0.00007  -0.00018   1.00000
 This molecule is an asymmetric top.
 Rotational symmetry number  1.
 Warning -- assumption of classical behavior for rotation
           may cause significant error
 Rotational temperatures (Kelvin)      0.09350     0.01852     0.01730
 Rotational constants (GHZ):           1.94819     0.38589     0.36053
    1 imaginary frequencies ignored.
 Zero-point vibrational energy     615414.7 (Joules/Mol)
                                  147.08764 (Kcal/Mol)
 Warning -- explicit consideration of  19 degrees of freedom as
           vibrations may cause significant error
 Vibrational temperatures:     42.38    68.41   124.30   162.52   178.07
          (Kelvin)            196.52   210.84   254.49   284.40   285.64
                              347.97   380.64   447.28   496.03   549.54
                              610.71   700.44   753.19   847.27   933.45
                              974.60   991.94  1004.67  1011.16  1027.62
                             1122.71  1138.73  1164.88  1176.17  1210.85
                             1277.12  1280.10  1281.65  1345.01  1361.09
                             1377.70  1461.65  1490.86  1548.04  1646.49
                             1738.97  1784.86  1870.08  1915.97  1919.32
                             1919.79  1933.73  1943.75  2077.08  2101.00
                             2135.01  2143.89  2144.38  2153.92  2155.65
                             2169.41  2180.61  2196.97  2248.67  2345.55
                             2409.05  4371.76  4380.66  4382.18  4386.17
                             4443.59  4480.43  4481.95  4488.84  4489.55
                             4498.41  4499.76  4500.42  4567.17  4568.93
                             4618.68  4621.25

 Zero-point correction=                           0.234399 (Hartree/Particle)
 Thermal correction to Energy=                    0.248769
 Thermal correction to Enthalpy=                  0.249714
 Thermal correction to Gibbs Free Energy=         0.192724
 Sum of electronic and zero-point Energies=           -755.266335
 Sum of electronic and thermal Energies=              -755.251965
 Sum of electronic and thermal Enthalpies=            -755.251021
 Sum of electronic and thermal Free Energies=         -755.308011

                     E (Thermal)             CV                S
                      KCal/Mol        Cal/Mol-Kelvin    Cal/Mol-Kelvin
 Total                  156.105             52.854            119.945
 Electronic               0.000              0.000              0.000
 Translational            0.889              2.981             41.472
 Rotational               0.889              2.981             31.451
 Vibrational            154.328             46.893             47.023
 Vibration     1          0.593              1.984              5.866
 Vibration     2          0.595              1.979              4.917
 Vibration     3          0.601              1.959              3.740
 Vibration     4          0.607              1.939              3.217
 Vibration     5          0.610              1.929              3.041
 Vibration     6          0.614              1.917              2.851
 Vibration     7          0.617              1.906              2.717
 Vibration     8          0.628              1.871              2.361
 Vibration     9          0.637              1.843              2.155
 Vibration    10          0.637              1.842              2.147
 Vibration    11          0.658              1.776              1.789
 Vibration    12          0.671              1.738              1.632
 Vibration    13          0.700              1.653              1.358
 Vibration    14          0.723              1.586              1.190
 Vibration    15          0.751              1.509              1.031
 Vibration    16          0.786              1.417              0.877
 Vibration    17          0.843              1.279              0.692
 Vibration    18          0.878              1.198              0.602
 Vibration    19          0.946              1.055              0.469

 Normal termination of Gaussian 09 at Thu Sep 30 13:56:35 2021.
 Gaussian 09:  AM64L-G09RevA.02 11-Jun-2009

 ----------------------------------------------------------------------
 #p TD(NStates=10, Root=1) b3lyp/6-31G* volume pop=NPA density=current
 Geom=AllCheck Guess=Read
 ----------------------------------------------------------------------

 Cc1ccc(cc1)O[Si](C)(C)C_conf_0
 ------------------------------
 Redundant internal coordinates taken from checkpoint file:
 C10H16OSi_93d7_conf_0.chk
 Charge =  0 Multiplicity = 1

                         Standard orientation:
 ---------------------------------------------------------------------
 Center     Atomic      Atomic             Coordinates (Angstroms)
 Number     Number       Type             X           Y           Z
 ---------------------------------------------------------------------
      1          6           0        4.704873   -0.410635    0.006909
      2          6           0        3.223784   -0.109201   -0.002478
      3          6           0        2.269739   -1.130320   -0.004600
      4          6           0        0.899475   -0.857151   -0.004797
      5          6           0        0.451206    0.467745   -0.003445
      6          6           0        1.395253    1.503902   -0.002580
      7          6           0        2.755205    1.213733   -0.002464
      8          8           0       -0.866010    0.826496   -0.004873
      9         14           0       -2.307012   -0.056904    0.001251
     10          6           0       -2.438321   -1.124465   -1.549096
     11          6           0       -2.431203   -1.112280    1.560444
     12          6           0       -3.632406    1.275130   -0.001495
     13          1           0        4.893063   -1.484626   -0.092412
     14          1           0        5.179806   -0.077518    0.939030
     15          1           0        5.225494    0.095329   -0.815695
     16          1           0        2.597988   -2.167640   -0.006678
     17          1           0        0.189289   -1.677929   -0.007923
     18          1           0        1.039448    2.529741   -0.003537
     19          1           0        3.469955    2.034423   -0.003019
     20          1           0       -1.666212   -1.900267   -1.594278
     21          1           0       -2.345576   -0.512426   -2.453816
     22          1           0       -3.413665   -1.626050   -1.586565
     23          1           0       -1.654129   -1.882784    1.611257
     24          1           0       -3.403376   -1.619572    1.602903
     25          1           0       -2.341447   -0.492209    2.459986
     26          1           0       -3.548388    1.911819   -0.889401
     27          1           0       -3.544105    1.919574    0.880369
     28          1           0       -4.637533    0.836068    0.002859
 ---------------------------------------------------------------------

 SCF Done:  E(RB3LYP) =  -755.500734426     A.U. after    1 cycles

 Excitation energies and oscillator strengths:

 Excited State   1:      Singlet-A      5.0824 eV  243.95 nm  f=0.0254  <S**2>=0.000
      48 -> 51         0.30549
      49 -> 50         0.63174
 This state for optimization and/or second-order correction.
 Total Energy, E(TD-HF/TD-KS) =  -755.313958905
 Copying the excited state density for this state as the 1-particle RhoCI density.

 Excited State   2:      Singlet-A      5.8328 eV  212.56 nm  f=0.1909  <S**2>=0.000
      48 -> 50        -0.30958
      49 -> 51         0.62338

 Excited State   3:      Singlet-A      6.7524 eV  183.61 nm  f=0.0009  <S**2>=0.000
      49 -> 52         0.64929
      49 -> 53         0.24724
      49 -> 54        -0.10120

 Excited State   4:      Singlet-A      6.8853 eV  180.07 nm  f=0.5347  <S**2>=0.000
      46 -> 50        -0.16861
      48 -> 50         0.45592
      48 -> 51        -0.37032
      49 -> 50         0.19132
      49 -> 51         0.26316

 Excited State   5:      Singlet-A      6.9242 eV  179.06 nm  f=0.4741  <S**2>=0.000
      46 -> 50         0.20125
      48 -> 50         0.41855
      48 -> 51         0.44750
      49 -> 50        -0.19573
      49 -> 51         0.15218

 Excited State   6:      Singlet-A      7.0254 eV  176.48 nm  f=0.0024  <S**2>=0.000
      49 -> 52        -0.22596
      49 -> 53         0.64852
      49 -> 54         0.14406

 Excited State   7:      Singlet-A      7.1278 eV  173.94 nm  f=0.0011  <S**2>=0.000
      45 -> 50         0.24778
      47 -> 50         0.65636

 Excited State   8:      Singlet-A      7.3984 eV  167.58 nm  f=0.0003  <S**2>=0.000
      47 -> 51         0.22995
      49 -> 52         0.13930
      49 -> 54         0.62717

 Excited State   9:      Singlet-A      7.4140 eV  167.23 nm  f=0.0007  <S**2>=0.000
      45 -> 51         0.25145
      47 -> 51         0.60469
      49 -> 54        -0.23762

 Excited State  10:      Singlet-A      7.5658 eV  163.87 nm  f=0.1069  <S**2>=0.000
      46 -> 50         0.65185
      48 -> 51        -0.22911
      49 -> 50         0.10572

 The electronic state is 1-A.
 Alpha  occ. eigenvalues --  -66.14764 -19.14991 -10.24076 -10.18413 -10.18158
 Alpha  occ. eigenvalues --  -10.18005 -10.17970 -10.17768 -10.17553 -10.16389
 Alpha  occ. eigenvalues --  -10.16386 -10.16164  -5.28860  -3.64973  -3.64648
 Alpha  occ. eigenvalues --   -3.64637  -1.02129  -0.84138  -0.75584  -0.73716
 Alpha  occ. eigenvalues --   -0.71364  -0.68034  -0.67949  -0.67010  -0.60643
 Alpha  occ. eigenvalues --   -0.58085  -0.53452  -0.47181  -0.46036  -0.43833
 Alpha  occ. eigenvalues --   -0.42312  -0.41760  -0.41550  -0.41047  -0.40407
 Alpha  occ. eigenvalues --   -0.40112  -0.40012  -0.38854  -0.38443  -0.38281
 Alpha  occ. eigenvalues --   -0.38173  -0.34718  -0.34683  -0.32474  -0.31745
 Alpha  occ. eigenvalues --   -0.29306  -0.28838  -0.24202  -0.20818
 Alpha virt. eigenvalues --    0.00584   0.01996   0.06932   0.08012   0.09506
 Alpha virt. eigenvalues --    0.10602   0.11087   0.12339   0.13510   0.13979
 Alpha virt. eigenvalues --    0.14145   0.15016   0.15797   0.16543   0.17069

 Mulliken atomic charges:
              1
     1  C   -0.533384
     2  C    0.201348
     3  C   -0.213893
     4  C   -0.209858
     5  C    0.375390
     6  C   -0.180031
     7  C   -0.216448
     8  O   -0.573673
     9  Si   0.887531
    10  C   -0.682655
    11  C   -0.682335
    12  C   -0.664024
    13  H    0.156135
    14  H    0.167797
    15  H    0.164168
    16  H    0.113582
    17  H    0.123727
    18  H    0.126216
    19  H    0.109695
    20  H    0.171993
    21  H    0.173691
    22  H    0.163692
    23  H    0.171993
    24  H    0.163621
    25  H    0.173575
    26  H    0.173893
    27  H    0.173909
    28  H    0.164346
 Sum of Mulliken atomic charges =  -0.00000

 Dipole moment (field-independent basis, Debye):
    X=             -1.6240    Y=             -0.9487    Z=              0.0250  Tot=              1.8810
 Quadrupole moment (field-independent basis, Debye-Ang):
   XX=            -70.3388   YY=            -78.7354   ZZ=            -82.0820
   XY=              0.4465   XZ=              0.0997   YZ=              0.0073

 Summary of Natural Population Analysis:

                                       Natural Population
                Natural  -----------------------------------------------
    Atom  No    Charge         Core      Valence    Rydberg      Total
 -----------------------------------------------------------------------
      C    1   -0.69473      1.99939     4.68770    0.00764     6.69473
      C    2    0.03818      1.99904     3.94721    0.01557     5.96182
      C    3   -0.26456      1.99907     4.24710    0.01839     6.26456
      C    4   -0.34635      1.99905     4.32824    0.01906     6.34635
      C    5    0.35727      1.99877     3.62124    0.02272     5.64273
      C    6   -0.28872      1.99906     4.27011    0.01954     6.28872
      C    7   -0.30309      1.99907     4.28540    0.01862     6.30309
      O    8   -0.78508      1.99976     6.77314    0.01217     8.78508
     Si    9    2.00850      9.99784     1.94734    0.04632    11.99150
      C   10   -1.22219      1.99948     5.21317    0.00953     7.22219
      C   11   -1.22225      1.99948     5.21324    0.00953     7.22225
      C   12   -1.22004      1.99949     5.21163    0.00892     7.22004
      H   13    0.23694      0.00000     0.76213    0.00093     0.76306
      H   14    0.24778      0.00000     0.75042    0.00180     0.75222
      H   15    0.24509      0.00000     0.75285    0.00206     0.75491
      H   16    0.22456      0.00000     0.77437    0.00107     0.77544
      H   17    0.22101      0.00000     0.77788    0.00111     0.77899
      H   18    0.23506      0.00000     0.76369    0.00124     0.76494
      H   19    0.22442      0.00000     0.77454    0.00103     0.77558
      H   20    0.25625      0.00000     0.74245    0.00130     0.74375
      H   21    0.25881      0.00000     0.74040    0.00080     0.74119
      H   22    0.25396      0.00000     0.74527    0.00077     0.74604
      H   23    0.25640      0.00000     0.74225    0.00135     0.74360
      H   24    0.25392      0.00000     0.74531    0.00077     0.74608
      H   25    0.25873      0.00000     0.74047    0.00080     0.74127
      H   26    0.25859      0.00000     0.74064    0.00077     0.74141
      H   27    0.25859      0.00000     0.74063    0.00077     0.74141
      H   28    0.25293      0.00000     0.74650    0.00057     0.74707
 =======================================================================
   * Total *   -0.00000     31.98950    65.78533    0.22516    98.00000

 Normal termination of Gaussian 09 at Thu Sep 30 17:19:37 2021.
