 Gaussian 09, Revision A.02,

 -----------------------------------
 #p opt b3lyp/6-31G* scf=(xqc,tight)
 -----------------------------------

 -------------------------
 Cc1cc2ncn(c2cc1C)C_conf_0
 -------------------------
 Symbolic Z-matrix:
 Charge =  0 Multiplicity = 1

 SCF Done:  E(RB3LYP) =  -497.809477118     A.U. after   15 cycles
 SCF Done:  E(RB3LYP) =  -497.813103622     A.U. after   12 cycles
 SCF Done:  E(RB3LYP) =  -497.813410637     A.U. after   11 cycles
 SCF Done:  E(RB3LYP) =  -497.813429695     A.U. after    9 cycles
 SCF Done:  E(RB3LYP) =  -497.813431297     A.U. after    8 cycles
 Optimization completed.
    -- Stationary point found.
 Normal termination of Gaussian 09 at Sun Oct  3 19:00:16 2021.

 ----------------------------------------------------------------------
 #p freq b3lyp/6-31G* volume NMR pop=NPA density=current Geom=AllCheck
 Guess=Read
 ----------------------------------------------------------------------

 Cc1cc2ncn(c2cc1C)C_conf_0
 -------------------------
 Redundant internal coordinates taken from checkpoint file:
 C10H12N2_6ba2_conf_0.chk
 Charge =  0 Multiplicity = 1

 SCF Done:  E(RB3LYP) =  -497.813431297     A.U. after    1 cycles

  1  C    Isotropic =   167.7540   Anisotropy =    27.3475

  2  C    Isotropic =    65.1746   Anisotropy =   162.3349

  3  C    Isotropic =    72.6930   Anisotropy =   126.5784

  4  C    Isotropic =    52.7920   Anisotropy =   130.4008

  5  N    Isotropic =     8.5157   Anisotropy =   349.3929

  6  C    Isotropic =    55.5403   Anisotropy =    71.9552

  7  N    Isotropic =   116.5081   Anisotropy =    87.2967

  8  C    Isotropic =    63.6426   Anisotropy =   133.7372

  9  C    Isotropic =    85.7251   Anisotropy =   119.1274

 10  C    Isotropic =    63.9111   Anisotropy =   163.9054

 11  C    Isotropic =   167.4987   Anisotropy =    27.5590

 12  C    Isotropic =   158.9925   Anisotropy =    46.7068

 13  H    Isotropic =    30.0851   Anisotropy =     7.8787

 14  H    Isotropic =    29.8915   Anisotropy =     7.6885

 15  H    Isotropic =    29.8922   Anisotropy =     7.6842

 16  H    Isotropic =    24.8261   Anisotropy =     7.0465

 17  H    Isotropic =    25.1072   Anisotropy =     4.8348

 18  H    Isotropic =    25.2851   Anisotropy =     8.7833

 19  H    Isotropic =    30.1686   Anisotropy =     7.4680

 20  H    Isotropic =    29.8236   Anisotropy =     7.7691

 21  H    Isotropic =    29.8241   Anisotropy =     7.7627

 22  H    Isotropic =    28.6774   Anisotropy =     8.0862

 23  H    Isotropic =    28.6453   Anisotropy =     9.3031

 24  H    Isotropic =    28.6443   Anisotropy =     9.2993

  Exact polarizability: 168.817  -1.759 121.238  -0.003  -0.001  56.931
 Approx polarizability: 249.869  -5.737 205.462  -0.009  -0.006  87.009

                     1                      2                      3
                     A                      A                      A
 Frequencies --    93.0060               110.0335               140.1682
 Red. masses --     1.8146                 1.4110                 2.5822
 Frc consts  --     0.0092                 0.0101                 0.0299
 IR Inten    --     1.6725                 2.1719                 0.4313

                     4                      5                      6
                     A                      A                      A
 Frequencies --   151.6120               184.0304               204.7475
 Red. masses --     1.1364                 1.5060                 1.6724
 Frc consts  --     0.0154                 0.0301                 0.0413
 IR Inten    --     0.0010                 0.0057                 0.0038

                     7                      8                      9
                     A                      A                      A
 Frequencies --   205.7902               306.7709               330.2783
 Red. masses --     2.9572                 2.5233                 4.1727
 Frc consts  --     0.0738                 0.1399                 0.2682
 IR Inten    --     1.7883                 0.3427                 0.4513

                    10                     11                     12
                     A                      A                      A
 Frequencies --   350.8530               359.1334               445.1249
 Red. masses --     4.2320                 3.1540                 2.8057
 Frc consts  --     0.3069                 0.2397                 0.3275
 IR Inten    --     0.0821                 0.3946                 3.9225

                    13                     14                     15
                     A                      A                      A
 Frequencies --   459.3199               484.5020               589.4736
 Red. masses --     5.2415                 4.8922                 3.2346
 Frc consts  --     0.6515                 0.6766                 0.6622
 IR Inten    --     3.7672                 0.3724                 0.9175

                    16                     17                     18
                     A                      A                      A
 Frequencies --   624.3345               659.5625               661.3347
 Red. masses --     4.0306                 4.6069                 3.9508
 Frc consts  --     0.9257                 1.1808                 1.0181
 IR Inten    --     7.7201                 9.5055                 1.8254

                    19                     20                     21
                     A                      A                      A
 Frequencies --   748.5272               770.5228               826.6267
 Red. masses --     5.3078                 4.9554                 7.5776
 Frc consts  --     1.7522                 1.7334                 3.0507
 IR Inten    --     0.4013                 0.0012                 4.8510

                    22                     23                     24
                     A                      A                      A
 Frequencies --   845.0432               850.5926               857.8071
 Red. masses --     1.3238                 1.4144                 3.3374
 Frc consts  --     0.5570                 0.6029                 1.4469
 IR Inten    --    14.5680                 7.0559                 6.6243

                    25                     26                     27
                     A                      A                      A
 Frequencies --   901.6409              1026.5422              1039.3233
 Red. masses --     1.3811                 1.5132                 1.5807
 Frc consts  --     0.6615                 0.9395                 1.0060
 IR Inten    --     7.6349                14.3519                 3.1242

                    28                     29                     30
                     A                      A                      A
 Frequencies --  1060.7501              1065.1728              1083.4066
 Red. masses --     1.4172                 2.1561                 2.4503
 Frc consts  --     0.9395                 1.4413                 1.6946
 IR Inten    --     5.7721                17.0814                10.7142

                    31                     32                     33
                     A                      A                      A
 Frequencies --  1083.6214              1162.1326              1165.0540
 Red. masses --     1.5640                 1.2959                 2.2239
 Frc consts  --     1.0821                 1.0312                 1.7785
 IR Inten    --     0.0177                 0.1305                 4.4046

                    34                     35                     36
                     A                      A                      A
 Frequencies --  1205.0945              1254.0144              1282.5254
 Red. masses --     2.8234                 2.0153                 1.3407
 Frc consts  --     2.4158                 1.8672                 1.2993
 IR Inten    --     5.1825                17.5015                 4.8619

                    37                     38                     39
                     A                      A                      A
 Frequencies --  1309.0692              1357.8703              1379.0944
 Red. masses --     2.5464                 5.5562                 5.3897
 Frc consts  --     2.5710                 6.0359                 6.0395
 IR Inten    --    25.7943                36.2365                 1.3145

                    40                     41                     42
                     A                      A                      A
 Frequencies --  1413.8735              1438.7231              1452.4227
 Red. masses --     5.9162                 1.2540                 1.2342
 Frc consts  --     6.9681                 1.5293                 1.5340
 IR Inten    --    15.9020                 0.6546                 0.6971

                    43                     44                     45
                     A                      A                      A
 Frequencies --  1476.8225              1486.8569              1507.0008
 Red. masses --     1.4391                 2.1698                 1.0455
 Frc consts  --     1.8493                 2.8263                 1.3990
 IR Inten    --    12.2786                23.3817                 0.4343

                    46                     47                     48
                     A                      A                      A
 Frequencies --  1508.8752              1518.3465              1523.8400
 Red. masses --     1.0410                 2.1276                 1.0443
 Frc consts  --     1.3964                 2.8898                 1.4287
 IR Inten    --     7.6668                38.9461                12.9684

                    49                     50                     51
                     A                      A                      A
 Frequencies --  1529.3095              1533.9492              1547.8456
 Red. masses --     1.1474                 1.5433                 1.1920
 Frc consts  --     1.5811                 2.1396                 1.6826
 IR Inten    --     1.4239                 2.2729                14.6205

                    52                     53                     54
                     A                      A                      A
 Frequencies --  1556.9692              1620.8879              1686.2268
 Red. masses --     3.4592                 7.3473                 6.9353
 Frc consts  --     4.9406                11.3732                11.6184
 IR Inten    --    86.3230                 2.9532                 6.2467

                    55                     56                     57
                     A                      A                      A
 Frequencies --  3033.3067              3035.2093              3050.6889
 Red. masses --     1.0392                 1.0382                 1.0343
 Frc consts  --     5.6336                 5.6350                 5.6712
 IR Inten    --     7.4688                78.9124                53.5306

                    58                     59                     60
                     A                      A                      A
 Frequencies --  3079.2656              3080.3516              3107.7034
 Red. masses --     1.1003                 1.1003                 1.1060
 Frc consts  --     6.1469                 6.1510                 6.2935
 IR Inten    --    34.1471                13.3306                22.0492

                    61                     62                     63
                     A                      A                      A
 Frequencies --  3120.4424              3125.8395              3150.7898
 Red. masses --     1.0999                 1.0990                 1.1019
 Frc consts  --     6.3099                 6.3268                 6.4452
 IR Inten    --    27.0580                14.5726                 9.3581

                    64                     65                     66
                     A                      A                      A
 Frequencies --  3184.8887              3199.5688              3244.7280
 Red. masses --     1.0903                 1.0909                 1.0955
 Frc consts  --     6.5161                 6.5799                 6.7956
 IR Inten    --    17.9309                10.3434                 4.8556

 - Thermochemistry -
 -------------------
 Temperature   298.150 Kelvin.  Pressure   1.00000 Atm.
 Atom     1 has atomic number  6 and mass  12.00000

 Molecular mass:   160.10005 amu.
 Principal axes and moments of inertia in atomic units:
                           1         2         3
     Eigenvalues --   949.124432564.901693480.29478
           X            0.99978   0.02119   0.00000
           Y           -0.02119   0.99978   0.00000
           Z           -0.00000  -0.00000   1.00000
 This molecule is an asymmetric top.
 Rotational symmetry number  1.
 Warning -- assumption of classical behavior for rotation
           may cause significant error
 Rotational temperatures (Kelvin)      0.09126     0.03377     0.02489
 Rotational constants (GHZ):           1.90148     0.70363     0.51856
 Zero-point vibrational energy     531436.5 (Joules/Mol)
                                  127.01636 (Kcal/Mol)
 Warning -- explicit consideration of  15 degrees of freedom as
           vibrations may cause significant error
 Vibrational temperatures:    133.81   158.31   201.67   218.14   264.78
          (Kelvin)            294.59   296.09   441.37   475.20   504.80
                              516.71   640.43   660.86   697.09   848.12
                              898.28   948.96   951.51  1076.96  1108.61
                             1189.33  1215.83  1223.81  1234.19  1297.26
                             1476.96  1495.35  1526.18  1532.54  1558.78
                             1559.09  1672.05  1676.25  1733.86  1804.24
                             1845.27  1883.46  1953.67  1984.21  2034.25
                             2070.00  2089.71  2124.82  2139.25  2168.24
                             2170.93  2184.56  2192.46  2200.33  2207.01
                             2227.00  2240.13  2332.09  2426.10  4364.25
                             4366.98  4389.26  4430.37  4431.93  4471.29
                             4489.61  4497.38  4533.28  4582.34  4603.46
                             4668.43

 Zero-point correction=                           0.202413 (Hartree/Particle)
 Thermal correction to Energy=                    0.213397
 Thermal correction to Enthalpy=                  0.214341
 Thermal correction to Gibbs Free Energy=         0.166160
 Sum of electronic and zero-point Energies=           -497.611018
 Sum of electronic and thermal Energies=              -497.600035
 Sum of electronic and thermal Enthalpies=            -497.599090
 Sum of electronic and thermal Free Energies=         -497.647271

                     E (Thermal)             CV                S
                      KCal/Mol        Cal/Mol-Kelvin    Cal/Mol-Kelvin
 Total                  133.908             42.048            101.404
 Electronic               0.000              0.000              0.000
 Translational            0.889              2.981             41.121
 Rotational               0.889              2.981             30.517
 Vibrational            132.131             36.086             29.767
 Vibration     1          0.602              1.954              3.596
 Vibration     2          0.606              1.941              3.268
 Vibration     3          0.615              1.913              2.802
 Vibration     4          0.619              1.901              2.652
 Vibration     5          0.631              1.862              2.287
 Vibration     6          0.640              1.833              2.090
 Vibration     7          0.640              1.832              2.081
 Vibration     8          0.697              1.661              1.380
 Vibration     9          0.713              1.615              1.259
 Vibration    10          0.728              1.574              1.162
 Vibration    11          0.734              1.556              1.126
 Vibration    12          0.805              1.372              0.811
 Vibration    13          0.817              1.340              0.768
 Vibration    14          0.841              1.284              0.698
 Vibration    15          0.947              1.054              0.468

 Normal termination of Gaussian 09 at Sun Oct  3 19:55:25 2021.
 Gaussian 09:  AM64L-G09RevA.02 11-Jun-2009

 ----------------------------------------------------------------------
 #p TD(NStates=10, Root=1) b3lyp/6-31G* volume pop=NPA density=current
 Geom=AllCheck Guess=Read
 ----------------------------------------------------------------------

 Cc1cc2ncn(c2cc1C)C_conf_0
 -------------------------
 Redundant internal coordinates taken from checkpoint file:
 C10H12N2_6ba2_conf_0.chk
 Charge =  0 Multiplicity = 1

                         Standard orientation:
 ---------------------------------------------------------------------
 Center     Atomic      Atomic             Coordinates (Angstroms)
 Number     Number       Type             X           Y           Z
 ---------------------------------------------------------------------
      1          6           0       -3.278922   -1.020707    0.000117
      2          6           0       -1.834795   -0.571990    0.000032
      3          6           0       -0.817052   -1.524022    0.000085
      4          6           0        0.518984   -1.107139    0.000008
      5          7           0        1.692837   -1.851248    0.000089
      6          6           0        2.643485   -0.952507   -0.000254
      7          7           0        2.195018    0.351156   -0.000191
      8          6           0        0.810949    0.273842   -0.000131
      9          6           0       -0.191308    1.245253   -0.000185
     10          6           0       -1.520483    0.820110   -0.000106
     11          6           0       -2.628060    1.848496   -0.000036
     12          6           0        2.998989    1.555644    0.000355
     13          1           0       -3.348505   -2.112642    0.000935
     14          1           0       -3.822722   -0.654179   -0.880685
     15          1           0       -3.823078   -0.652808    0.880113
     16          1           0       -1.050494   -2.585178    0.000213
     17          1           0        3.705797   -1.168211   -0.000333
     18          1           0        0.043104    2.306865   -0.000276
     19          1           0       -2.222103    2.864934   -0.001188
     20          1           0       -3.276580    1.751003    0.880614
     21          1           0       -3.278072    1.749567   -0.879400
     22          1           0        4.055624    1.277693   -0.000206
     23          1           0        2.795968    2.160312    0.891635
     24          1           0        2.795349    2.161412   -0.890027
 ---------------------------------------------------------------------

 SCF Done:  E(RB3LYP) =  -497.813431297     A.U. after    1 cycles

 Excitation energies and oscillator strengths:

 Excited State   1:      Singlet-A      4.9243 eV  251.78 nm  f=0.0424  <S**2>=0.000
      42 -> 44         0.47721
      42 -> 45         0.23222
      43 -> 44         0.37474
      43 -> 45        -0.27005
 This state for optimization and/or second-order correction.
 Total Energy, E(TD-HF/TD-KS) =  -497.632467663
 Copying the excited state density for this state as the 1-particle RhoCI density.

 Excited State   2:      Singlet-A      5.2115 eV  237.91 nm  f=0.0896  <S**2>=0.000
      42 -> 44        -0.41530
      42 -> 45         0.22250
      43 -> 44         0.49345
      43 -> 45         0.14313

 Excited State   3:      Singlet-A      5.7953 eV  213.94 nm  f=0.0014  <S**2>=0.000
      41 -> 44         0.70071

 Excited State   4:      Singlet-A      6.2334 eV  198.90 nm  f=0.2769  <S**2>=0.000
      40 -> 44         0.15425
      42 -> 44         0.25855
      42 -> 45        -0.10991
      43 -> 44         0.14786
      43 -> 45         0.56964
      43 -> 46         0.18916

 Excited State   5:      Singlet-A      6.4177 eV  193.19 nm  f=0.7713  <S**2>=0.000
      42 -> 45         0.58276
      42 -> 46         0.13620
      43 -> 44        -0.27197
      43 -> 45         0.19167
      43 -> 46        -0.12012

 Excited State   6:      Singlet-A      6.7299 eV  184.23 nm  f=0.1509  <S**2>=0.000
      40 -> 44         0.47720
      42 -> 45         0.16968
      42 -> 46        -0.41700
      43 -> 46         0.21470

 Excited State   7:      Singlet-A      6.8083 eV  182.11 nm  f=0.0230  <S**2>=0.000
      40 -> 45         0.19588
      42 -> 46         0.33780
      43 -> 45        -0.15460
      43 -> 46         0.54942

 Excited State   8:      Singlet-A      6.8293 eV  181.55 nm  f=0.0004  <S**2>=0.000
      41 -> 45         0.70367

 Excited State   9:      Singlet-A      7.2693 eV  170.56 nm  f=0.0001  <S**2>=0.000
      42 -> 47        -0.18667
      43 -> 47         0.67626

 Excited State  10:      Singlet-A      7.2713 eV  170.51 nm  f=0.0604  <S**2>=0.000
      39 -> 44        -0.11868
      40 -> 44         0.47448
      42 -> 46         0.40472
      43 -> 46        -0.23850

 The electronic state is 1-A.
 Alpha  occ. eigenvalues --  -14.38836 -14.30669 -10.24306 -10.24074 -10.21113
 Alpha  occ. eigenvalues --  -10.19559 -10.18919 -10.18527 -10.18435 -10.17971
 Alpha  occ. eigenvalues --  -10.17577 -10.17541  -1.01190  -0.88621  -0.84227
 Alpha  occ. eigenvalues --   -0.76505  -0.75316  -0.72553  -0.68387  -0.67349
 Alpha  occ. eigenvalues --   -0.60211  -0.57913  -0.56728  -0.51958  -0.48221
 Alpha  occ. eigenvalues --   -0.47587  -0.46541  -0.43904  -0.43257  -0.42654
 Alpha  occ. eigenvalues --   -0.41663  -0.40078  -0.40018  -0.39219  -0.38045
 Alpha  occ. eigenvalues --   -0.37347  -0.34348  -0.33788  -0.31463  -0.28682
 Alpha  occ. eigenvalues --   -0.26217  -0.21305  -0.21101
 Alpha virt. eigenvalues --   -0.00510   0.02638   0.06343   0.08444   0.09891
 Alpha virt. eigenvalues --    0.11842   0.12486   0.13570   0.14224   0.14944
 Alpha virt. eigenvalues --    0.15181   0.16083   0.16709   0.17674   0.18257

 Mulliken atomic charges:
              1
     1  C   -0.537056
     2  C    0.136036
     3  C   -0.255689
     4  C    0.233612
     5  N   -0.495124
     6  C    0.182137
     7  N   -0.483653
     8  C    0.338037
     9  C   -0.244363
    10  C    0.105561
    11  C   -0.530970
    12  C   -0.325043
    13  H    0.161946
    14  H    0.166017
    15  H    0.165998
    16  H    0.131036
    17  H    0.147731
    18  H    0.115079
    19  H    0.150650
    20  H    0.153706
    21  H    0.153695
    22  H    0.174760
    23  H    0.177949
    24  H    0.177949
 Sum of Mulliken atomic charges =  -0.00000

 Dipole moment (field-independent basis, Debye):
    X=              0.6322    Y=              3.2608    Z=              0.0002  Tot=              3.3215
 Quadrupole moment (field-independent basis, Debye-Ang):
   XX=            -56.7654   YY=            -72.9978   ZZ=            -73.2511
   XY=              8.4658   XZ=              0.0003   YZ=              0.0007

 Summary of Natural Population Analysis:

                                       Natural Population
                Natural  -----------------------------------------------
    Atom  No    Charge         Core      Valence    Rydberg      Total
 -----------------------------------------------------------------------
      C    1   -0.69717      1.99940     4.69009    0.00768     6.69717
      C    2    0.03256      1.99903     3.95362    0.01479     5.96744
      C    3   -0.25737      1.99898     4.24132    0.01707     6.25737
      C    4    0.12957      1.99899     3.84751    0.02393     5.87043
      N    5   -0.47794      1.99948     5.45616    0.02230     7.47794
      C    6    0.17324      1.99937     3.79719    0.03021     5.82676
      N    7   -0.38450      1.99928     5.37301    0.01220     7.38450
      C    8    0.15492      1.99897     3.82609    0.02002     5.84508
      C    9   -0.29886      1.99898     4.28372    0.01616     6.29886
      C   10   -0.05355      1.99904     4.03886    0.01566     6.05355
      C   11   -0.68818      1.99941     4.68114    0.00764     6.68818
      C   12   -0.46651      1.99947     4.45547    0.01157     6.46651
      H   13    0.24214      0.00000     0.75702    0.00084     0.75786
      H   14    0.24579      0.00000     0.75297    0.00124     0.75421
      H   15    0.24578      0.00000     0.75298    0.00124     0.75422
      H   16    0.23760      0.00000     0.76099    0.00140     0.76240
      H   17    0.21657      0.00000     0.78272    0.00072     0.78343
      H   18    0.22792      0.00000     0.77095    0.00113     0.77208
      H   19    0.23623      0.00000     0.76294    0.00083     0.76377
      H   20    0.23486      0.00000     0.76362    0.00152     0.76514
      H   21    0.23487      0.00000     0.76362    0.00152     0.76513
      H   22    0.24077      0.00000     0.75851    0.00072     0.75923
      H   23    0.23563      0.00000     0.76226    0.00211     0.76437
      H   24    0.23564      0.00000     0.76225    0.00211     0.76436
 =======================================================================
   * Total *    0.00000     23.99039    61.79503    0.21458    86.00000

 Normal termination of Gaussian 09 at Mon Oct  4 00:46:32 2021.
