 Gaussian 09, Revision A.02,

 -----------------------------------
 #p opt b3lyp/6-31G* scf=(xqc,tight)
 -----------------------------------

 -------------------------
 COc1ccc2c(c1)ccn2C_conf_0
 -------------------------
 Symbolic Z-matrix:
 Charge =  0 Multiplicity = 1

 SCF Done:  E(RB3LYP) =  -517.645809347     A.U. after   14 cycles
 SCF Done:  E(RB3LYP) =  -517.649203406     A.U. after   12 cycles
 SCF Done:  E(RB3LYP) =  -517.649563935     A.U. after   11 cycles
 SCF Done:  E(RB3LYP) =  -517.649642932     A.U. after   11 cycles
 SCF Done:  E(RB3LYP) =  -517.649688911     A.U. after   11 cycles
 SCF Done:  E(RB3LYP) =  -517.649705730     A.U. after   10 cycles
 SCF Done:  E(RB3LYP) =  -517.649710872     A.U. after   16 cycles
 Optimization completed.
    -- Stationary point found.
 Normal termination of Gaussian 09 at Tue Sep 28 14:50:30 2021.

 ----------------------------------------------------------------------
 #p freq b3lyp/6-31G* volume NMR pop=NPA density=current Geom=AllCheck
 Guess=Read
 ----------------------------------------------------------------------

 COc1ccc2c(c1)ccn2C_conf_0
 -------------------------
 Redundant internal coordinates taken from checkpoint file:
 C10H11NO_10ad_conf_0.chk
 Charge =  0 Multiplicity = 1

 SCF Done:  E(RB3LYP) =  -517.649710872     A.U. after    1 cycles

  1  C    Isotropic =   137.4911   Anisotropy =    64.7945

  2  O    Isotropic =   245.7596   Anisotropy =    64.0359

  3  C    Isotropic =    43.5394   Anisotropy =   117.6826

  4  C    Isotropic =    82.3624   Anisotropy =   127.6957

  5  C    Isotropic =    85.9435   Anisotropy =   141.0110

  6  C    Isotropic =    66.7145   Anisotropy =   127.4275

  7  C    Isotropic =    66.1279   Anisotropy =   152.8117

  8  C    Isotropic =    94.9504   Anisotropy =   126.9741

  9  C    Isotropic =    94.3953   Anisotropy =   103.1935

 10  C    Isotropic =    68.4966   Anisotropy =    86.9060

 11  N    Isotropic =   131.4761   Anisotropy =    77.6939

 12  C    Isotropic =   156.6046   Anisotropy =    50.1852

 13  H    Isotropic =    28.3123   Anisotropy =     8.3345

 14  H    Isotropic =    28.6124   Anisotropy =     8.1439

 15  H    Isotropic =    28.6129   Anisotropy =     8.1443

 16  H    Isotropic =    25.5731   Anisotropy =     6.2114

 17  H    Isotropic =    25.2699   Anisotropy =     6.9270

 18  H    Isotropic =    25.7363   Anisotropy =     8.3987

 19  H    Isotropic =    26.1819   Anisotropy =     3.4142

 20  H    Isotropic =    25.7148   Anisotropy =     3.7086

 21  H    Isotropic =    28.8551   Anisotropy =     8.3745

 22  H    Isotropic =    28.5633   Anisotropy =     9.6362

 23  H    Isotropic =    28.5659   Anisotropy =     9.6608

  Exact polarizability: 167.781   3.983 120.604   0.008  -0.004  51.002
 Approx polarizability: 249.997  14.721 207.937   0.004   0.004  76.579

                     1                      2                      3
                     A                      A                      A
 Frequencies --    61.9909                76.9530               125.1500
 Red. masses --     1.8335                 1.6420                 2.8250
 Frc consts  --     0.0042                 0.0057                 0.0261
 IR Inten    --     3.3870                 2.4919                 0.0031

                     4                      5                      6
                     A                      A                      A
 Frequencies --   182.9123               195.0857               232.3004
 Red. masses --     2.6989                 3.3182                 4.1724
 Frc consts  --     0.0532                 0.0744                 0.1327
 IR Inten    --     0.8782                 2.8925                 3.9334

                     7                      8                      9
                     A                      A                      A
 Frequencies --   256.8538               263.9454               381.0638
 Red. masses --     3.1165                 1.1943                 5.0176
 Frc consts  --     0.1211                 0.0490                 0.4293
 IR Inten    --     0.3811                 0.0978                 1.0189

                    10                     11                     12
                     A                      A                      A
 Frequencies --   433.1023               438.8212               465.6237
 Red. masses --     4.1657                 3.0302                 4.7641
 Frc consts  --     0.4604                 0.3438                 0.6086
 IR Inten    --     1.2412                 2.6031                 7.2120

                    13                     14                     15
                     A                      A                      A
 Frequencies --   526.1516               588.5615               611.5062
 Red. masses --     4.1029                 3.6758                 5.0633
 Frc consts  --     0.6692                 0.7502                 1.1156
 IR Inten    --     1.3418                 0.5632                 4.2385

                    16                     17                     18
                     A                      A                      A
 Frequencies --   634.4351               673.4805               717.8104
 Red. masses --     3.3679                 4.8471                 1.3721
 Frc consts  --     0.7987                 1.2953                 0.4165
 IR Inten    --     1.0449                 3.7101                33.4107

                    19                     20                     21
                     A                      A                      A
 Frequencies --   764.7708               785.4015               810.5028
 Red. masses --     2.6172                 5.5194                 1.7131
 Frc consts  --     0.9019                 2.0060                 0.6630
 IR Inten    --     9.3012                 0.3535                23.3380

                    22                     23                     24
                     A                      A                      A
 Frequencies --   819.6084               830.7397               854.6854
 Red. masses --     5.7836                 1.2632                 1.5805
 Frc consts  --     2.2891                 0.5136                 0.6802
 IR Inten    --    29.6919                 0.0001                26.3062

                    25                     26                     27
                     A                      A                      A
 Frequencies --   923.4615               963.3435              1034.4789
 Red. masses --     1.2505                 3.0990                 2.0905
 Frc consts  --     0.6283                 1.6945                 1.3181
 IR Inten    --     0.2602                 7.5538                10.4841

                    28                     29                     30
                     A                      A                      A
 Frequencies --  1076.1648              1111.1935              1127.6331
 Red. masses --     4.0132                 1.2323                 2.0875
 Frc consts  --     2.7384                 0.8965                 1.5639
 IR Inten    --    27.5436                13.0869                30.5321

                    31                     32                     33
                     A                      A                      A
 Frequencies --  1160.3398              1174.2473              1187.4108
 Red. masses --     1.2881                 1.4664                 1.2720
 Frc consts  --     1.0218                 1.1913                 1.0567
 IR Inten    --     0.1558                 8.5388                 0.7944

                    34                     35                     36
                     A                      A                      A
 Frequencies --  1192.6608              1227.9947              1279.2770
 Red. masses --     1.8444                 1.5049                 2.1281
 Frc consts  --     1.5457                 1.3371                 2.0520
 IR Inten    --    75.5932                10.9547                44.3137

                    37                     38                     39
                     A                      A                      A
 Frequencies --  1287.1863              1340.0868              1389.9032
 Red. masses --     2.1161                 2.1055                 6.0934
 Frc consts  --     2.0657                 2.2277                 6.9356
 IR Inten    --   216.3407                10.5181                16.8995

                    40                     41                     42
                     A                      A                      A
 Frequencies --  1398.3205              1433.0423              1476.6264
 Red. masses --     4.0316                 4.8063                 1.3260
 Frc consts  --     4.6445                 5.8154                 1.7035
 IR Inten    --     0.2099                 1.8524                67.9781

                    43                     44                     45
                     A                      A                      A
 Frequencies --  1494.7143              1504.9693              1508.4768
 Red. masses --     1.7475                 1.9048                 1.0417
 Frc consts  --     2.3002                 2.5418                 1.3966
 IR Inten    --     2.1924                54.5819                 6.6579

                    46                     47                     48
                     A                      A                      A
 Frequencies --  1518.9249              1538.1852              1541.0849
 Red. masses --     1.0484                 1.1700                 1.8106
 Frc consts  --     1.4251                 1.6309                 2.5336
 IR Inten    --     4.6901                72.2108                96.5444

                    49                     50                     51
                     A                      A                      A
 Frequencies --  1550.2196              1570.3438              1629.8808
 Red. masses --     1.2698                 3.7827                 6.7180
 Frc consts  --     1.7979                 5.4959                10.5148
 IR Inten    --     7.0403                 9.0793                23.4195

                    52                     53                     54
                     A                      A                      A
 Frequencies --  1677.1743              3016.3785              3040.9579
 Red. masses --     6.3815                 1.0351                 1.0358
 Frc consts  --    10.5763                 5.5488                 5.6433
 IR Inten    --    44.3292                59.7281                70.2218

                    55                     56                     57
                     A                      A                      A
 Frequencies --  3071.0818              3092.2038              3148.7900
 Red. masses --     1.1061                 1.1056                 1.0990
 Frc consts  --     6.1468                 6.2286                 6.4202
 IR Inten    --    50.7171                28.0299                34.3958

                    58                     59                     60
                     A                      A                      A
 Frequencies --  3150.3252              3193.5019              3217.8034
 Red. masses --     1.1001                 1.0883                 1.0935
 Frc consts  --     6.4326                 6.5394                 6.6708
 IR Inten    --    10.3808                11.0842                 9.7437

                    61                     62                     63
                     A                      A                      A
 Frequencies --  3221.7788              3252.3909              3271.2610
 Red. masses --     1.0895                 1.0889                 1.1032
 Frc consts  --     6.6630                 6.7868                 6.9559
 IR Inten    --    11.5657                 1.6401                 7.5551

 - Thermochemistry -
 -------------------
 Temperature   298.150 Kelvin.  Pressure   1.00000 Atm.
 Atom     1 has atomic number  6 and mass  12.00000

 Molecular mass:   161.08406 amu.
 Principal axes and moments of inertia in atomic units:
                           1         2         3
     Eigenvalues --   746.376103054.265653777.72964
           X            0.99970  -0.02437   0.00001
           Y            0.02437   0.99970  -0.00001
           Z           -0.00001   0.00001   1.00000
 This molecule is an asymmetric top.
 Rotational symmetry number  1.
 Warning -- assumption of classical behavior for rotation
           may cause significant error
 Rotational temperatures (Kelvin)      0.11605     0.02836     0.02293
 Rotational constants (GHZ):           2.41801     0.59089     0.47773
 Zero-point vibrational energy     500788.3 (Joules/Mol)
                                  119.69129 (Kcal/Mol)
 Warning -- explicit consideration of  15 degrees of freedom as
           vibrations may cause significant error
 Vibrational temperatures:     89.19   110.72   180.06   263.17   280.68
          (Kelvin)            334.23   369.55   379.76   548.27   623.14
                              631.37   669.93   757.01   846.81   879.82
                              912.81   968.99  1032.77  1100.33  1130.02
                             1166.13  1179.23  1195.25  1229.70  1328.65
                             1386.03  1488.38  1548.36  1598.76  1622.41
                             1669.47  1689.48  1708.42  1715.97  1766.81
                             1840.59  1851.97  1928.08  1999.76  2011.87
                             2061.83  2124.53  2150.56  2165.31  2170.36
                             2185.39  2213.10  2217.27  2230.42  2259.37
                             2345.03  2413.08  4339.89  4375.25  4418.60
                             4448.99  4530.40  4532.61  4594.73  4629.70
                             4635.42  4679.46  4706.61

 Zero-point correction=                           0.190740 (Hartree/Particle)
 Thermal correction to Energy=                    0.201331
 Thermal correction to Enthalpy=                  0.202276
 Thermal correction to Gibbs Free Energy=         0.154359
 Sum of electronic and zero-point Energies=           -517.458971
 Sum of electronic and thermal Energies=              -517.448379
 Sum of electronic and thermal Enthalpies=            -517.447435
 Sum of electronic and thermal Free Energies=         -517.495351

                     E (Thermal)             CV                S
                      KCal/Mol        Cal/Mol-Kelvin    Cal/Mol-Kelvin
 Total                  126.337             40.724            100.848
 Electronic               0.000              0.000              0.000
 Translational            0.889              2.981             41.139
 Rotational               0.889              2.981             30.533
 Vibrational            124.560             34.762             29.176
 Vibration     1          0.597              1.972              4.393
 Vibration     2          0.599              1.965              3.967
 Vibration     3          0.610              1.928              3.019
 Vibration     4          0.630              1.863              2.298
 Vibration     5          0.636              1.847              2.179
 Vibration     6          0.653              1.792              1.861
 Vibration     7          0.666              1.751              1.683
 Vibration     8          0.671              1.739              1.636
 Vibration     9          0.751              1.511              1.035
 Vibration    10          0.794              1.398              0.849
 Vibration    11          0.799              1.386              0.830
 Vibration    12          0.823              1.326              0.750
 Vibration    13          0.881              1.192              0.596
 Vibration    14          0.946              1.056              0.470
 Vibration    15          0.971              1.007              0.430

 Normal termination of Gaussian 09 at Tue Sep 28 14:59:21 2021.
 Gaussian 09:  AM64L-G09RevA.02 11-Jun-2009

 ----------------------------------------------------------------------
 #p TD(NStates=10, Root=1) b3lyp/6-31G* volume pop=NPA density=current
 Geom=AllCheck Guess=Read
 ----------------------------------------------------------------------

 COc1ccc2c(c1)ccn2C_conf_0
 -------------------------
 Redundant internal coordinates taken from checkpoint file:
 C10H11NO_10ad_conf_0.chk
 Charge =  0 Multiplicity = 1

                         Standard orientation:
 ---------------------------------------------------------------------
 Center     Atomic      Atomic             Coordinates (Angstroms)
 Number     Number       Type             X           Y           Z
 ---------------------------------------------------------------------
      1          6           0       -3.916399    0.619928    0.000271
      2          8           0       -3.109989   -0.542208   -0.000014
      3          6           0       -1.746679   -0.376958    0.000039
      4          6           0       -1.011502   -1.587017   -0.000110
      5          6           0        0.373803   -1.584595   -0.000283
      6          6           0        1.027340   -0.345562   -0.000332
      7          6           0        0.307656    0.878390   -0.000042
      8          6           0       -1.101928    0.855493    0.000046
      9          6           0        1.283813    1.929159   -0.000088
     10          6           0        2.517235    1.328133    0.000119
     11          7           0        2.379708   -0.046839   -0.000677
     12          6           0        3.454357   -1.015364    0.000663
     13          1           0       -4.951240    0.270735    0.000249
     14          1           0       -3.742395    1.235504   -0.893424
     15          1           0       -3.742256    1.235053    0.894228
     16          1           0       -1.568935   -2.518168   -0.000096
     17          1           0        0.925740   -2.520440   -0.000337
     18          1           0       -1.657819    1.786337    0.000006
     19          1           0        1.096171    2.994215   -0.000321
     20          1           0        3.505311    1.769005    0.000255
     21          1           0        4.410348   -0.486891   -0.003367
     22          1           0        3.408469   -1.657784   -0.887303
     23          1           0        3.412379   -1.651661    0.893270
 ---------------------------------------------------------------------

 SCF Done:  E(RB3LYP) =  -517.649710872     A.U. after    1 cycles

 Excitation energies and oscillator strengths:

 Excited State   1:      Singlet-A      4.5363 eV  273.32 nm  f=0.0518  <S**2>=0.000
      42 -> 45        -0.18540
      43 -> 44         0.66850
 This state for optimization and/or second-order correction.
 Total Energy, E(TD-HF/TD-KS) =  -517.483006294
 Copying the excited state density for this state as the 1-particle RhoCI density.

 Excited State   2:      Singlet-A      4.8751 eV  254.32 nm  f=0.1006  <S**2>=0.000
      42 -> 44         0.63230
      43 -> 45         0.26436

 Excited State   3:      Singlet-A      6.1056 eV  203.07 nm  f=0.1377  <S**2>=0.000
      40 -> 44        -0.11184
      41 -> 44        -0.18115
      42 -> 44         0.15499
      42 -> 45         0.62285
      43 -> 44         0.13550

 Excited State   4:      Singlet-A      6.1436 eV  201.81 nm  f=0.6002  <S**2>=0.000
      41 -> 44        -0.20309
      42 -> 44        -0.21132
      43 -> 45         0.61891

 Excited State   5:      Singlet-A      6.5083 eV  190.50 nm  f=0.0703  <S**2>=0.000
      40 -> 44        -0.12626
      41 -> 44         0.49786
      42 -> 45         0.17361
      43 -> 46        -0.41914

 Excited State   6:      Singlet-A      6.7196 eV  184.51 nm  f=0.3092  <S**2>=0.000
      41 -> 44         0.25409
      41 -> 45         0.16204
      42 -> 44        -0.13754
      42 -> 46         0.38164
      43 -> 45         0.14216
      43 -> 46         0.45158

 Excited State   7:      Singlet-A      6.7774 eV  182.94 nm  f=0.0020  <S**2>=0.000
      42 -> 47        -0.10381
      43 -> 47         0.68787

 Excited State   8:      Singlet-A      6.9564 eV  178.23 nm  f=0.0002  <S**2>=0.000
      42 -> 47         0.68670

 Excited State   9:      Singlet-A      7.0352 eV  176.23 nm  f=0.0721  <S**2>=0.000
      40 -> 44         0.44404
      41 -> 44        -0.17164
      41 -> 45         0.14951
      41 -> 46        -0.10076
      42 -> 46         0.40671
      43 -> 46        -0.24696

 Excited State  10:      Singlet-A      7.2594 eV  170.79 nm  f=0.0099  <S**2>=0.000
      43 -> 48         0.67846
      43 -> 50        -0.11764

 The electronic state is 1-A.
 Alpha  occ. eigenvalues --  -19.16225 -14.37486 -10.23079 -10.23001 -10.22946
 Alpha  occ. eigenvalues --  -10.20974 -10.20184 -10.18352 -10.17633 -10.17272
 Alpha  occ. eigenvalues --  -10.17249 -10.16505  -1.04743  -0.97762  -0.83278
 Alpha  occ. eigenvalues --   -0.79028  -0.74049  -0.72390  -0.69126  -0.67230
 Alpha  occ. eigenvalues --   -0.60420  -0.57484  -0.56065  -0.51782  -0.50429
 Alpha  occ. eigenvalues --   -0.48104  -0.46288  -0.45506  -0.45037  -0.43796
 Alpha  occ. eigenvalues --   -0.41770  -0.40835  -0.39380  -0.38475  -0.38442
 Alpha  occ. eigenvalues --   -0.37533  -0.34475  -0.34067  -0.31425  -0.28445
 Alpha  occ. eigenvalues --   -0.26309  -0.19619  -0.18849
 Alpha virt. eigenvalues --   -0.00057   0.04476   0.07985   0.09030   0.10972
 Alpha virt. eigenvalues --    0.11721   0.12348   0.14238   0.15258   0.16189
 Alpha virt. eigenvalues --    0.16328   0.16699   0.17346   0.17686   0.18533

 Mulliken atomic charges:
              1
     1  C   -0.218936
     2  O   -0.467513
     3  C    0.372445
     4  C   -0.229394
     5  C   -0.196949
     6  C    0.298940
     7  C    0.101454
     8  C   -0.290513
     9  C   -0.215634
    10  C   -0.002073
    11  N   -0.461814
    12  C   -0.322531
    13  H    0.171555
    14  H    0.162143
    15  H    0.162149
    16  H    0.112029
    17  H    0.105144
    18  H    0.119167
    19  H    0.130325
    20  H    0.135645
    21  H    0.171844
    22  H    0.181267
    23  H    0.181251
 Sum of Mulliken atomic charges =  -0.00000

 Dipole moment (field-independent basis, Debye):
    X=              1.0850    Y=              1.0978    Z=              0.0011  Tot=              1.5436
 Quadrupole moment (field-independent basis, Debye-Ang):
   XX=            -50.0452   YY=            -67.0083   ZZ=            -74.0067
   XY=             -8.3721   XZ=              0.0007   YZ=             -0.0008

 Summary of Natural Population Analysis:

                                       Natural Population
                Natural  -----------------------------------------------
    Atom  No    Charge         Core      Valence    Rydberg      Total
 -----------------------------------------------------------------------
      C    1   -0.32250      1.99943     4.30879    0.01428     6.32250
      O    2   -0.45681      1.99975     6.44535    0.01170     8.45681
      C    3    0.35150      1.99880     3.62703    0.02267     5.64850
      C    4   -0.36107      1.99909     4.34271    0.01927     6.36107
      C    5   -0.32518      1.99903     4.30857    0.01758     6.32518
      C    6    0.15994      1.99900     3.82160    0.01946     5.84006
      C    7   -0.10020      1.99905     4.08389    0.01726     6.10020
      C    8   -0.32763      1.99898     4.31346    0.01519     6.32763
      C    9   -0.24707      1.99904     4.23464    0.01339     6.24707
      C   10   -0.11283      1.99916     4.09281    0.02085     6.11283
      N   11   -0.31457      1.99928     5.30376    0.01153     7.31457
      C   12   -0.46615      1.99947     4.45497    0.01172     6.46615
      H   13    0.22850      0.00000     0.77095    0.00056     0.77150
      H   14    0.21030      0.00000     0.78772    0.00198     0.78970
      H   15    0.21031      0.00000     0.78772    0.00198     0.78969
      H   16    0.23573      0.00000     0.76324    0.00103     0.76427
      H   17    0.22735      0.00000     0.77174    0.00091     0.77265
      H   18    0.22912      0.00000     0.76975    0.00113     0.77088
      H   19    0.23835      0.00000     0.76106    0.00059     0.76165
      H   20    0.22477      0.00000     0.77470    0.00053     0.77523
      H   21    0.23944      0.00000     0.75986    0.00070     0.76056
      H   22    0.23939      0.00000     0.75852    0.00209     0.76061
      H   23    0.23931      0.00000     0.75859    0.00210     0.76069
 =======================================================================
   * Total *    0.00000     23.99008    61.80145    0.20847    86.00000

 Normal termination of Gaussian 09 at Tue Sep 28 15:13:37 2021.
