 Gaussian 09, Revision A.02,

 -----------------------------------
 #p opt b3lyp/6-31G* scf=(xqc,tight)
 -----------------------------------

 -----------------------
 OCCCc1ccc(cc1)OC_conf_0
 -----------------------
 Symbolic Z-matrix:
 Charge =  0 Multiplicity = 1

 SCF Done:  E(RB3LYP) =  -539.917752073     A.U. after   14 cycles
 SCF Done:  E(RB3LYP) =  -539.919880053     A.U. after   12 cycles
 SCF Done:  E(RB3LYP) =  -539.920006976     A.U. after   11 cycles
 SCF Done:  E(RB3LYP) =  -539.920023769     A.U. after   10 cycles
 SCF Done:  E(RB3LYP) =  -539.920030751     A.U. after    9 cycles
 SCF Done:  E(RB3LYP) =  -539.920036708     A.U. after   10 cycles
 SCF Done:  E(RB3LYP) =  -539.920038339     A.U. after    8 cycles
 SCF Done:  E(RB3LYP) =  -539.920038449     A.U. after    7 cycles
 Optimization completed.
    -- Stationary point found.
 Normal termination of Gaussian 09 at Thu Sep 30 11:30:29 2021.

 ----------------------------------------------------------------------
 #p freq b3lyp/6-31G* volume NMR pop=NPA density=current Geom=AllCheck
 Guess=Read
 ----------------------------------------------------------------------

 OCCCc1ccc(cc1)OC_conf_0
 -----------------------
 Redundant internal coordinates taken from checkpoint file:
 C10H14O2_f67b_conf_0.chk
 Charge =  0 Multiplicity = 1

 SCF Done:  E(RB3LYP) =  -539.920038449     A.U. after    1 cycles

  1  O    Isotropic =   294.3877   Anisotropy =   105.0269

  2  C    Isotropic =   127.0867   Anisotropy =    47.2203

  3  C    Isotropic =   151.8653   Anisotropy =    31.0613

  4  C    Isotropic =   154.7576   Anisotropy =    30.9196

  5  C    Isotropic =    61.9349   Anisotropy =   173.7387

  6  C    Isotropic =    66.6049   Anisotropy =   148.4052

  7  C    Isotropic =    86.6618   Anisotropy =   141.9974

  8  C    Isotropic =    40.7107   Anisotropy =   125.9165

  9  C    Isotropic =    78.4965   Anisotropy =   134.0453

 10  C    Isotropic =    66.4639   Anisotropy =   149.3162

 11  O    Isotropic =   240.6663   Anisotropy =    74.3378

 12  C    Isotropic =   137.6564   Anisotropy =    64.7021

 13  H    Isotropic =    32.1135   Anisotropy =    18.8911

 14  H    Isotropic =    28.2943   Anisotropy =     6.7342

 15  H    Isotropic =    28.3982   Anisotropy =     6.1212

 16  H    Isotropic =    30.2662   Anisotropy =     4.7869

 17  H    Isotropic =    30.7718   Anisotropy =     5.3107

 18  H    Isotropic =    29.9344   Anisotropy =     5.5963

 19  H    Isotropic =    29.0160   Anisotropy =     4.6130

 20  H    Isotropic =    25.1520   Anisotropy =     7.6943

 21  H    Isotropic =    25.8729   Anisotropy =     7.2958

 22  H    Isotropic =    25.5775   Anisotropy =     5.7608

 23  H    Isotropic =    25.2231   Anisotropy =     7.2227

 24  H    Isotropic =    28.3501   Anisotropy =     8.0938

 25  H    Isotropic =    28.6872   Anisotropy =     8.0349

 26  H    Isotropic =    28.6714   Anisotropy =     7.9637

  Exact polarizability: 161.234  -4.825 108.180   7.677   1.169  65.631
 Approx polarizability: 207.435  -1.614 182.686  15.828   2.955  95.714

                     1                      2                      3
                     A                      A                      A
 Frequencies --    32.3696                43.7393                58.7556
 Red. masses --     3.0886                 4.4721                 3.4466
 Frc consts  --     0.0019                 0.0050                 0.0070
 IR Inten    --     1.9872                 0.9654                 2.8186

                     4                      5                      6
                     A                      A                      A
 Frequencies --   102.4452               140.3568               195.5218
 Red. masses --     3.6397                 3.9926                 2.6610
 Frc consts  --     0.0225                 0.0463                 0.0599
 IR Inten    --     1.5786                 4.7709                 5.2275

                     7                      8                      9
                     A                      A                      A
 Frequencies --   228.0576               240.4682               259.5657
 Red. masses --     2.7608                 1.6263                 1.2920
 Frc consts  --     0.0846                 0.0554                 0.0513
 IR Inten    --     3.6962                47.3436                 0.6196

                    10                     11                     12
                     A                      A                      A
 Frequencies --   290.2521               347.8302               387.6096
 Red. masses --     1.3384                 2.5941                 4.6136
 Frc consts  --     0.0664                 0.1849                 0.4084
 IR Inten    --    65.6932                 1.9344                 6.4107

                    13                     14                     15
                     A                      A                      A
 Frequencies --   426.2499               429.9647               490.7142
 Red. masses --     3.4015                 3.6796                 2.9819
 Frc consts  --     0.3641                 0.4008                 0.4231
 IR Inten    --     3.1168                 5.1300                 7.1512

                    16                     17                     18
                     A                      A                      A
 Frequencies --   535.0489               573.7648               654.2757
 Red. masses --     2.8182                 3.2436                 6.7033
 Frc consts  --     0.4753                 0.6291                 1.6907
 IR Inten    --     9.4120                 5.4943                 0.4153

                    19                     20                     21
                     A                      A                      A
 Frequencies --   723.7198               756.9567               783.0744
 Red. masses --     3.8386                 2.2102                 1.7497
 Frc consts  --     1.1846                 0.7461                 0.6321
 IR Inten    --     1.8930                 4.3960                 7.0749

                    22                     23                     24
                     A                      A                      A
 Frequencies --   825.0762               837.8374               857.8766
 Red. masses --     1.4146                 1.8404                 2.8469
 Frc consts  --     0.5674                 0.7612                 1.2344
 IR Inten    --    13.5113                16.7458                16.3735

                    25                     26                     27
                     A                      A                      A
 Frequencies --   900.1885               936.1722               943.9206
 Red. masses --     2.0868                 1.9566                 1.3441
 Frc consts  --     0.9963                 1.0103                 0.7056
 IR Inten    --     1.8133                13.6175                 0.5307

                    28                     29                     30
                     A                      A                      A
 Frequencies --   958.7775              1032.6483              1049.9948
 Red. masses --     1.3168                 2.7976                 2.1205
 Frc consts  --     0.7132                 1.7577                 1.3774
 IR Inten    --     0.1865                 0.5504                 8.4429

                    31                     32                     33
                     A                      A                      A
 Frequencies --  1081.1212              1091.7866              1109.8418
 Red. masses --     5.7418                 2.4270                 2.5641
 Frc consts  --     3.9541                 1.7045                 1.8608
 IR Inten    --    46.2875                57.5239                25.4420

                    34                     35                     36
                     A                      A                      A
 Frequencies --  1143.8929              1176.3852              1185.2334
 Red. masses --     1.3543                 1.1458                 1.2713
 Frc consts  --     1.0441                 0.9343                 1.0522
 IR Inten    --     7.8851                 2.8397                 0.7861

                    37                     38                     39
                     A                      A                      A
 Frequencies --  1210.8462              1217.7298              1236.9824
 Red. masses --     1.1575                 1.4018                 2.4963
 Frc consts  --     0.9999                 1.2248                 2.2505
 IR Inten    --    20.6833                 8.6083                 0.6400

                    40                     41                     42
                     A                      A                      A
 Frequencies --  1255.6871              1289.5735              1298.7676
 Red. masses --     1.1615                 1.8026                 2.3510
 Frc consts  --     1.0790                 1.7662                 2.3365
 IR Inten    --    15.8521               104.7830               207.9769

                    43                     44                     45
                     A                      A                      A
 Frequencies --  1336.2402              1343.1509              1350.2823
 Red. masses --     1.3143                 1.2368                 1.6616
 Frc consts  --     1.3826                 1.3147                 1.7850
 IR Inten    --    14.6369                 6.4534                19.1745

                    46                     47                     48
                     A                      A                      A
 Frequencies --  1372.6400              1410.9965              1468.5242
 Red. masses --     2.4454                 1.5030                 2.7572
 Frc consts  --     2.7146                 1.7630                 3.5034
 IR Inten    --    20.4183                 1.3074                 0.1314

                    49                     50                     51
                     A                      A                      A
 Frequencies --  1471.6962              1498.9225              1505.6066
 Red. masses --     1.4724                 1.1944                 1.0899
 Frc consts  --     1.8789                 1.5811                 1.4556
 IR Inten    --    16.9705                15.4476                 3.3777

                    52                     53                     54
                     A                      A                      A
 Frequencies --  1519.7846              1529.3220              1535.4820
 Red. masses --     1.0487                 1.1002                 1.0641
 Frc consts  --     1.4271                 1.5160                 1.4782
 IR Inten    --     5.0169                 3.6189                43.8756

                    55                     56                     57
                     A                      A                      A
 Frequencies --  1549.2905              1566.7793              1634.2249
 Red. masses --     1.0884                 2.4289                 6.4615
 Frc consts  --     1.5393                 3.5129                10.1674
 IR Inten    --     4.3216               108.5085                11.3998

                    58                     59                     60
                     A                      A                      A
 Frequencies --  1675.6536              2979.0495              3006.5614
 Red. masses --     5.8024                 1.0565                 1.1048
 Frc consts  --     9.5990                 5.5241                 5.8841
 IR Inten    --    44.7861                71.3354                65.9049

                    61                     62                     63
                     A                      A                      A
 Frequencies --  3021.5285              3033.4808              3047.7688
 Red. masses --     1.0349                 1.0673                 1.0638
 Frc consts  --     5.5669                 5.7865                 5.8222
 IR Inten    --    59.8187                23.7001                43.7851

                    64                     65                     66
                     A                      A                      A
 Frequencies --  3078.5588              3082.6673              3105.2341
 Red. masses --     1.1065                 1.0978                 1.0995
 Frc consts  --     6.1787                 6.1465                 6.2467
 IR Inten    --    46.9524                16.7662                28.0397

                    67                     68                     69
                     A                      A                      A
 Frequencies --  3153.6093              3174.0552              3177.6685
 Red. masses --     1.0994                 1.0886                 1.0890
 Frc consts  --     6.4417                 6.4617                 6.4789
 IR Inten    --    30.5185                18.9237                15.6725

                    70                     71                     72
                     A                      A                      A
 Frequencies --  3211.6898              3222.2873              3757.0711
 Red. masses --     1.0928                 1.0912                 1.0664
 Frc consts  --     6.6414                 6.6753                 8.8693
 IR Inten    --     9.8409                13.3738                13.7388

 - Thermochemistry -
 -------------------
 Temperature   298.150 Kelvin.  Pressure   1.00000 Atm.
 Atom     1 has atomic number  8 and mass  15.99491

 Molecular mass:   166.09938 amu.
 Principal axes and moments of inertia in atomic units:
                           1         2         3
     Eigenvalues --   579.106635304.383205658.70302
           X            0.99991  -0.01357  -0.00067
           Y            0.01357   0.99991  -0.00076
           Z            0.00068   0.00075   1.00000
 This molecule is an asymmetric top.
 Rotational symmetry number  1.
 Warning -- assumption of classical behavior for rotation
           may cause significant error
 Rotational temperatures (Kelvin)      0.14956     0.01633     0.01531
 Rotational constants (GHZ):           3.11642     0.34024     0.31893
 Zero-point vibrational energy     587132.6 (Joules/Mol)
                                  140.32806 (Kcal/Mol)
 Warning -- explicit consideration of  17 degrees of freedom as
           vibrations may cause significant error
 Vibrational temperatures:     46.57    62.93    84.54   147.40   201.94
          (Kelvin)            281.31   328.12   345.98   373.46   417.61
                              500.45   557.68   613.28   618.62   706.03
                              769.82   825.52   941.36  1041.27  1089.09
                             1126.67  1187.10  1205.46  1234.29  1295.17
                             1346.94  1358.09  1379.47  1485.75  1510.71
                             1555.49  1570.84  1596.81  1645.80  1692.55
                             1705.28  1742.14  1752.04  1779.74  1806.65
                             1855.41  1868.63  1922.55  1932.49  1942.75
                             1974.92  2030.11  2112.88  2117.44  2156.61
                             2166.23  2186.63  2200.35  2209.21  2229.08
                             2254.24  2351.28  2410.89  4286.18  4325.77
                             4347.30  4364.50  4385.05  4429.35  4435.27
                             4467.73  4537.33  4566.75  4571.95  4620.90
                             4636.15  5405.58

 Zero-point correction=                           0.223627 (Hartree/Particle)
 Thermal correction to Energy=                    0.235909
 Thermal correction to Enthalpy=                  0.236853
 Thermal correction to Gibbs Free Energy=         0.183807
 Sum of electronic and zero-point Energies=           -539.696411
 Sum of electronic and thermal Energies=              -539.684130
 Sum of electronic and thermal Enthalpies=            -539.683186
 Sum of electronic and thermal Free Energies=         -539.736232

                     E (Thermal)             CV                S
                      KCal/Mol        Cal/Mol-Kelvin    Cal/Mol-Kelvin
 Total                  148.035             45.315            111.645
 Electronic               0.000              0.000              0.000
 Translational            0.889              2.981             41.231
 Rotational               0.889              2.981             31.231
 Vibrational            146.257             39.353             39.184
 Vibration     1          0.594              1.983              5.679
 Vibration     2          0.595              1.980              5.082
 Vibration     3          0.596              1.974              4.499
 Vibration     4          0.605              1.947              3.407
 Vibration     5          0.615              1.913              2.799
 Vibration     6          0.636              1.846              2.175
 Vibration     7          0.651              1.798              1.894
 Vibration     8          0.658              1.778              1.799
 Vibration     9          0.668              1.747              1.665
 Vibration    10          0.686              1.692              1.472
 Vibration    11          0.725              1.580              1.176
 Vibration    12          0.756              1.497              1.009
 Vibration    13          0.788              1.413              0.871
 Vibration    14          0.791              1.405              0.859
 Vibration    15          0.847              1.271              0.682
 Vibration    16          0.890              1.173              0.576
 Vibration    17          0.930              1.088              0.497

 Normal termination of Gaussian 09 at Thu Sep 30 12:09:13 2021.
 Gaussian 09:  AM64L-G09RevA.02 11-Jun-2009

 ----------------------------------------------------------------------
 #p TD(NStates=10, Root=1) b3lyp/6-31G* volume pop=NPA density=current
 Geom=AllCheck Guess=Read
 ----------------------------------------------------------------------

 OCCCc1ccc(cc1)OC_conf_0
 -----------------------
 Redundant internal coordinates taken from checkpoint file:
 C10H14O2_f67b_conf_0.chk
 Charge =  0 Multiplicity = 1

                         Standard orientation:
 ---------------------------------------------------------------------
 Center     Atomic      Atomic             Coordinates (Angstroms)
 Number     Number       Type             X           Y           Z
 ---------------------------------------------------------------------
      1          8           0       -4.524305   -1.006986   -0.131261
      2          6           0       -4.178424    0.222969    0.501942
      3          6           0       -2.667806    0.250528    0.699231
      4          6           0       -1.880847    0.222187   -0.626022
      5          6           0       -0.380913    0.219827   -0.425583
      6          6           0        0.337936   -0.975309   -0.341080
      7          6           0        1.719384   -0.993907   -0.124139
      8          6           0        2.412407    0.213109    0.012935
      9          6           0        1.709739    1.423606   -0.069969
     10          6           0        0.337229    1.418706   -0.285322
     11          8           0        3.760182    0.320898    0.222668
     12          6           0        4.519912   -0.872222    0.306464
     13          1           0       -5.477170   -0.996147   -0.305641
     14          1           0       -4.680231    0.316883    1.478936
     15          1           0       -4.490058    1.084229   -0.113233
     16          1           0       -2.378194   -0.609726    1.315982
     17          1           0       -2.405539    1.151678    1.269625
     18          1           0       -2.172089    1.094021   -1.228730
     19          1           0       -2.187292   -0.664725   -1.190607
     20          1           0       -0.187436   -1.921814   -0.450673
     21          1           0        2.236659   -1.945327   -0.070821
     22          1           0        2.262659    2.352556    0.031680
     23          1           0       -0.190289    2.368252   -0.352771
     24          1           0        5.552844   -0.559944    0.472720
     25          1           0        4.463645   -1.455061   -0.622990
     26          1           0        4.193775   -1.503138    1.144525
 ---------------------------------------------------------------------

 SCF Done:  E(RB3LYP) =  -539.920038449     A.U. after    1 cycles

 Excitation energies and oscillator strengths:

 Excited State   1:      Singlet-A      5.0722 eV  244.44 nm  f=0.0287  <S**2>=0.000
      44 -> 47        -0.29893
      45 -> 46         0.63545
 This state for optimization and/or second-order correction.
 Total Energy, E(TD-HF/TD-KS) =  -539.733637329
 Copying the excited state density for this state as the 1-particle RhoCI density.

 Excited State   2:      Singlet-A      5.8337 eV  212.53 nm  f=0.2144  <S**2>=0.000
      44 -> 46         0.29532
      45 -> 47         0.63327

 Excited State   3:      Singlet-A      6.8462 eV  181.10 nm  f=0.0133  <S**2>=0.000
      43 -> 46         0.69527

 Excited State   4:      Singlet-A      6.9083 eV  179.47 nm  f=0.5303  <S**2>=0.000
      42 -> 46        -0.15135
      44 -> 46         0.44720
      44 -> 47        -0.39863
      45 -> 46        -0.20227
      45 -> 47        -0.22939

 Excited State   5:      Singlet-A      6.9455 eV  178.51 nm  f=0.4597  <S**2>=0.000
      42 -> 46         0.18090
      43 -> 46        -0.11838
      44 -> 46         0.42813
      44 -> 47         0.42928
      45 -> 46         0.17918
      45 -> 47        -0.17050

 Excited State   6:      Singlet-A      7.1075 eV  174.44 nm  f=0.0064  <S**2>=0.000
      45 -> 48         0.68176
      45 -> 49        -0.13154

 Excited State   7:      Singlet-A      7.2008 eV  172.18 nm  f=0.0069  <S**2>=0.000
      43 -> 47         0.69516

 Excited State   8:      Singlet-A      7.2507 eV  171.00 nm  f=0.0124  <S**2>=0.000
      45 -> 48         0.13171
      45 -> 49         0.67568

 Excited State   9:      Singlet-A      7.5956 eV  163.23 nm  f=0.0014  <S**2>=0.000
      40 -> 46        -0.21273
      41 -> 46         0.65855

 Excited State  10:      Singlet-A      7.6735 eV  161.57 nm  f=0.0051  <S**2>=0.000
      43 -> 48         0.55581
      45 -> 50        -0.41441

 The electronic state is 1-A.
 Alpha  occ. eigenvalues --  -19.17073 -19.14021 -10.23779 -10.23643 -10.22783
 Alpha  occ. eigenvalues --  -10.18047 -10.18023 -10.17977 -10.17942 -10.17773
 Alpha  occ. eigenvalues --  -10.17628 -10.17599  -1.05619  -1.01148  -0.84434
 Alpha  occ. eigenvalues --   -0.78461  -0.74468  -0.73548  -0.69937  -0.65348
 Alpha  occ. eigenvalues --   -0.60233  -0.58688  -0.56370  -0.52521  -0.51491
 Alpha  occ. eigenvalues --   -0.47875  -0.46689  -0.46243  -0.44430  -0.43198
 Alpha  occ. eigenvalues --   -0.42303  -0.41247  -0.40488  -0.39239  -0.37012
 Alpha  occ. eigenvalues --   -0.35837  -0.35020  -0.34470  -0.33129  -0.31812
 Alpha  occ. eigenvalues --   -0.31596  -0.30170  -0.26380  -0.24170  -0.20579
 Alpha virt. eigenvalues --    0.00718   0.02143   0.07400   0.09695   0.10805
 Alpha virt. eigenvalues --    0.12170   0.13632   0.13972   0.14661   0.15769
 Alpha virt. eigenvalues --    0.15928   0.16896   0.17196   0.18107   0.18450

 Mulliken atomic charges:
              1
     1  O   -0.615627
     2  C   -0.032922
     3  C   -0.257901
     4  C   -0.349273
     5  C    0.191518
     6  C   -0.221538
     7  C   -0.199074
     8  C    0.351977
     9  C   -0.189564
    10  C   -0.212493
    11  O   -0.449247
    12  C   -0.225229
    13  H    0.392156
    14  H    0.122408
    15  H    0.116691
    16  H    0.154134
    17  H    0.139847
    18  H    0.135873
    19  H    0.167544
    20  H    0.116844
    21  H    0.117675
    22  H    0.121710
    23  H    0.107860
    24  H    0.175676
    25  H    0.170641
    26  H    0.170312
 Sum of Mulliken atomic charges =  -0.00000

 Dipole moment (field-independent basis, Debye):
    X=             -0.0574    Y=             -0.5862    Z=              0.5374  Tot=              0.7973
 Quadrupole moment (field-independent basis, Debye-Ang):
   XX=            -45.5695   YY=            -70.9917   ZZ=            -74.2916
   XY=             -9.8423   XZ=              1.1551   YZ=             -0.1552

 Summary of Natural Population Analysis:

                                       Natural Population
                Natural  -----------------------------------------------
    Atom  No    Charge         Core      Valence    Rydberg      Total
 -----------------------------------------------------------------------
      O    1   -0.75798      1.99983     6.74549    0.01266     8.75798
      C    2   -0.09275      1.99926     4.07737    0.01611     6.09275
      C    3   -0.46720      1.99929     4.45644    0.01147     6.46720
      C    4   -0.48129      1.99927     4.46743    0.01458     6.48129
      C    5    0.04272      1.99904     3.94060    0.01764     5.95728
      C    6   -0.28297      1.99906     4.26475    0.01916     6.28297
      C    7   -0.33898      1.99905     4.32237    0.01756     6.33898
      C    8    0.33052      1.99879     3.64761    0.02308     5.66948
      C    9   -0.31600      1.99906     4.29611    0.02082     6.31600
      C   10   -0.28977      1.99906     4.27239    0.01832     6.28977
      O   11   -0.43054      1.99975     6.41911    0.01168     8.43054
      C   12   -0.32471      1.99942     4.31117    0.01412     6.32471
      H   13    0.47257      0.00000     0.52595    0.00148     0.52743
      H   14    0.19975      0.00000     0.79841    0.00184     0.80025
      H   15    0.19027      0.00000     0.80756    0.00218     0.80973
      H   16    0.24181      0.00000     0.75575    0.00244     0.75819
      H   17    0.23881      0.00000     0.75957    0.00162     0.76119
      H   18    0.23630      0.00000     0.76140    0.00230     0.76370
      H   19    0.25584      0.00000     0.74172    0.00244     0.74416
      H   20    0.22686      0.00000     0.77208    0.00106     0.77314
      H   21    0.22554      0.00000     0.77345    0.00100     0.77446
      H   22    0.23472      0.00000     0.76401    0.00127     0.76528
      H   23    0.22342      0.00000     0.77554    0.00104     0.77658
      H   24    0.23034      0.00000     0.76912    0.00055     0.76966
      H   25    0.21645      0.00000     0.78150    0.00205     0.78355
      H   26    0.21627      0.00000     0.78165    0.00208     0.78373
 =======================================================================
   * Total *    0.00000     23.99090    65.78855    0.22055    90.00000

 Normal termination of Gaussian 09 at Thu Sep 30 15:17:13 2021.
