 Gaussian 09, Revision A.02,

 -----------------------------------
 #p opt b3lyp/6-31G* scf=(xqc,tight)
 -----------------------------------

 ------------------------------
 CC(=O)Oc1ccc(cc1)C(=O)C_conf_0
 ------------------------------
 Symbolic Z-matrix:
 Charge =  0 Multiplicity = 1

 SCF Done:  E(RB3LYP) =  -612.767555137     A.U. after   15 cycles
 SCF Done:  E(RB3LYP) =  -612.771666332     A.U. after   16 cycles
 SCF Done:  E(RB3LYP) =  -612.772374706     A.U. after   14 cycles
 SCF Done:  E(RB3LYP) =  -612.771581969     A.U. after   14 cycles
 SCF Done:  E(RB3LYP) =  -612.772616932     A.U. after   13 cycles
 SCF Done:  E(RB3LYP) =  -612.772866742     A.U. after   12 cycles
 SCF Done:  E(RB3LYP) =  -612.773035085     A.U. after   13 cycles
 SCF Done:  E(RB3LYP) =  -612.773038373     A.U. after   11 cycles
 SCF Done:  E(RB3LYP) =  -612.773131221     A.U. after   11 cycles
 SCF Done:  E(RB3LYP) =  -612.773176788     A.U. after   11 cycles
 SCF Done:  E(RB3LYP) =  -612.773204972     A.U. after   16 cycles
 SCF Done:  E(RB3LYP) =  -612.773215073     A.U. after   16 cycles
 SCF Done:  E(RB3LYP) =  -612.773215622     A.U. after    8 cycles
 SCF Done:  E(RB3LYP) =  -612.773215637     A.U. after    7 cycles
 SCF Done:  E(RB3LYP) =  -612.773215657     A.U. after   16 cycles
 SCF Done:  E(RB3LYP) =  -612.773215696     A.U. after    8 cycles
 SCF Done:  E(RB3LYP) =  -612.773215712     A.U. after    8 cycles
 SCF Done:  E(RB3LYP) =  -612.773215711     A.U. after    7 cycles
 Optimization completed.
    -- Stationary point found.
 Normal termination of Gaussian 09 at Fri Oct  1 01:23:02 2021.

 ----------------------------------------------------------------------
 #p freq b3lyp/6-31G* volume NMR pop=NPA density=current Geom=AllCheck
 Guess=Read
 ----------------------------------------------------------------------

 CC(=O)Oc1ccc(cc1)C(=O)C_conf_0
 ------------------------------
 Redundant internal coordinates taken from checkpoint file:
 C10H10O3_f806_conf_0.chk
 Charge =  0 Multiplicity = 1

 SCF Done:  E(RB3LYP) =  -612.773215711     A.U. after    1 cycles

  1  C    Isotropic =   168.7104   Anisotropy =    40.0577

  2  C    Isotropic =    31.0571   Anisotropy =    78.1351

  3  O    Isotropic =   -81.1125   Anisotropy =   569.5654

  4  O    Isotropic =   102.0180   Anisotropy =   173.0567

  5  C    Isotropic =    41.5533   Anisotropy =   115.4518

  6  C    Isotropic =    75.0089   Anisotropy =   152.9380

  7  C    Isotropic =    65.9617   Anisotropy =   163.9441

  8  C    Isotropic =    64.0856   Anisotropy =   158.1300

  9  C    Isotropic =    65.2212   Anisotropy =   179.8361

 10  C    Isotropic =    76.0778   Anisotropy =   138.5449

 11  C    Isotropic =     4.3709   Anisotropy =   151.0967

 12  O    Isotropic =  -264.9921   Anisotropy =   931.9263

 13  C    Isotropic =   163.8602   Anisotropy =    39.0056

 14  H    Isotropic =    30.4996   Anisotropy =     7.4227

 15  H    Isotropic =    29.9761   Anisotropy =     5.5678

 16  H    Isotropic =    29.9690   Anisotropy =     6.1207

 17  H    Isotropic =    24.5364   Anisotropy =     8.7373

 18  H    Isotropic =    24.5692   Anisotropy =     7.7885

 19  H    Isotropic =    23.9622   Anisotropy =     6.3662

 20  H    Isotropic =    25.3580   Anisotropy =     6.2166

 21  H    Isotropic =    29.6693   Anisotropy =     4.3435

 22  H    Isotropic =    30.2841   Anisotropy =     6.4341

 23  H    Isotropic =    29.6890   Anisotropy =     4.3101

  Exact polarizability: 171.985   0.277 110.406   3.073  -3.204  55.641
 Approx polarizability: 232.328 -11.103 197.032   8.066  -4.664  86.755

                     1                      2                      3
                     A                      A                      A
 Frequencies --    18.9010                51.5782                66.1287
 Red. masses --     5.7690                 3.0562                 3.8788
 Frc consts  --     0.0012                 0.0048                 0.0100
 IR Inten    --     4.1008                 1.5982                 2.2322

                     4                      5                      6
                     A                      A                      A
 Frequencies --    84.7315               104.8720               148.3780
 Red. masses --     1.2680                 4.0823                 4.0938
 Frc consts  --     0.0054                 0.0265                 0.0531
 IR Inten    --     0.1837                 2.9113                 4.0604

                     7                      8                      9
                     A                      A                      A
 Frequencies --   160.3784               210.5433               273.8010
 Red. masses --     1.1074                 5.2625                 4.5930
 Frc consts  --     0.0168                 0.1374                 0.2029
 IR Inten    --     0.1485                 1.9134                 0.4717

                    10                     11                     12
                     A                      A                      A
 Frequencies --   306.4275               365.0707               410.6672
 Red. masses --     5.6092                 4.4233                 4.3780
 Frc consts  --     0.3103                 0.3473                 0.4350
 IR Inten    --     0.8698                 3.2100                 8.2889

                    13                     14                     15
                     A                      A                      A
 Frequencies --   421.7902               472.6857               505.5508
 Red. masses --     3.0803                 4.0313                 3.2310
 Frc consts  --     0.3229                 0.5307                 0.4865
 IR Inten    --     0.1064                 2.9339                 2.3864

                    16                     17                     18
                     A                      A                      A
 Frequencies --   566.7660               586.9802               600.4675
 Red. masses --     5.0440                 2.8800                 2.3781
 Frc consts  --     0.9546                 0.5846                 0.5052
 IR Inten    --     4.0023                 6.5761                 9.1699

                    19                     20                     21
                     A                      A                      A
 Frequencies --   632.3375               648.3337               716.9080
 Red. masses --     4.4746                 5.7163                 4.8658
 Frc consts  --     1.0542                 1.4157                 1.4734
 IR Inten    --    30.9032                10.4833                 1.2492

                    22                     23                     24
                     A                      A                      A
 Frequencies --   743.3255               820.2695               837.9167
 Red. masses --     4.2765                 3.7032                 1.4100
 Frc consts  --     1.3922                 1.4681                 0.5833
 IR Inten    --     0.8505                 4.3428                 7.4958

                    25                     26                     27
                     A                      A                      A
 Frequencies --   866.7170               933.5402               961.2726
 Red. masses --     1.6217                 6.0093                 1.3333
 Frc consts  --     0.7178                 3.0856                 0.7259
 IR Inten    --    35.5397                38.2685                 0.2752

                    28                     29                     30
                     A                      A                      A
 Frequencies --   968.4743               991.2542              1029.7604
 Red. masses --     2.2302                 1.3003                 2.0654
 Frc consts  --     1.2325                 0.7527                 1.2904
 IR Inten    --    46.7712                 0.2991                45.1002

                    31                     32                     33
                     A                      A                      A
 Frequencies --  1036.7740              1056.1663              1074.0211
 Red. masses --     2.3324                 1.8580                 1.7296
 Frc consts  --     1.4771                 1.2211                 1.1755
 IR Inten    --    54.6774                 1.5199                 8.4211

                    34                     35                     36
                     A                      A                      A
 Frequencies --  1099.1097              1141.8449              1199.3172
 Red. masses --     2.3567                 1.2693                 1.3109
 Frc consts  --     1.6774                 0.9751                 1.1109
 IR Inten    --     1.4544                10.8976               176.4566

                    37                     38                     39
                     A                      A                      A
 Frequencies --  1239.6149              1248.2563              1292.7082
 Red. masses --     3.6546                 3.4530                 3.6840
 Frc consts  --     3.3088                 3.1699                 3.6272
 IR Inten    --   506.2706               368.6924               171.5527

                    40                     41                     42
                     A                      A                      A
 Frequencies --  1337.6637              1361.5673              1409.2542
 Red. masses --     1.2978                10.6744                 1.3307
 Frc consts  --     1.3682                11.6593                 1.5571
 IR Inten    --     1.8472                 4.3641                37.3209

                    43                     44                     45
                     A                      A                      A
 Frequencies --  1423.5743              1458.6572              1498.9226
 Red. masses --     1.3100                 3.1149                 1.0490
 Frc consts  --     1.5642                 3.9048                 1.3887
 IR Inten    --    53.6949                36.8988                11.3584

                    46                     47                     48
                     A                      A                      A
 Frequencies --  1499.1927              1503.5073              1507.3435
 Red. masses --     1.0565                 1.0462                 1.0485
 Frc consts  --     1.3990                 1.3935                 1.4035
 IR Inten    --    11.5069                 8.7386                 9.5255

                    49                     50                     51
                     A                      A                      A
 Frequencies --  1550.8318              1630.6948              1660.2462
 Red. masses --     2.4602                 6.9993                 5.8013
 Frc consts  --     3.4862                10.9660                 9.4215
 IR Inten    --    27.7865                37.7181                97.3765

                    52                     53                     54
                     A                      A                      A
 Frequencies --  1777.0215              1851.8551              3053.2899
 Red. masses --    10.7012                11.5221                 1.0383
 Frc consts  --    19.9098                23.2807                 5.7032
 IR Inten    --   170.5521               201.9316                 2.8162

                    55                     56                     57
                     A                      A                      A
 Frequencies --  3073.2612              3112.6649              3135.7889
 Red. masses --     1.0371                 1.1000                 1.1006
 Frc consts  --     5.7712                 6.2793                 6.3765
 IR Inten    --     1.1357                 9.7044                 4.2811

                    58                     59                     60
                     A                      A                      A
 Frequencies --  3170.2600              3186.5649              3211.0174
 Red. masses --     1.1011                 1.1034                 1.0893
 Frc consts  --     6.5204                 6.6014                 6.6170
 IR Inten    --    12.3939                 7.0029                10.3276

                    61                     62                     63
                     A                      A                      A
 Frequencies --  3214.3987              3231.6398              3267.9210
 Red. masses --     1.0892                 1.0935                 1.0929
 Frc consts  --     6.6306                 6.7283                 6.8764
 IR Inten    --     1.1525                 3.4344                 0.5500

 - Thermochemistry -
 -------------------
 Temperature   298.150 Kelvin.  Pressure   1.00000 Atm.
 Atom     1 has atomic number  6 and mass  12.00000

 Molecular mass:   178.06299 amu.
 Principal axes and moments of inertia in atomic units:
                           1         2         3
     Eigenvalues --   687.090015121.991495690.90022
           X            0.99981   0.01968   0.00118
           Y           -0.01966   0.99967  -0.01653
           Z           -0.00150   0.01650   0.99986
 This molecule is an asymmetric top.
 Rotational symmetry number  1.
 Warning -- assumption of classical behavior for rotation
           may cause significant error
 Rotational temperatures (Kelvin)      0.12606     0.01691     0.01522
 Rotational constants (GHZ):           2.62664     0.35235     0.31713
 Zero-point vibrational energy     472649.2 (Joules/Mol)
                                  112.96587 (Kcal/Mol)
 Warning -- explicit consideration of  18 degrees of freedom as
           vibrations may cause significant error
 Vibrational temperatures:     27.19    74.21    95.14   121.91   150.89
          (Kelvin)            213.48   230.75   302.92   393.94   440.88
                              525.25   590.86   606.86   680.09   727.37
                              815.45   844.53   863.94   909.79   932.81
                             1031.47  1069.48  1180.18  1205.57  1247.01
                             1343.15  1383.06  1393.42  1426.19  1481.59
                             1491.68  1519.59  1545.27  1581.37  1642.86
                             1725.55  1783.53  1795.96  1859.92  1924.60
                             1958.99  2027.60  2048.20  2098.68  2156.61
                             2157.00  2163.21  2168.73  2231.30  2346.20
                             2388.72  2556.73  2664.40  4393.00  4421.73
                             4478.42  4511.70  4561.29  4584.75  4619.93
                             4624.80  4649.60  4701.80

 Zero-point correction=                           0.180023 (Hartree/Particle)
 Thermal correction to Energy=                    0.192613
 Thermal correction to Enthalpy=                  0.193557
 Thermal correction to Gibbs Free Energy=         0.139072
 Sum of electronic and zero-point Energies=           -612.593193
 Sum of electronic and thermal Energies=              -612.580603
 Sum of electronic and thermal Enthalpies=            -612.579659
 Sum of electronic and thermal Free Energies=         -612.634144

                     E (Thermal)             CV                S
                      KCal/Mol        Cal/Mol-Kelvin    Cal/Mol-Kelvin
 Total                  120.866             45.416            114.673
 Electronic               0.000              0.000              0.000
 Translational            0.889              2.981             41.438
 Rotational               0.889              2.981             31.372
 Vibrational            119.089             39.455             41.864
 Vibration     1          0.593              1.986              6.746
 Vibration     2          0.596              1.977              4.756
 Vibration     3          0.598              1.970              4.265
 Vibration     4          0.601              1.960              3.778
 Vibration     5          0.605              1.945              3.362
 Vibration     6          0.618              1.904              2.693
 Vibration     7          0.622              1.891              2.545
 Vibration     8          0.643              1.825              2.039
 Vibration     9          0.676              1.722              1.572
 Vibration    10          0.697              1.662              1.382
 Vibration    11          0.738              1.544              1.100
 Vibration    12          0.775              1.447              0.924
 Vibration    13          0.784              1.423              0.886
 Vibration    14          0.830              1.311              0.730
 Vibration    15          0.861              1.238              0.644
 Vibration    16          0.923              1.103              0.510
 Vibration    17          0.944              1.060              0.473
 Vibration    18          0.959              1.031              0.449

 Optimization completed.
    -- Stationary point found.
 Normal termination of Gaussian 09 at Fri Oct  1 02:06:37 2021.
 Gaussian 09:  AM64L-G09RevA.02 11-Jun-2009

 ----------------------------------------------------------------------
 #p TD(NStates=10, Root=1) b3lyp/6-31G* volume pop=NPA density=current
 Geom=AllCheck Guess=Read
 ----------------------------------------------------------------------

 CC(=O)Oc1ccc(cc1)C(=O)C_conf_0
 ------------------------------
 Redundant internal coordinates taken from checkpoint file:
 C10H10O3_f806_conf_0.chk
 Charge =  0 Multiplicity = 1

                         Standard orientation:
 ---------------------------------------------------------------------
 Center     Atomic      Atomic             Coordinates (Angstroms)
 Number     Number       Type             X           Y           Z
 ---------------------------------------------------------------------
      1          6           0        4.642707    0.282362    0.137416
      2          6           0        3.274162   -0.284805   -0.146950
      3          8           0        3.039623   -1.337242   -0.685274
      4          8           0        2.317383    0.593849    0.300722
      5          6           0        0.954218    0.348549    0.174040
      6          6           0        0.371389   -0.912210    0.317923
      7          6           0       -1.016338   -1.020521    0.239642
      8          6           0       -1.825740    0.104325    0.025989
      9          6           0       -1.212177    1.360526   -0.107307
     10          6           0        0.167643    1.485604   -0.034200
     11          6           0       -3.318720    0.030613   -0.064581
     12          8           0       -3.981883    1.041769   -0.241907
     13          6           0       -3.996959   -1.323831    0.067213
     14          1           0        5.402533   -0.414223   -0.217674
     15          1           0        4.763221    0.451781    1.212480
     16          1           0        4.760516    1.250261   -0.360530
     17          1           0        0.985185   -1.788234    0.474139
     18          1           0       -1.463287   -2.003522    0.349985
     19          1           0       -1.843528    2.227783   -0.269192
     20          1           0        0.654826    2.450491   -0.132623
     21          1           0       -3.654823   -2.014542   -0.712788
     22          1           0       -5.075427   -1.183799   -0.022688
     23          1           0       -3.771305   -1.786687    1.035434
 ---------------------------------------------------------------------

 SCF Done:  E(RB3LYP) =  -612.773215711     A.U. after    1 cycles

 Excitation energies and oscillator strengths:

 Excited State   1:      Singlet-A      3.7492 eV  330.70 nm  f=0.0000  <S**2>=0.000
      47 -> 48         0.68649
      47 -> 50         0.11538
      47 -> 51        -0.10814
 This state for optimization and/or second-order correction.
 Total Energy, E(TD-HF/TD-KS) =  -612.635436158
 Copying the excited state density for this state as the 1-particle RhoCI density.

 Excited State   2:      Singlet-A      4.8308 eV  256.65 nm  f=0.0131  <S**2>=0.000
      45 -> 48         0.61407
      46 -> 48         0.13685
      46 -> 49        -0.30779

 Excited State   3:      Singlet-A      4.9651 eV  249.71 nm  f=0.3959  <S**2>=0.000
      45 -> 48        -0.11677
      45 -> 49         0.11969
      46 -> 48         0.67342

 Excited State   4:      Singlet-A      5.3460 eV  231.92 nm  f=0.0014  <S**2>=0.000
      44 -> 48         0.58844
      44 -> 50        -0.33092
      45 -> 50        -0.13316
      46 -> 49         0.10963

 Excited State   5:      Singlet-A      5.5137 eV  224.86 nm  f=0.0000  <S**2>=0.000
      47 -> 49         0.69902

 Excited State   6:      Singlet-A      5.9386 eV  208.78 nm  f=0.0050  <S**2>=0.000
      44 -> 48        -0.10165
      44 -> 50        -0.17525
      45 -> 48        -0.10166
      46 -> 49        -0.26020
      46 -> 50         0.58012
      47 -> 50        -0.13851

 Excited State   7:      Singlet-A      5.9865 eV  207.11 nm  f=0.0001  <S**2>=0.000
      44 -> 48         0.16766
      44 -> 50         0.14889
      45 -> 50         0.12033
      46 -> 50         0.22602
      47 -> 48        -0.12506
      47 -> 50         0.56624
      47 -> 51        -0.17192

 Excited State   8:      Singlet-A      6.0309 eV  205.58 nm  f=0.0025  <S**2>=0.000
      44 -> 48         0.27364
      44 -> 49        -0.13248
      44 -> 50         0.37683
      45 -> 50         0.31991
      46 -> 50         0.17203
      47 -> 50        -0.29453
      47 -> 51         0.10861

 Excited State   9:      Singlet-A      6.1383 eV  201.98 nm  f=0.1130  <S**2>=0.000
      44 -> 48        -0.17193
      44 -> 50        -0.11126
      45 -> 48         0.27899
      45 -> 51        -0.21145
      46 -> 49         0.50681
      46 -> 50         0.24686

 Excited State  10:      Singlet-A      6.4249 eV  192.97 nm  f=0.0192  <S**2>=0.000
      44 -> 49         0.12887
      44 -> 50        -0.33847
      45 -> 49        -0.14690
      45 -> 50         0.55835
      46 -> 49        -0.10456

 The electronic state is 1-A.
 Alpha  occ. eigenvalues --  -19.21428 -19.15403 -19.13422 -10.33660 -10.27608
 Alpha  occ. eigenvalues --  -10.26888 -10.20946 -10.20857 -10.20327 -10.20322
 Alpha  occ. eigenvalues --  -10.20276 -10.20230 -10.18969  -1.12011  -1.03910
 Alpha  occ. eigenvalues --   -1.03371  -0.86966  -0.79238  -0.76435  -0.75619
 Alpha  occ. eigenvalues --   -0.73045  -0.66063  -0.62713  -0.58581  -0.55794
 Alpha  occ. eigenvalues --   -0.50545  -0.49913  -0.48984  -0.48235  -0.45902
 Alpha  occ. eigenvalues --   -0.45639  -0.44318  -0.43619  -0.42716  -0.42295
 Alpha  occ. eigenvalues --   -0.41910  -0.40643  -0.38660  -0.37956  -0.37414
 Alpha  occ. eigenvalues --   -0.36335  -0.35103  -0.33094  -0.28818  -0.26452
 Alpha  occ. eigenvalues --   -0.24969  -0.24793
 Alpha virt. eigenvalues --   -0.05637  -0.01361  -0.00501   0.04496   0.08473
 Alpha virt. eigenvalues --    0.10221   0.11325   0.14013   0.14805   0.15289
 Alpha virt. eigenvalues --    0.15530   0.16388   0.17213   0.17611   0.17873

 Mulliken atomic charges:
              1
     1  C   -0.524251
     2  C    0.590244
     3  O   -0.449368
     4  O   -0.514144
     5  C    0.324954
     6  C   -0.143987
     7  C   -0.224468
     8  C    0.116643
     9  C   -0.200917
    10  C   -0.168149
    11  C    0.314678
    12  O   -0.302769
    13  C   -0.515415
    14  H    0.182321
    15  H    0.183475
    16  H    0.183664
    17  H    0.161554
    18  H    0.121220
    19  H    0.141678
    20  H    0.138089
    21  H    0.200419
    22  H    0.185920
    23  H    0.198608
 Sum of Mulliken atomic charges =  -0.00000

 Dipole moment (field-independent basis, Debye):
    X=             -1.1833    Y=             -0.3463    Z=              1.0138  Tot=              1.5962
 Quadrupole moment (field-independent basis, Debye-Ang):
   XX=            -60.2789   YY=            -72.5951   ZZ=            -76.9563
   XY=             12.9618   XZ=              2.2111   YZ=             -3.1661

 Summary of Natural Population Analysis:

                                       Natural Population
                Natural  -----------------------------------------------
    Atom  No    Charge         Core      Valence    Rydberg      Total
 -----------------------------------------------------------------------
      C    1   -0.77471      1.99934     4.76875    0.00663     6.77471
      C    2    0.82526      1.99945     3.13222    0.04307     5.17474
      O    3   -0.58393      1.99978     6.56404    0.02012     8.58393
      O    4   -0.54539      1.99970     6.53436    0.01133     8.54539
      C    5    0.26465      1.99873     3.71510    0.02153     5.73535
      C    6   -0.26174      1.99901     4.24890    0.01382     6.26174
      C    7   -0.23384      1.99905     4.22165    0.01314     6.23384
      C    8   -0.16648      1.99889     4.15290    0.01470     6.16648
      C    9   -0.22390      1.99905     4.21051    0.01433     6.22390
      C   10   -0.25555      1.99903     4.24249    0.01403     6.25555
      C   11    0.37802      1.99928     3.59026    0.03244     5.62198
      O   12   -0.25197      1.99981     6.23409    0.01807     8.25197
      C   13   -0.70913      1.99932     4.70305    0.00676     6.70913
      H   14    0.25615      0.00000     0.74291    0.00094     0.74385
      H   15    0.25793      0.00000     0.74123    0.00084     0.74207
      H   16    0.25791      0.00000     0.74122    0.00086     0.74209
      H   17    0.26208      0.00000     0.73678    0.00114     0.73792
      H   18    0.23128      0.00000     0.76776    0.00096     0.76872
      H   19    0.24135      0.00000     0.75788    0.00077     0.75865
      H   20    0.24765      0.00000     0.75120    0.00114     0.75235
      H   21    0.26334      0.00000     0.73548    0.00118     0.73666
      H   22    0.25878      0.00000     0.74011    0.00112     0.74122
      H   23    0.26225      0.00000     0.73657    0.00117     0.73775
 =======================================================================
   * Total *    0.00000     25.99043    67.76946    0.24011    94.00000

 Normal termination of Gaussian 09 at Fri Oct  1 04:05:12 2021.
