 Gaussian 09, Revision A.02,

 -----------------------------------
 #p opt b3lyp/6-31G* scf=(xqc,tight)
 -----------------------------------

 -------------------------
 COc1ccc2c(c1)cccn2_conf_0
 -------------------------
 Symbolic Z-matrix:
 Charge =  0 Multiplicity = 1

 SCF Done:  E(RB3LYP) =  -516.448275978     A.U. after   15 cycles
 SCF Done:  E(RB3LYP) =  -516.453902277     A.U. after   12 cycles
 SCF Done:  E(RB3LYP) =  -516.454428370     A.U. after   12 cycles
 SCF Done:  E(RB3LYP) =  -516.454533242     A.U. after   11 cycles
 SCF Done:  E(RB3LYP) =  -516.454570902     A.U. after   11 cycles
 SCF Done:  E(RB3LYP) =  -516.454583866     A.U. after   10 cycles
 SCF Done:  E(RB3LYP) =  -516.454587390     A.U. after    9 cycles
 Optimization completed.
    -- Stationary point found.
 Normal termination of Gaussian 09 at Tue Sep 28 17:03:29 2021.

 ----------------------------------------------------------------------
 #p freq b3lyp/6-31G* volume NMR pop=NPA density=current Geom=AllCheck
 Guess=Read
 ----------------------------------------------------------------------

 COc1ccc2c(c1)cccn2_conf_0
 -------------------------
 Redundant internal coordinates taken from checkpoint file:
 C10H9NO_4229_conf_0.chk
 Charge =  0 Multiplicity = 1

 SCF Done:  E(RB3LYP) =  -516.454587390     A.U. after    1 cycles

  1  C    Isotropic =   137.1195   Anisotropy =    65.8059

  2  O    Isotropic =   232.8857   Anisotropy =    85.7349

  3  C    Isotropic =    40.0167   Anisotropy =   124.6067

  4  C    Isotropic =    73.6745   Anisotropy =   138.1833

  5  C    Isotropic =    63.3196   Anisotropy =   146.0331

  6  C    Isotropic =    51.4801   Anisotropy =   176.0197

  7  C    Isotropic =    66.7771   Anisotropy =   193.3101

  8  C    Isotropic =    90.7106   Anisotropy =   117.5021

  9  C    Isotropic =    62.9059   Anisotropy =   158.9252

 10  C    Isotropic =    75.1274   Anisotropy =   153.7718

 11  C    Isotropic =    49.4762   Anisotropy =   150.0391

 12  N    Isotropic =   -59.4968   Anisotropy =   510.5456

 13  H    Isotropic =    28.1630   Anisotropy =     8.0592

 14  H    Isotropic =    28.5075   Anisotropy =     7.9626

 15  H    Isotropic =    28.5063   Anisotropy =     7.9634

 16  H    Isotropic =    24.9748   Anisotropy =     6.5865

 17  H    Isotropic =    24.2928   Anisotropy =     5.8820

 18  H    Isotropic =    25.6945   Anisotropy =     8.8847

 19  H    Isotropic =    24.5641   Anisotropy =     7.6622

 20  H    Isotropic =    25.1316   Anisotropy =     5.6735

 21  H    Isotropic =    23.4697   Anisotropy =     5.7679

  Exact polarizability: 178.781  -8.674 118.180   0.004   0.004  44.310
 Approx polarizability: 290.826 -21.787 211.928   0.014   0.010  67.936

                     1                      2                      3
                     A                      A                      A
 Frequencies --    81.7672               140.9179               183.5949
 Red. masses --     3.4030                 4.3167                 3.8093
 Frc consts  --     0.0134                 0.0505                 0.0757
 IR Inten    --     0.9453                 0.8661                 5.1840

                     4                      5                      6
                     A                      A                      A
 Frequencies --   201.4914               243.7619               324.3541
 Red. masses --     3.4150                 1.1735                 3.6467
 Frc consts  --     0.0817                 0.0411                 0.2260
 IR Inten    --     0.8934                 0.2874                 2.4675

                     7                      8                      9
                     A                      A                      A
 Frequencies --   354.8789               418.0544               442.6603
 Red. masses --     4.6822                 3.8042                 5.8717
 Frc consts  --     0.3474                 0.3917                 0.6779
 IR Inten    --     5.0683                 0.5983                 5.4147

                    10                     11                     12
                     A                      A                      A
 Frequencies --   491.9291               514.7140               548.5917
 Red. masses --     2.8511                 4.9184                 5.4973
 Frc consts  --     0.4065                 0.7677                 0.9748
 IR Inten    --     2.1975                 2.0400                 0.7326

                    13                     14                     15
                     A                      A                      A
 Frequencies --   557.9709               631.0721               657.5298
 Red. masses --     3.9662                 7.4213                 2.9011
 Frc consts  --     0.7275                 1.7414                 0.7390
 IR Inten    --     0.9494                 8.8049                 0.1188

                    16                     17                     18
                     A                      A                      A
 Frequencies --   725.0720               781.5665               786.7575
 Red. masses --     6.0632                 2.3589                 5.3041
 Frc consts  --     1.8781                 0.8490                 1.9344
 IR Inten    --     8.3601                 1.3959                 2.6404

                    19                     20                     21
                     A                      A                      A
 Frequencies --   804.1317               857.3228               863.8438
 Red. masses --     1.3687                 1.8594                 1.6177
 Frc consts  --     0.5214                 0.8052                 0.7112
 IR Inten    --     4.8922                27.9915                46.0556

                    22                     23                     24
                     A                      A                      A
 Frequencies --   925.3576               958.4073               972.8306
 Red. masses --     5.4880                 1.3898                 3.6977
 Frc consts  --     2.7687                 0.7521                 2.0619
 IR Inten    --    10.4020                 0.1226                 4.8071

                    25                     26                     27
                     A                      A                      A
 Frequencies --   982.4042               989.8033              1061.9178
 Red. masses --     1.2760                 1.3202                 2.6159
 Frc consts  --     0.7256                 0.7621                 1.7380
 IR Inten    --     0.0001                 1.4908                 1.6087

                    28                     29                     30
                     A                      A                      A
 Frequencies --  1074.1209              1145.6100              1168.2701
 Red. masses --     4.1836                 1.4926                 1.1772
 Frc consts  --     2.8438                 1.1541                 0.9466
 IR Inten    --    51.2504                18.9135                 0.2855

                    31                     32                     33
                     A                      A                      A
 Frequencies --  1185.4477              1205.9762              1234.2419
 Red. masses --     1.2728                 1.5740                 1.6909
 Frc consts  --     1.0539                 1.3487                 1.5177
 IR Inten    --     0.8102                28.1438                23.7218

                    34                     35                     36
                     A                      A                      A
 Frequencies --  1272.2653              1277.5870              1298.2731
 Red. masses --     1.9538                 3.1763                 1.9745
 Frc consts  --     1.8633                 3.0546                 1.9609
 IR Inten    --     0.4462               136.6245                92.0008

                    37                     38                     39
                     A                      A                      A
 Frequencies --  1385.0086              1403.3483              1416.8156
 Red. masses --     4.0971                 2.1232                 3.6565
 Frc consts  --     4.6306                 2.4636                 4.3246
 IR Inten    --    23.0006                15.3627                41.5477

                    40                     41                     42
                     A                      A                      A
 Frequencies --  1483.7880              1492.1248              1519.1896
 Red. masses --     2.0965                 1.5063                 1.0480
 Frc consts  --     2.7194                 1.9760                 1.4251
 IR Inten    --    34.8817                 8.4033                 5.9484

                    43                     44                     45
                     A                      A                      A
 Frequencies --  1525.0451              1534.0286              1553.6740
 Red. masses --     2.3295                 1.1018                 3.1269
 Frc consts  --     3.1921                 1.5277                 4.4472
 IR Inten    --     5.2704                54.3280                62.9200

                    46                     47                     48
                     A                      A                      A
 Frequencies --  1621.3159              1654.0243              1680.5197
 Red. masses --     7.0052                 5.6084                 5.9945
 Frc consts  --    10.8495                 9.0400                 9.9746
 IR Inten    --     6.3530                31.6494                95.2899

                    49                     50                     51
                     A                      A                      A
 Frequencies --  3027.0008              3086.2258              3160.5597
 Red. masses --     1.0346                 1.1067                 1.0999
 Frc consts  --     5.5853                 6.2105                 6.4733
 IR Inten    --    47.6585                42.1430                30.6544

                    52                     53                     54
                     A                      A                      A
 Frequencies --  3162.2919              3180.5442              3208.9836
 Red. masses --     1.0889                 1.0891                 1.0876
 Frc consts  --     6.4157                 6.4912                 6.5989
 IR Inten    --    27.0961                11.9786                 5.5360

                    55                     56                     57
                     A                      A                      A
 Frequencies --  3209.7706              3214.5942              3224.6934
 Red. masses --     1.0955                 1.0897                 1.0959
 Frc consts  --     6.6498                 6.6347                 6.7141
 IR Inten    --    23.8575                11.9794                 8.1028

 - Thermochemistry -
 -------------------
 Temperature   298.150 Kelvin.  Pressure   1.00000 Atm.
 Atom     1 has atomic number  6 and mass  12.00000

 Molecular mass:   159.06841 amu.
 Principal axes and moments of inertia in atomic units:
                           1         2         3
     Eigenvalues --   756.594082887.598163632.66681
           X            0.99996   0.00892  -0.00001
           Y           -0.00892   0.99996  -0.00000
           Z            0.00001   0.00000   1.00000
 This molecule is an asymmetric top.
 Rotational symmetry number  1.
 Warning -- assumption of classical behavior for rotation
           may cause significant error
 Rotational temperatures (Kelvin)      0.11448     0.03000     0.02384
 Rotational constants (GHZ):           2.38535     0.62500     0.49681
 Zero-point vibrational energy     443264.5 (Joules/Mol)
                                  105.94277 (Kcal/Mol)
 Warning -- explicit consideration of  13 degrees of freedom as
           vibrations may cause significant error
 Vibrational temperatures:    117.64   202.75   264.15   289.90   350.72
          (Kelvin)            466.67   510.59   601.49   636.89   707.78
                              740.56   789.30   802.79   907.97   946.04
                             1043.22  1124.50  1131.97  1156.96  1233.49
                             1242.88  1331.38  1378.93  1399.68  1413.46
                             1424.10  1527.86  1545.42  1648.28  1680.88
                             1705.59  1735.13  1775.80  1830.50  1838.16
                             1867.92  1992.72  2019.10  2038.48  2134.84
                             2146.83  2185.77  2194.20  2207.12  2235.39
                             2332.71  2379.77  2417.89  4355.17  4440.39
                             4547.33  4549.83  4576.09  4617.01  4618.14
                             4625.08  4639.61

 Zero-point correction=                           0.168831 (Hartree/Particle)
 Thermal correction to Energy=                    0.178057
 Thermal correction to Enthalpy=                  0.179001
 Thermal correction to Gibbs Free Energy=         0.134319
 Sum of electronic and zero-point Energies=           -516.285757
 Sum of electronic and thermal Energies=              -516.276531
 Sum of electronic and thermal Enthalpies=            -516.275587
 Sum of electronic and thermal Free Energies=         -516.320268

                     E (Thermal)             CV                S
                      KCal/Mol        Cal/Mol-Kelvin    Cal/Mol-Kelvin
 Total                  111.732             36.944             94.040
 Electronic               0.000              0.000              0.000
 Translational            0.889              2.981             41.102
 Rotational               0.889              2.981             30.452
 Vibrational            109.955             30.982             22.486
 Vibration     1          0.600              1.962              3.848
 Vibration     2          0.615              1.912              2.791
 Vibration     3          0.631              1.862              2.292
 Vibration     4          0.638              1.838              2.119
 Vibration     5          0.659              1.773              1.775
 Vibration     6          0.709              1.627              1.288
 Vibration     7          0.731              1.565              1.144
 Vibration     8          0.781              1.431              0.899
 Vibration     9          0.802              1.377              0.818
 Vibration    10          0.848              1.268              0.679
 Vibration    11          0.870              1.217              0.622
 Vibration    12          0.904              1.143              0.547
 Vibration    13          0.914              1.122              0.528

 Optimization completed.
    -- Stationary point found.
 Normal termination of Gaussian 09 at Tue Sep 28 17:36:45 2021.
 Gaussian 09:  AM64L-G09RevA.02 11-Jun-2009

 ----------------------------------------------------------------------
 #p TD(NStates=10, Root=1) b3lyp/6-31G* volume pop=NPA density=current
 Geom=AllCheck Guess=Read
 ----------------------------------------------------------------------

 COc1ccc2c(c1)cccn2_conf_0
 -------------------------
 Redundant internal coordinates taken from checkpoint file:
 C10H9NO_4229_conf_0.chk
 Charge =  0 Multiplicity = 1

                         Standard orientation:
 ---------------------------------------------------------------------
 Center     Atomic      Atomic             Coordinates (Angstroms)
 Number     Number       Type             X           Y           Z
 ---------------------------------------------------------------------
      1          6           0       -3.646065   -1.081710    0.000494
      2          8           0       -3.060041    0.210517   -0.000241
      3          6           0       -1.700044    0.297995   -0.000156
      4          6           0       -1.196002    1.630100   -0.000139
      5          6           0        0.154013    1.865055    0.000007
      6          6           0        1.081482    0.785506    0.000044
      7          6           0        0.571961   -0.550875   -0.000172
      8          6           0       -0.831561   -0.775774   -0.000281
      9          6           0        1.521800   -1.603722   -0.000201
     10          6           0        2.864249   -1.302351    0.000012
     11          6           0        3.258876    0.057822    0.000222
     12          7           0        2.414118    1.071117    0.000213
     13          1           0       -4.725703   -0.922024    0.000580
     14          1           0       -3.361824   -1.650861    0.895484
     15          1           0       -3.362047   -1.651669   -0.894033
     16          1           0       -1.915567    2.443002   -0.000177
     17          1           0        0.553993    2.874094    0.000099
     18          1           0       -1.193777   -1.798232   -0.000541
     19          1           0        1.177742   -2.635771   -0.000362
     20          1           0        3.617864   -2.084455    0.000051
     21          1           0        4.318563    0.311685    0.000356
 ---------------------------------------------------------------------

 SCF Done:  E(RB3LYP) =  -516.454587390     A.U. after    1 cycles

 Excitation energies and oscillator strengths:

 Excited State   1:      Singlet-A      4.1593 eV  298.09 nm  f=0.0615  <S**2>=0.000
      41 -> 44        -0.17631
      42 -> 43         0.66502
      42 -> 44         0.11868
 This state for optimization and/or second-order correction.
 Total Energy, E(TD-HF/TD-KS) =  -516.301736610
 Copying the excited state density for this state as the 1-particle RhoCI density.

 Excited State   2:      Singlet-A      4.3587 eV  284.45 nm  f=0.0020  <S**2>=0.000
      40 -> 43         0.70228

 Excited State   3:      Singlet-A      4.6027 eV  269.37 nm  f=0.0095  <S**2>=0.000
      41 -> 43         0.56554
      42 -> 43        -0.14635
      42 -> 44         0.38165

 Excited State   4:      Singlet-A      5.3491 eV  231.78 nm  f=0.0001  <S**2>=0.000
      40 -> 44         0.70291

 Excited State   5:      Singlet-A      5.6994 eV  217.54 nm  f=0.6485  <S**2>=0.000
      41 -> 43        -0.34471
      41 -> 44         0.15032
      41 -> 45        -0.16533
      42 -> 44         0.53904
      42 -> 45        -0.13047

 Excited State   6:      Singlet-A      5.8413 eV  212.26 nm  f=0.0478  <S**2>=0.000
      38 -> 43        -0.11955
      39 -> 43         0.26116
      41 -> 43         0.10917
      41 -> 44         0.44443
      42 -> 45         0.44419

 Excited State   7:      Singlet-A      6.1418 eV  201.87 nm  f=0.3727  <S**2>=0.000
      38 -> 43         0.28135
      39 -> 44        -0.15370
      41 -> 43        -0.15647
      41 -> 44        -0.35661
      42 -> 43        -0.13073
      42 -> 44         0.13611
      42 -> 45         0.44125

 Excited State   8:      Singlet-A      6.3357 eV  195.69 nm  f=0.1062  <S**2>=0.000
      38 -> 43        -0.22969
      39 -> 43        -0.38632
      41 -> 45         0.48067
      42 -> 44         0.13741
      42 -> 45         0.10309

 Excited State   9:      Singlet-A      6.3756 eV  194.47 nm  f=0.0014  <S**2>=0.000
      40 -> 45         0.69901

 Excited State  10:      Singlet-A      6.5220 eV  190.10 nm  f=0.2265  <S**2>=0.000
      38 -> 43         0.54734
      39 -> 43        -0.17306
      39 -> 44        -0.18140
      41 -> 44         0.30886
      42 -> 45        -0.10584

 The electronic state is 1-A.
 Alpha  occ. eigenvalues --  -19.18470 -14.32314 -10.25401 -10.24596 -10.21783
 Alpha  occ. eigenvalues --  -10.21760 -10.20427 -10.20381 -10.19566 -10.19302
 Alpha  occ. eigenvalues --  -10.19121 -10.19062  -1.07069  -0.93601  -0.84487
 Alpha  occ. eigenvalues --   -0.80317  -0.75779  -0.74004  -0.70658  -0.63672
 Alpha  occ. eigenvalues --   -0.62019  -0.60025  -0.53739  -0.52470  -0.51562
 Alpha  occ. eigenvalues --   -0.47383  -0.47082  -0.46130  -0.44004  -0.42883
 Alpha  occ. eigenvalues --   -0.41259  -0.40654  -0.40094  -0.37388  -0.36505
 Alpha  occ. eigenvalues --   -0.36288  -0.33339  -0.30491  -0.30150  -0.24900
 Alpha  occ. eigenvalues --   -0.23850  -0.21696
 Alpha virt. eigenvalues --   -0.04517  -0.00693   0.02661   0.09109   0.09958
 Alpha virt. eigenvalues --    0.10221   0.11502   0.13177   0.15088   0.15141
 Alpha virt. eigenvalues --    0.16250   0.17261   0.18301   0.18963   0.19988

 Mulliken atomic charges:
              1
     1  C   -0.235595
     2  O   -0.446908
     3  C    0.382685
     4  C   -0.197121
     5  C   -0.145405
     6  C    0.244191
     7  C    0.163988
     8  C   -0.249487
     9  C   -0.189466
    10  C   -0.176697
    11  C    0.052529
    12  N   -0.535447
    13  H    0.188985
    14  H    0.176795
    15  H    0.176787
    16  H    0.135902
    17  H    0.147328
    18  H    0.149219
    19  H    0.110720
    20  H    0.115879
    21  H    0.131117
 Sum of Mulliken atomic charges =  -0.00000

 Dipole moment (field-independent basis, Debye):
    X=             -4.7453    Y=             -2.9888    Z=              0.0006  Tot=              5.6082
 Quadrupole moment (field-independent basis, Debye-Ang):
   XX=            -60.0851   YY=            -65.8301   ZZ=            -71.8475
   XY=              2.5037   XZ=             -0.0031   YZ=             -0.0003

 Summary of Natural Population Analysis:

                                       Natural Population
                Natural  -----------------------------------------------
    Atom  No    Charge         Core      Valence    Rydberg      Total
 -----------------------------------------------------------------------
      C    1   -0.32963      1.99942     4.31594    0.01427     6.32963
      O    2   -0.43139      1.99975     6.41986    0.01177     8.43139
      C    3    0.36955      1.99881     3.60938    0.02226     5.63045
      C    4   -0.34107      1.99906     4.32567    0.01634     6.34107
      C    5   -0.19753      1.99906     4.18188    0.01659     6.19753
      C    6    0.19068      1.99901     3.78809    0.02221     5.80932
      C    7   -0.08561      1.99901     4.07130    0.01530     6.08561
      C    8   -0.22229      1.99899     4.21095    0.01235     6.22229
      C    9   -0.25968      1.99906     4.24398    0.01665     6.25968
      C   10   -0.33075      1.99909     4.31596    0.01569     6.33075
      C   11    0.07329      1.99924     3.90330    0.02417     5.92671
      N   12   -0.51646      1.99943     5.49362    0.02341     7.51646
      H   13    0.23854      0.00000     0.76100    0.00047     0.76146
      H   14    0.21881      0.00000     0.77966    0.00152     0.78119
      H   15    0.21880      0.00000     0.77968    0.00152     0.78120
      H   16    0.24627      0.00000     0.75271    0.00101     0.75373
      H   17    0.25119      0.00000     0.74727    0.00153     0.74881
      H   18    0.23647      0.00000     0.76225    0.00128     0.76353
      H   19    0.22348      0.00000     0.77540    0.00113     0.77652
      H   20    0.23265      0.00000     0.76640    0.00095     0.76735
      H   21    0.21469      0.00000     0.78409    0.00122     0.78531
 =======================================================================
   * Total *    0.00000     23.98995    59.78839    0.22166    84.00000

 Normal termination of Gaussian 09 at Tue Sep 28 19:32:21 2021.
