 Gaussian 09, Revision A.02,

 -----------------------------------
 #p opt b3lyp/6-31G* scf=(xqc,tight)
 -----------------------------------

 ------------------------------
 COc1ccc(cc1)OC(=O)N(C)C_conf_0
 ------------------------------
 Symbolic Z-matrix:
 Charge =  0 Multiplicity = 1

 SCF Done:  E(RB3LYP) =  -669.310534062     A.U. after   15 cycles
 SCF Done:  E(RB3LYP) =  -669.314675737     A.U. after   12 cycles
 SCF Done:  E(RB3LYP) =  -669.315002900     A.U. after   12 cycles
 SCF Done:  E(RB3LYP) =  -669.315095269     A.U. after   11 cycles
 SCF Done:  E(RB3LYP) =  -669.315399391     A.U. after   11 cycles
 SCF Done:  E(RB3LYP) =  -669.315526876     A.U. after   11 cycles
 SCF Done:  E(RB3LYP) =  -669.315640584     A.U. after   16 cycles
 SCF Done:  E(RB3LYP) =  -669.315678553     A.U. after   10 cycles
 SCF Done:  E(RB3LYP) =  -669.315705422     A.U. after   10 cycles
 SCF Done:  E(RB3LYP) =  -669.315709237     A.U. after    9 cycles
 SCF Done:  E(RB3LYP) =  -669.315710914     A.U. after    8 cycles
 SCF Done:  E(RB3LYP) =  -669.315711367     A.U. after    8 cycles
 SCF Done:  E(RB3LYP) =  -669.315711532     A.U. after    8 cycles
 SCF Done:  E(RB3LYP) =  -669.315711605     A.U. after    8 cycles
 SCF Done:  E(RB3LYP) =  -669.315711619     A.U. after    7 cycles
 Optimization completed.
    -- Stationary point found.
 Normal termination of Gaussian 09 at Tue Sep 28 19:18:33 2021.

 ----------------------------------------------------------------------
 #p freq b3lyp/6-31G* volume NMR pop=NPA density=current Geom=AllCheck
 Guess=Read
 ----------------------------------------------------------------------

 COc1ccc(cc1)OC(=O)N(C)C_conf_0
 ------------------------------
 Redundant internal coordinates taken from checkpoint file:
 C10H13NO3_ea97_conf_0.chk
 Charge =  0 Multiplicity = 1

 SCF Done:  E(RB3LYP) =  -669.315711619     A.U. after    1 cycles

  1  C    Isotropic =   137.4780   Anisotropy =    65.0519

  2  O    Isotropic =   240.4400   Anisotropy =    76.0471

  3  C    Isotropic =    42.1811   Anisotropy =   124.4748

  4  C    Isotropic =    87.2118   Anisotropy =   141.4657

  5  C    Isotropic =    75.3943   Anisotropy =   138.9193

  6  C    Isotropic =    51.1306   Anisotropy =   102.0051

  7  C    Isotropic =    70.9017   Anisotropy =   153.0531

  8  C    Isotropic =    78.2066   Anisotropy =   133.9285

  9  O    Isotropic =   150.0712   Anisotropy =   127.9812

 10  C    Isotropic =    46.5621   Anisotropy =    75.1248

 11  O    Isotropic =    67.8264   Anisotropy =   388.8054

 12  N    Isotropic =   181.1421   Anisotropy =    84.0188

 13  C    Isotropic =   155.6583   Anisotropy =    49.5758

 14  C    Isotropic =   155.3579   Anisotropy =    51.2229

 15  H    Isotropic =    28.3155   Anisotropy =     8.1402

 16  H    Isotropic =    28.6861   Anisotropy =     8.0152

 17  H    Isotropic =    28.6765   Anisotropy =     7.9916

 18  H    Isotropic =    25.8776   Anisotropy =     7.1170

 19  H    Isotropic =    25.5341   Anisotropy =     6.7527

 20  H    Isotropic =    25.0070   Anisotropy =     8.2748

 21  H    Isotropic =    25.5175   Anisotropy =     5.7018

 22  H    Isotropic =    28.3067   Anisotropy =     5.2626

 23  H    Isotropic =    29.8080   Anisotropy =     8.8763

 24  H    Isotropic =    29.6863   Anisotropy =     9.1143

 25  H    Isotropic =    28.1774   Anisotropy =     6.8948

 26  H    Isotropic =    29.9280   Anisotropy =     9.3303

 27  H    Isotropic =    29.9615   Anisotropy =     9.2024

  Exact polarizability: 185.357   2.589 109.617  -5.324  10.116  72.829
 Approx polarizability: 232.037  10.894 184.720  -9.480  20.228 111.102

                     1                      2                      3
                     A                      A                      A
 Frequencies --    29.4275                39.5878                54.4968
 Red. masses --     3.6337                 3.6570                 1.4385
 Frc consts  --     0.0019                 0.0034                 0.0025
 IR Inten    --     0.9194                 2.3574                 0.0899

                     4                      5                      6
                     A                      A                      A
 Frequencies --    72.5427                95.9329               113.8464
 Red. masses --     3.5890                 3.7882                 2.4649
 Frc consts  --     0.0111                 0.0205                 0.0188
 IR Inten    --     1.6906                 1.5645                 0.5005

                     7                      8                      9
                     A                      A                      A
 Frequencies --   145.2134               179.8998               219.7770
 Red. masses --     1.3611                 3.8953                 2.5059
 Frc consts  --     0.0169                 0.0743                 0.0713
 IR Inten    --     0.2844                 4.5121                 4.0756

                    10                     11                     12
                     A                      A                      A
 Frequencies --   229.1627               244.5565               261.2927
 Red. masses --     2.8352                 3.5915                 1.2599
 Frc consts  --     0.0877                 0.1266                 0.0507
 IR Inten    --     3.1901                 0.3894                 0.3194

                    13                     14                     15
                     A                      A                      A
 Frequencies --   356.0654               390.9577               394.6343
 Red. masses --     3.8020                 5.8485                 4.3864
 Frc consts  --     0.2840                 0.5267                 0.4025
 IR Inten    --     7.0865                 2.0865                10.8928

                    16                     17                     18
                     A                      A                      A
 Frequencies --   426.8673               432.2914               494.1039
 Red. masses --     3.6570                 3.2789                 3.9265
 Frc consts  --     0.3926                 0.3610                 0.5648
 IR Inten    --     3.6348                 0.0322                 4.7491

                    19                     20                     21
                     A                      A                      A
 Frequencies --   530.9998               576.9704               625.2742
 Red. masses --     2.5271                 5.6276                 5.1761
 Frc consts  --     0.4198                 1.1038                 1.1923
 IR Inten    --     6.3755                18.3202                 0.6252

                    22                     23                     24
                     A                      A                      A
 Frequencies --   656.7700               711.7570               739.6293
 Red. masses --     6.5254                 4.3968                12.1079
 Frc consts  --     1.6584                 1.3124                 3.9026
 IR Inten    --     0.9644                 0.1828                18.0355

                    25                     26                     27
                     A                      A                      A
 Frequencies --   773.4439               812.2237               828.5692
 Red. masses --     5.3861                 1.2701                 2.2511
 Frc consts  --     1.8984                 0.4937                 0.9105
 IR Inten    --    18.0384                 3.7713                33.9879

                    28                     29                     30
                     A                      A                      A
 Frequencies --   866.4972               871.1828               931.1547
 Red. masses --     4.3835                 4.2462                 1.3354
 Frc consts  --     1.9391                 1.8988                 0.6822
 IR Inten    --    12.0240                34.3848                 1.5320

                    31                     32                     33
                     A                      A                      A
 Frequencies --   948.8185              1030.0051              1043.0519
 Red. masses --     1.3023                 2.8536                 2.5791
 Frc consts  --     0.6908                 1.7837                 1.6532
 IR Inten    --     0.4007                 6.0737                 8.3324

                    34                     35                     36
                     A                      A                      A
 Frequencies --  1081.9420              1094.9305              1138.4727
 Red. masses --     6.0228                 1.3604                 1.2732
 Frc consts  --     4.1539                 0.9610                 0.9723
 IR Inten    --    61.1411                 7.4483                12.8404

                    37                     38                     39
                     A                      A                      A
 Frequencies --  1145.3174              1185.4375              1186.5221
 Red. masses --     1.2167                 1.7531                 1.2888
 Frc consts  --     0.9403                 1.4515                 1.0690
 IR Inten    --     0.2570               361.3308                16.5053

                    40                     41                     42
                     A                      A                      A
 Frequencies --  1191.5902              1200.9038              1219.2840
 Red. masses --     1.3480                 1.5165                 1.3931
 Frc consts  --     1.1277                 1.2886                 1.2202
 IR Inten    --    20.9777               241.6029                 9.2899

                    43                     44                     45
                     A                      A                      A
 Frequencies --  1243.8352              1298.1725              1304.9259
 Red. masses --     3.5748                 5.4609                 7.3104
 Frc consts  --     3.2586                 5.4223                 7.3343
 IR Inten    --   665.0229                18.1212                41.7628

                    46                     47                     48
                     A                      A                      A
 Frequencies --  1336.8622              1362.4852              1439.6950
 Red. masses --     1.3063                 8.9497                 2.6559
 Frc consts  --     1.3755                 9.7886                 3.2434
 IR Inten    --     3.1238                32.9618               320.2911

                    49                     50                     51
                     A                      A                      A
 Frequencies --  1460.4371              1466.2455              1490.1081
 Red. masses --     1.1877                 3.1988                 1.2182
 Frc consts  --     1.4926                 4.0519                 1.5937
 IR Inten    --    28.4157                 0.3653                74.4940

                    52                     53                     54
                     A                      A                      A
 Frequencies --  1500.5284              1519.5978              1521.3450
 Red. masses --     1.2005                 1.0424                 1.0481
 Frc consts  --     1.5926                 1.4182                 1.4292
 IR Inten    --    16.9139                 1.7243                 5.3265

                    55                     56                     57
                     A                      A                      A
 Frequencies --  1530.8170              1531.7069              1535.9625
 Red. masses --     1.0456                 1.0488                 1.0719
 Frc consts  --     1.4437                 1.4498                 1.4899
 IR Inten    --    15.1600                17.6991                49.7889

                    58                     59                     60
                     A                      A                      A
 Frequencies --  1559.7011              1568.9390              1644.2263
 Red. masses --     1.7245                 1.5145                 6.9302
 Frc consts  --     2.4716                 2.1965                11.0387
 IR Inten    --   203.6636                 5.5051                10.3170

                    61                     62                     63
                     A                      A                      A
 Frequencies --  1675.3821              1815.8528              3022.1928
 Red. masses --     6.0761                10.9077                 1.0350
 Frc consts  --    10.0486                21.1906                 5.5698
 IR Inten    --    15.9946               377.9480                60.4809

                    64                     65                     66
                     A                      A                      A
 Frequencies --  3026.1794              3033.9036              3072.0704
 Red. masses --     1.0412                 1.0416                 1.1028
 Frc consts  --     5.6181                 5.6488                 6.1320
 IR Inten    --    30.6643               117.7836                62.4256

                    67                     68                     69
                     A                      A                      A
 Frequencies --  3077.3054              3079.4491              3155.5626
 Red. masses --     1.1043                 1.1065                 1.0993
 Frc consts  --     6.1615                 6.1821                 6.4497
 IR Inten    --    15.5983                46.6689                28.2849

                    70                     71                     72
                     A                      A                      A
 Frequencies --  3193.9418              3208.7364              3210.9299
 Red. masses --     1.0959                 1.0891                 1.0941
 Frc consts  --     6.5870                 6.6065                 6.6464
 IR Inten    --     0.9002                11.8929                 3.3733

                    73                     74                     75
                     A                      A                      A
 Frequencies --  3214.5716              3231.3096              3245.2743
 Red. masses --     1.0898                 1.0923                 1.0936
 Frc consts  --     6.6353                 6.7195                 6.7858
 IR Inten    --     4.1455                10.1173                 2.7477

 - Thermochemistry -
 -------------------
 Temperature   298.150 Kelvin.  Pressure   1.00000 Atm.
 Atom     1 has atomic number  6 and mass  12.00000

 Molecular mass:   195.08954 amu.
 Principal axes and moments of inertia in atomic units:
                           1         2         3
     Eigenvalues --   740.599916479.898176900.77694
           X            0.99999  -0.00157  -0.00480
           Y            0.00168   0.99973   0.02298
           Z            0.00476  -0.02299   0.99972
 This molecule is an asymmetric top.
 Rotational symmetry number  1.
 Warning -- assumption of classical behavior for rotation
           may cause significant error
 Rotational temperatures (Kelvin)      0.11695     0.01337     0.01255
 Rotational constants (GHZ):           2.43686     0.27851     0.26153
 Zero-point vibrational energy     581084.0 (Joules/Mol)
                                  138.88241 (Kcal/Mol)
 Warning -- explicit consideration of  20 degrees of freedom as
           vibrations may cause significant error
 Vibrational temperatures:     42.34    56.96    78.41   104.37   138.03
          (Kelvin)            163.80   208.93   258.84   316.21   329.71
                              351.86   375.94   512.30   562.50   567.79
                              614.17   621.97   710.90   763.99   830.13
                              899.63   944.94  1024.06  1064.16  1112.81
                             1168.61  1192.12  1246.69  1253.44  1339.72
                             1365.14  1481.95  1500.72  1556.67  1575.36
                             1638.01  1647.85  1705.58  1707.14  1714.43
                             1727.83  1754.28  1789.60  1867.78  1877.49
                             1923.44  1960.31  2071.40  2101.24  2109.60
                             2143.93  2158.92  2186.36  2188.87  2202.50
                             2203.78  2209.90  2244.06  2257.35  2365.67
                             2410.50  2612.60  4348.26  4353.99  4365.11
                             4420.02  4427.55  4430.63  4540.15  4595.36
                             4616.65  4619.81  4625.05  4649.13  4669.22

 Zero-point correction=                           0.221323 (Hartree/Particle)
 Thermal correction to Energy=                    0.235659
 Thermal correction to Enthalpy=                  0.236603
 Thermal correction to Gibbs Free Energy=         0.178399
 Sum of electronic and zero-point Energies=           -669.094388
 Sum of electronic and thermal Energies=              -669.080053
 Sum of electronic and thermal Enthalpies=            -669.079109
 Sum of electronic and thermal Free Energies=         -669.137313

                     E (Thermal)             CV                S
                      KCal/Mol        Cal/Mol-Kelvin    Cal/Mol-Kelvin
 Total                  147.878             51.392            122.501
 Electronic               0.000              0.000              0.000
 Translational            0.889              2.981             41.710
 Rotational               0.889              2.981             31.871
 Vibrational            146.101             45.430             48.919
 Vibration     1          0.593              1.984              5.868
 Vibration     2          0.594              1.981              5.280
 Vibration     3          0.596              1.976              4.647
 Vibration     4          0.599              1.967              4.083
 Vibration     5          0.603              1.952              3.535
 Vibration     6          0.607              1.938              3.202
 Vibration     7          0.617              1.908              2.734
 Vibration     8          0.629              1.867              2.329
 Vibration     9          0.647              1.811              1.961
 Vibration    10          0.652              1.796              1.885
 Vibration    11          0.660              1.772              1.769
 Vibration    12          0.669              1.744              1.653
 Vibration    13          0.732              1.563              1.139
 Vibration    14          0.759              1.490              0.996
 Vibration    15          0.762              1.482              0.983
 Vibration    16          0.789              1.412              0.869
 Vibration    17          0.793              1.400              0.851
 Vibration    18          0.850              1.263              0.673
 Vibration    19          0.886              1.181              0.585
 Vibration    20          0.933              1.081              0.491

 Normal termination of Gaussian 09 at Tue Sep 28 20:10:30 2021.
 Gaussian 09:  AM64L-G09RevA.02 11-Jun-2009

 ----------------------------------------------------------------------
 #p TD(NStates=10, Root=1) b3lyp/6-31G* volume pop=NPA density=current
 Geom=AllCheck Guess=Read
 ----------------------------------------------------------------------

 COc1ccc(cc1)OC(=O)N(C)C_conf_0
 ------------------------------
 Redundant internal coordinates taken from checkpoint file:
 C10H13NO3_ea97_conf_0.chk
 Charge =  0 Multiplicity = 1

                         Standard orientation:
 ---------------------------------------------------------------------
 Center     Atomic      Atomic             Coordinates (Angstroms)
 Number     Number       Type             X           Y           Z
 ---------------------------------------------------------------------
      1          6           0       -5.097400    0.426415    0.396484
      2          8           0       -4.184486   -0.525723   -0.121588
      3          6           0       -2.853953   -0.210965   -0.118006
      4          6           0       -2.321149    0.994022    0.351296
      5          6           0       -0.939120    1.201805    0.307126
      6          6           0       -0.099469    0.221981   -0.205684
      7          6           0       -0.624217   -0.982184   -0.682937
      8          6           0       -1.995546   -1.194293   -0.633095
      9          8           0        1.255427    0.540893   -0.305578
     10          6           0        2.189620   -0.338517    0.196560
     11          8           0        1.909757   -1.394323    0.731914
     12          7           0        3.455644    0.137283    0.002169
     13          6           0        3.779286    1.417623   -0.607037
     14          6           0        4.575273   -0.645297    0.499729
     15          1           0       -6.087160   -0.024539    0.302735
     16          1           0       -5.072155    1.364670   -0.174419
     17          1           0       -4.898105    0.644722    1.454410
     18          1           0       -2.959772    1.772065    0.752841
     19          1           0       -0.510521    2.131360    0.668747
     20          1           0        0.036516   -1.746247   -1.073489
     21          1           0       -2.428368   -2.122711   -0.991900
     22          1           0        2.877857    1.893048   -0.985331
     23          1           0        4.480494    1.269426   -1.438899
     24          1           0        4.256417    2.084400    0.124910
     25          1           0        4.195463   -1.576619    0.916841
     26          1           0        5.117955   -0.092964    1.279114
     27          1           0        5.276339   -0.867916   -0.315336
 ---------------------------------------------------------------------

 SCF Done:  E(RB3LYP) =  -669.315711619     A.U. after    1 cycles

 Excitation energies and oscillator strengths:

 Excited State   1:      Singlet-A      5.0237 eV  246.80 nm  f=0.0341  <S**2>=0.000
      50 -> 54        -0.27196
      52 -> 53         0.64349
 This state for optimization and/or second-order correction.
 Total Energy, E(TD-HF/TD-KS) =  -669.131095589
 Copying the excited state density for this state as the 1-particle RhoCI density.

 Excited State   2:      Singlet-A      5.7400 eV  216.00 nm  f=0.2870  <S**2>=0.000
      50 -> 53         0.24724
      52 -> 54         0.64332

 Excited State   3:      Singlet-A      6.0078 eV  206.37 nm  f=0.0018  <S**2>=0.000
      51 -> 53         0.70180

 Excited State   4:      Singlet-A      6.4161 eV  193.24 nm  f=0.1142  <S**2>=0.000
      49 -> 53        -0.17798
      50 -> 53        -0.20815
      51 -> 54         0.64519

 Excited State   5:      Singlet-A      6.4976 eV  190.82 nm  f=0.1332  <S**2>=0.000
      49 -> 53         0.43038
      50 -> 53         0.34325
      51 -> 54         0.24797
      52 -> 54        -0.10038
      52 -> 55         0.33339

 Excited State   6:      Singlet-A      6.5540 eV  189.17 nm  f=0.0114  <S**2>=0.000
      49 -> 53        -0.24869
      49 -> 54         0.35619
      49 -> 55        -0.25478
      50 -> 54         0.22845
      50 -> 55        -0.12731
      52 -> 55         0.39933

 Excited State   7:      Singlet-A      6.6091 eV  187.60 nm  f=0.0212  <S**2>=0.000
      49 -> 53        -0.34314
      49 -> 54        -0.32856
      49 -> 55         0.16664
      50 -> 54        -0.27049
      50 -> 55         0.10629
      52 -> 55         0.37276

 Excited State   8:      Singlet-A      6.9754 eV  177.75 nm  f=0.2694  <S**2>=0.000
      47 -> 53         0.11747
      48 -> 53         0.19365
      49 -> 53         0.16450
      49 -> 54        -0.25544
      49 -> 55         0.14400
      50 -> 53        -0.26547
      50 -> 54         0.37992
      52 -> 53         0.18546
      52 -> 54         0.14447
      52 -> 55         0.19973

 Excited State   9:      Singlet-A      7.0593 eV  175.63 nm  f=0.5273  <S**2>=0.000
      49 -> 53        -0.26559
      49 -> 54        -0.11370
      49 -> 55         0.20115
      50 -> 53         0.40701
      50 -> 54         0.30363
      52 -> 53         0.11777
      52 -> 54        -0.16699
      52 -> 55        -0.17136

 Excited State  10:      Singlet-A      7.1599 eV  173.16 nm  f=0.0020  <S**2>=0.000
      48 -> 53         0.17379
      52 -> 56         0.62538
      52 -> 57         0.23414
      52 -> 58        -0.11356

 The electronic state is 1-A.
 Alpha  occ. eigenvalues --  -19.18926 -19.17441 -19.11191 -14.36717 -10.32907
 Alpha  occ. eigenvalues --  -10.24314 -10.23947 -10.23939 -10.22064 -10.21512
 Alpha  occ. eigenvalues --  -10.18944 -10.18789 -10.18703 -10.18303  -1.10039
 Alpha  occ. eigenvalues --   -1.06022  -1.00904  -0.93874  -0.84744  -0.75911
 Alpha  occ. eigenvalues --   -0.74610  -0.72518  -0.71278  -0.68156  -0.61623
 Alpha  occ. eigenvalues --   -0.60837  -0.55911  -0.53177  -0.52728  -0.49268
 Alpha  occ. eigenvalues --   -0.48314  -0.47318  -0.46579  -0.45326  -0.44357
 Alpha  occ. eigenvalues --   -0.43085  -0.42286  -0.41835  -0.40720  -0.40492
 Alpha  occ. eigenvalues --   -0.40172  -0.39015  -0.37819  -0.36599  -0.36204
 Alpha  occ. eigenvalues --   -0.32829  -0.31939  -0.29487  -0.26902  -0.24719
 Alpha  occ. eigenvalues --   -0.24157  -0.20850
 Alpha virt. eigenvalues --    0.00162   0.01710   0.05971   0.09160   0.09300
 Alpha virt. eigenvalues --    0.10958   0.12633   0.13940   0.14464   0.14827
 Alpha virt. eigenvalues --    0.15559   0.15733   0.16180   0.16662   0.17280

 Mulliken atomic charges:
              1
     1  C   -0.226077
     2  O   -0.449370
     3  C    0.365098
     4  C   -0.214466
     5  C   -0.200947
     6  C    0.367376
     7  C   -0.162584
     8  C   -0.212083
     9  O   -0.541368
    10  C    0.784342
    11  O   -0.500770
    12  N   -0.433709
    13  C   -0.317206
    14  C   -0.318387
    15  H    0.177291
    16  H    0.170120
    17  H    0.171849
    18  H    0.121140
    19  H    0.123192
    20  H    0.137549
    21  H    0.127809
    22  H    0.200658
    23  H    0.157149
    24  H    0.156319
    25  H    0.207234
    26  H    0.155001
    27  H    0.154840
 Sum of Mulliken atomic charges =  -0.00000

 Dipole moment (field-independent basis, Debye):
    X=              0.1166    Y=              2.9544    Z=             -0.2335  Tot=              2.9659
 Quadrupole moment (field-independent basis, Debye-Ang):
   XX=            -49.7368   YY=            -82.1361   ZZ=            -83.5158
   XY=             -1.0857   XZ=             -5.1358   YZ=              3.2142

 Summary of Natural Population Analysis:

                                       Natural Population
                Natural  -----------------------------------------------
    Atom  No    Charge         Core      Valence    Rydberg      Total
 -----------------------------------------------------------------------
      C    1   -0.32504      1.99942     4.31149    0.01413     6.32504
      O    2   -0.42889      1.99975     6.41745    0.01169     8.42889
      C    3    0.33347      1.99879     3.64476    0.02298     5.66653
      C    4   -0.34357      1.99905     4.32722    0.01729     6.34357
      C    5   -0.31992      1.99904     4.30053    0.02035     6.31992
      C    6    0.35630      1.99869     3.62218    0.02283     5.64370
      C    7   -0.31683      1.99903     4.29947    0.01834     6.31683
      C    8   -0.32137      1.99907     4.30186    0.02043     6.32137
      O    9   -0.53519      1.99969     6.52517    0.01034     8.53519
      C   10    0.94042      1.99937     3.01519    0.04502     5.05958
      O   11   -0.63602      1.99978     6.61714    0.01910     8.63602
      N   12   -0.48335      1.99932     5.47308    0.01095     7.48335
      C   13   -0.47090      1.99946     4.45995    0.01149     6.47090
      C   14   -0.46936      1.99947     4.45801    0.01188     6.46936
      H   15    0.23129      0.00000     0.76817    0.00054     0.76871
      H   16    0.21604      0.00000     0.78191    0.00205     0.78396
      H   17    0.21719      0.00000     0.78076    0.00205     0.78281
      H   18    0.22822      0.00000     0.77083    0.00095     0.77178
      H   19    0.23666      0.00000     0.76214    0.00121     0.76334
      H   20    0.24712      0.00000     0.75181    0.00108     0.75288
      H   21    0.23858      0.00000     0.76021    0.00120     0.76142
      H   22    0.25769      0.00000     0.74144    0.00086     0.74231
      H   23    0.22289      0.00000     0.77564    0.00147     0.77711
      H   24    0.22014      0.00000     0.77824    0.00162     0.77986
      H   25    0.26431      0.00000     0.73414    0.00155     0.73569
      H   26    0.21944      0.00000     0.77917    0.00140     0.78056
      H   27    0.22068      0.00000     0.77802    0.00131     0.77932
 =======================================================================
   * Total *    0.00000     27.98992    75.73597    0.27411   104.00000

 Normal termination of Gaussian 09 at Tue Sep 28 23:51:00 2021.
