 Gaussian 09, Revision A.02,

 -----------------------------------
 #p opt b3lyp/6-31G* scf=(xqc,tight)
 -----------------------------------

 -----------------------------
 O=C(C(C)(C)C)Oc1cccnc1_conf_0
 -----------------------------
 Symbolic Z-matrix:
 Charge =  0 Multiplicity = 1

 SCF Done:  E(RB3LYP) =  -594.097337605     A.U. after   15 cycles
 SCF Done:  E(RB3LYP) =  -594.100475645     A.U. after   16 cycles
 SCF Done:  E(RB3LYP) =  -594.100046881     A.U. after   16 cycles
 SCF Done:  E(RB3LYP) =  -594.100729910     A.U. after   16 cycles
 SCF Done:  E(RB3LYP) =  -594.100950150     A.U. after   16 cycles
 SCF Done:  E(RB3LYP) =  -594.101230888     A.U. after   12 cycles
 SCF Done:  E(RB3LYP) =  -594.101318944     A.U. after   15 cycles
 SCF Done:  E(RB3LYP) =  -594.101652024     A.U. after   12 cycles
 SCF Done:  E(RB3LYP) =  -594.101777468     A.U. after   14 cycles
 SCF Done:  E(RB3LYP) =  -594.101792739     A.U. after   11 cycles
 SCF Done:  E(RB3LYP) =  -594.101799023     A.U. after   11 cycles
 SCF Done:  E(RB3LYP) =  -594.101799890     A.U. after    9 cycles
 SCF Done:  E(RB3LYP) =  -594.101802471     A.U. after   10 cycles
 SCF Done:  E(RB3LYP) =  -594.101803396     A.U. after    9 cycles
 SCF Done:  E(RB3LYP) =  -594.101803831     A.U. after    8 cycles
 Optimization completed.
    -- Stationary point found.
 Normal termination of Gaussian 09 at Wed Sep 29 15:27:31 2021.

 ----------------------------------------------------------------------
 #p freq b3lyp/6-31G* volume NMR pop=NPA density=current Geom=AllCheck
 Guess=Read
 ----------------------------------------------------------------------

 O=C(C(C)(C)C)Oc1cccnc1_conf_0
 -----------------------------
 Redundant internal coordinates taken from checkpoint file:
 C10H13NO2_136f_conf_0.chk
 Charge =  0 Multiplicity = 1

 SCF Done:  E(RB3LYP) =  -594.101803831     A.U. after    1 cycles

  1  O    Isotropic =   -65.5210   Anisotropy =   573.3588

  2  C    Isotropic =    22.5878   Anisotropy =    78.4118

  3  C    Isotropic =   148.9472   Anisotropy =    23.7797

  4  C    Isotropic =   162.2361   Anisotropy =    37.8607

  5  C    Isotropic =   162.1670   Anisotropy =    37.6636

  6  C    Isotropic =   162.9399   Anisotropy =    31.4072

  7  O    Isotropic =   114.4402   Anisotropy =   155.8707

  8  C    Isotropic =    48.5159   Anisotropy =   113.5069

  9  C    Isotropic =    69.6247   Anisotropy =   157.5941

 10  C    Isotropic =    72.8792   Anisotropy =   155.4697

 11  C    Isotropic =    50.1796   Anisotropy =   155.0575

 12  N    Isotropic =   -65.0874   Anisotropy =   538.7301

 13  C    Isotropic =    50.1837   Anisotropy =   145.0317

 14  H    Isotropic =    30.4105   Anisotropy =     7.2964

 15  H    Isotropic =    30.8838   Anisotropy =     8.2316

 16  H    Isotropic =    31.0786   Anisotropy =     7.7769

 17  H    Isotropic =    30.4609   Anisotropy =     6.3687

 18  H    Isotropic =    31.0578   Anisotropy =     7.7662

 19  H    Isotropic =    30.8020   Anisotropy =     8.3470

 20  H    Isotropic =    30.7099   Anisotropy =     8.0132

 21  H    Isotropic =    30.6114   Anisotropy =     8.2111

 22  H    Isotropic =    31.4550   Anisotropy =     7.7052

 23  H    Isotropic =    25.2427   Anisotropy =     7.3042

 24  H    Isotropic =    25.1314   Anisotropy =     5.4142

 25  H    Isotropic =    23.6981   Anisotropy =     5.3694

 26  H    Isotropic =    23.6605   Anisotropy =     9.3617

  Exact polarizability: 151.429  -2.595 108.017   4.058  -5.491  75.214
 Approx polarizability: 201.053   0.373 183.754   9.168  -7.003 114.993

                     1                      2                      3
                     A                      A                      A
 Frequencies --    24.9767                45.8700                54.9023
 Red. masses --     3.7409                 4.6423                 5.6494
 Frc consts  --     0.0014                 0.0058                 0.0100
 IR Inten    --     0.8217                 0.7299                 0.1395

                     4                      5                      6
                     A                      A                      A
 Frequencies --    96.1405               197.3608               207.3113
 Red. masses --     5.0671                 3.8278                 1.3425
 Frc consts  --     0.0276                 0.0878                 0.0340
 IR Inten    --     0.2881                 0.1412                 0.2438

                     7                      8                      9
                     A                      A                      A
 Frequencies --   236.4574               257.1800               270.1693
 Red. masses --     1.6278                 1.9067                 1.2987
 Frc consts  --     0.0536                 0.0743                 0.0558
 IR Inten    --     0.2941                 0.3116                 0.2039

                    10                     11                     12
                     A                      A                      A
 Frequencies --   285.1668               314.0681               354.3941
 Red. masses --     1.2392                 2.8851                 3.1161
 Frc consts  --     0.0594                 0.1677                 0.2306
 IR Inten    --     0.2488                 4.2091                 5.5406

                    13                     14                     15
                     A                      A                      A
 Frequencies --   371.5751               405.5136               421.6082
 Red. masses --     2.4629                 4.7668                 3.2977
 Frc consts  --     0.2003                 0.4618                 0.3454
 IR Inten    --     0.4320                 5.5349                 2.3444

                    16                     17                     18
                     A                      A                      A
 Frequencies --   449.0388               513.2377               576.0179
 Red. masses --     3.2498                 4.3238                 4.4866
 Frc consts  --     0.3861                 0.6711                 0.8771
 IR Inten    --     3.4413                 1.6977                 2.9015

                    19                     20                     21
                     A                      A                      A
 Frequencies --   618.3485               643.5015               719.0127
 Red. masses --     6.1485                 6.1079                 2.3954
 Frc consts  --     1.3851                 1.4902                 0.7296
 IR Inten    --     4.7182                 0.9926                18.5944

                    22                     23                     24
                     A                      A                      A
 Frequencies --   757.1507               793.6419               821.1807
 Red. masses --     6.6858                 2.5449                 2.8402
 Frc consts  --     2.2582                 0.9444                 1.1284
 IR Inten    --     3.3089                 6.2226                 4.2045

                    25                     26                     27
                     A                      A                      A
 Frequencies --   851.3324               898.4658               927.6292
 Red. masses --     3.6011                 3.0338                 1.4045
 Frc consts  --     1.5377                 1.4429                 0.7121
 IR Inten    --    10.1617                13.0930                 1.7123

                    28                     29                     30
                     A                      A                      A
 Frequencies --   951.0796               956.0775               961.3661
 Red. masses --     1.7635                 1.6324                 1.4880
 Frc consts  --     0.9398                 0.8792                 0.8103
 IR Inten    --     1.4429                 2.8057                 3.6459

                    31                     32                     33
                     A                      A                      A
 Frequencies --   982.3582               986.8835              1039.1518
 Red. masses --     1.1985                 1.3453                 4.1256
 Frc consts  --     0.6814                 0.7720                 2.6248
 IR Inten    --     0.0179                 0.4293                20.8023

                    34                     35                     36
                     A                      A                      A
 Frequencies --  1057.0406              1061.2587              1070.1190
 Red. masses --     1.5819                 1.4361                 2.2926
 Frc consts  --     1.0414                 0.9530                 1.5468
 IR Inten    --    47.8336                 1.3051                 0.2277

                    37                     38                     39
                     A                      A                      A
 Frequencies --  1134.4958              1141.1530              1231.0889
 Red. masses --     1.9495                 2.0873                 1.5328
 Frc consts  --     1.4783                 1.6015                 1.3687
 IR Inten    --   225.7956               276.3564                35.1671

                    40                     41                     42
                     A                      A                      A
 Frequencies --  1241.8877              1244.7281              1265.7033
 Red. masses --     2.7012                 3.0862                 2.9219
 Frc consts  --     2.4545                 2.8173                 2.7579
 IR Inten    --    18.9244               197.8781                47.4472

                    43                     44                     45
                     A                      A                      A
 Frequencies --  1305.1911              1311.6518              1368.2131
 Red. masses --     4.1196                 4.5707                 1.3153
 Frc consts  --     4.1348                 4.6331                 1.4507
 IR Inten    --    15.3478                15.9479                 1.0307

                    46                     47                     48
                     A                      A                      A
 Frequencies --  1423.5502              1429.6778              1458.7263
 Red. masses --     1.2047                 1.2304                 1.2205
 Frc consts  --     1.4384                 1.4818                 1.5301
 IR Inten    --     4.0109                 4.2197                13.8817

                    49                     50                     51
                     A                      A                      A
 Frequencies --  1472.8886              1508.9894              1516.2097
 Red. masses --     2.3749                 1.0483                 1.0456
 Frc consts  --     3.0355                 1.4064                 1.4163
 IR Inten    --    54.1135                 0.0396                 0.3960

                    52                     53                     54
                     A                      A                      A
 Frequencies --  1521.2902              1523.9471              1530.6579
 Red. masses --     1.0471                 2.1887                 1.0492
 Frc consts  --     1.4278                 2.9948                 1.4483
 IR Inten    --     0.2120                53.6214                 5.9256

                    55                     56                     57
                     A                      A                      A
 Frequencies --  1533.7708              1550.4784              1635.1694
 Red. masses --     1.0552                 1.0657                 5.6275
 Frc consts  --     1.4625                 1.5095                 8.8652
 IR Inten    --     7.3374                21.0698                 8.0051

                    58                     59                     60
                     A                      A                      A
 Frequencies --  1644.9086              1838.8260              3051.5412
 Red. masses --     6.1318                12.7232                 1.0353
 Frc consts  --     9.7752                25.3471                 5.6803
 IR Inten    --     7.5697               180.0897                27.4006

                    61                     62                     63
                     A                      A                      A
 Frequencies --  3053.0261              3062.2997              3115.6163
 Red. masses --     1.0361                 1.0365                 1.1031
 Frc consts  --     5.6899                 5.7269                 6.3089
 IR Inten    --    10.4174                23.9287                10.4456

                    64                     65                     66
                     A                      A                      A
 Frequencies --  3116.5184              3130.5467              3139.2362
 Red. masses --     1.1024                 1.1019                 1.1023
 Frc consts  --     6.3084                 6.3624                 6.4001
 IR Inten    --    23.8841                37.5010                 0.6363

                    67                     68                     69
                     A                      A                      A
 Frequencies --  3141.0761              3143.4130              3180.5766
 Red. masses --     1.1026                 1.1011                 1.0886
 Frc consts  --     6.4095                 6.4101                 6.4885
 IR Inten    --    22.7504                41.5573                19.1402

                    70                     71                     72
                     A                      A                      A
 Frequencies --  3204.6260              3207.4033              3221.4116
 Red. masses --     1.0907                 1.0916                 1.0967
 Frc consts  --     6.5995                 6.6163                 6.7054
 IR Inten    --    27.1648                 3.6068                 7.4814

 - Thermochemistry -
 -------------------
 Temperature   298.150 Kelvin.  Pressure   1.00000 Atm.
 Atom     1 has atomic number  8 and mass  15.99491

 Molecular mass:   179.09463 amu.
 Principal axes and moments of inertia in atomic units:
                           1         2         3
     Eigenvalues --   882.444304277.682564562.51717
           X            0.99998  -0.00289   0.00552
           Y            0.00313   0.99903  -0.04397
           Z           -0.00539   0.04399   0.99902
 This molecule is an asymmetric top.
 Rotational symmetry number  1.
 Warning -- assumption of classical behavior for rotation
           may cause significant error
 Rotational temperatures (Kelvin)      0.09815     0.02025     0.01898
 Rotational constants (GHZ):           2.04516     0.42190     0.39556
 Zero-point vibrational energy     566892.8 (Joules/Mol)
                                  135.49064 (Kcal/Mol)
 Warning -- explicit consideration of  19 degrees of freedom as
           vibrations may cause significant error
 Vibrational temperatures:     35.94    66.00    78.99   138.32   283.96
          (Kelvin)            298.27   340.21   370.02   388.71   410.29
                              451.87   509.89   534.61   583.44   606.60
                              646.07   738.43   828.76   889.66   925.85
                             1034.50  1089.37  1141.87  1181.49  1224.88
                             1292.69  1334.65  1368.39  1375.58  1383.19
                             1413.39  1419.90  1495.11  1520.84  1526.91
                             1539.66  1632.28  1641.86  1771.26  1786.80
                             1790.88  1821.06  1877.88  1887.17  1968.55
                             2048.17  2056.98  2098.78  2119.16  2171.10
                             2181.48  2188.79  2192.62  2202.27  2206.75
                             2230.79  2352.64  2366.65  2645.66  4390.48
                             4392.62  4405.96  4482.67  4483.97  4504.15
                             4516.66  4519.30  4522.66  4576.13  4610.74
                             4614.73  4634.89

 Zero-point correction=                           0.215918 (Hartree/Particle)
 Thermal correction to Energy=                    0.228710
 Thermal correction to Enthalpy=                  0.229654
 Thermal correction to Gibbs Free Energy=         0.175667
 Sum of electronic and zero-point Energies=           -593.885886
 Sum of electronic and thermal Energies=              -593.873094
 Sum of electronic and thermal Enthalpies=            -593.872149
 Sum of electronic and thermal Free Energies=         -593.926137

                     E (Thermal)             CV                S
                      KCal/Mol        Cal/Mol-Kelvin    Cal/Mol-Kelvin
 Total                  143.518             47.963            113.626
 Electronic               0.000              0.000              0.000
 Translational            0.889              2.981             41.455
 Rotational               0.889              2.981             31.222
 Vibrational            141.740             42.001             40.949
 Vibration     1          0.593              1.985              6.193
 Vibration     2          0.595              1.979              4.988
 Vibration     3          0.596              1.976              4.633
 Vibration     4          0.603              1.952              3.531
 Vibration     5          0.637              1.844              2.158
 Vibration     6          0.641              1.829              2.067
 Vibration     7          0.655              1.785              1.829
 Vibration     8          0.667              1.751              1.681
 Vibration     9          0.674              1.728              1.595
 Vibration    10          0.683              1.701              1.502
 Vibration    11          0.702              1.647              1.341
 Vibration    12          0.730              1.566              1.147
 Vibration    13          0.743              1.531              1.073
 Vibration    14          0.770              1.458              0.943
 Vibration    15          0.784              1.423              0.887
 Vibration    16          0.808              1.363              0.799
 Vibration    17          0.868              1.221              0.626
 Vibration    18          0.932              1.083              0.493
 Vibration    19          0.978              0.993              0.419

 Optimization completed.
    -- Stationary point found.
 Normal termination of Gaussian 09 at Wed Sep 29 16:17:18 2021.
 Gaussian 09:  AM64L-G09RevA.02 11-Jun-2009

 ----------------------------------------------------------------------
 #p TD(NStates=10, Root=1) b3lyp/6-31G* volume pop=NPA density=current
 Geom=AllCheck Guess=Read
 ----------------------------------------------------------------------

 O=C(C(C)(C)C)Oc1cccnc1_conf_0
 -----------------------------
 Redundant internal coordinates taken from checkpoint file:
 C10H13NO2_136f_conf_0.chk
 Charge =  0 Multiplicity = 1

                         Standard orientation:
 ---------------------------------------------------------------------
 Center     Atomic      Atomic             Coordinates (Angstroms)
 Number     Number       Type             X           Y           Z
 ---------------------------------------------------------------------
      1          8           0        0.731274   -1.184912   -1.104317
      2          6           0        1.045529   -0.324933   -0.320464
      3          6           0        2.471371    0.083870    0.057025
      4          6           0        2.675835    1.580315   -0.269249
      5          6           0        2.674323   -0.154535    1.570827
      6          6           0        3.454743   -0.775273   -0.753542
      7          8           0        0.123537    0.436974    0.368294
      8          6           0       -1.235862    0.209997    0.176307
      9          6           0       -2.034133    1.289113   -0.185172
     10          6           0       -3.407637    1.078474   -0.294884
     11          6           0       -3.909285   -0.198063   -0.039997
     12          7           0       -3.140725   -1.237418    0.310438
     13          6           0       -1.825222   -1.033735    0.416821
     14          1           0        1.991856    2.212039    0.304088
     15          1           0        2.518043    1.778874   -1.335666
     16          1           0        3.702981    1.872363   -0.022611
     17          1           0        1.983154    0.447740    2.167056
     18          1           0        3.698473    0.117109    1.850937
     19          1           0        2.524868   -1.208965    1.830553
     20          1           0        3.318420   -0.626077   -1.828930
     21          1           0        3.314508   -1.840470   -0.547257
     22          1           0        4.483988   -0.503980   -0.493758
     23          1           0       -1.582268    2.259205   -0.368242
     24          1           0       -4.075071    1.888878   -0.572284
     25          1           0       -4.976532   -0.397062   -0.116130
     26          1           0       -1.213805   -1.885596    0.701338
 ---------------------------------------------------------------------

 SCF Done:  E(RB3LYP) =  -594.101803831     A.U. after    2 cycles

 Excitation energies and oscillator strengths:

 Excited State   1:      Singlet-A      4.8996 eV  253.05 nm  f=0.0050  <S**2>=0.000
      47 -> 49         0.53007
      48 -> 49         0.44988
 This state for optimization and/or second-order correction.
 Total Energy, E(TD-HF/TD-KS) =  -593.921745120
 Copying the excited state density for this state as the 1-particle RhoCI density.

 Excited State   2:      Singlet-A      5.1967 eV  238.58 nm  f=0.0017  <S**2>=0.000
      47 -> 50         0.51820
      47 -> 51        -0.15223
      48 -> 50         0.43023
      48 -> 51        -0.11366

 Excited State   3:      Singlet-A      5.4280 eV  228.42 nm  f=0.0468  <S**2>=0.000
      45 -> 50         0.22994
      45 -> 51        -0.11246
      46 -> 50         0.21201
      47 -> 49        -0.39786
      48 -> 49         0.45982

 Excited State   4:      Singlet-A      5.5402 eV  223.79 nm  f=0.0136  <S**2>=0.000
      45 -> 50        -0.15882
      45 -> 51        -0.10408
      46 -> 49         0.31185
      46 -> 50         0.40892
      46 -> 51         0.39305
      48 -> 49        -0.10213

 Excited State   5:      Singlet-A      5.8944 eV  210.34 nm  f=0.0721  <S**2>=0.000
      45 -> 49        -0.10503
      45 -> 50        -0.12496
      46 -> 49        -0.19936
      46 -> 50         0.15644
      46 -> 51         0.11271
      47 -> 50        -0.36129
      47 -> 51        -0.11744
      48 -> 50         0.44190
      48 -> 51         0.20451

 Excited State   6:      Singlet-A      6.0976 eV  203.33 nm  f=0.0405  <S**2>=0.000
      45 -> 49        -0.19201
      46 -> 49         0.55953
      46 -> 50        -0.23257
      46 -> 51        -0.12305
      47 -> 50        -0.12473
      47 -> 51        -0.16299
      48 -> 50         0.13089
      48 -> 51         0.11507

 Excited State   7:      Singlet-A      6.3735 eV  194.53 nm  f=0.0062  <S**2>=0.000
      47 -> 50         0.16785
      47 -> 51         0.45525
      48 -> 51         0.49525

 Excited State   8:      Singlet-A      6.4755 eV  191.47 nm  f=0.0445  <S**2>=0.000
      45 -> 49        -0.31211
      45 -> 50         0.10424
      46 -> 50        -0.16785
      46 -> 51         0.12904
      47 -> 51         0.41930
      48 -> 50         0.15079
      48 -> 51        -0.35243

 Excited State   9:      Singlet-A      6.5622 eV  188.94 nm  f=0.0204  <S**2>=0.000
      45 -> 49         0.15944
      45 -> 50         0.13963
      45 -> 51        -0.14064
      46 -> 50        -0.37218
      46 -> 51         0.50412
      47 -> 51        -0.10001
      48 -> 51         0.13631

 Excited State  10:      Singlet-A      6.9815 eV  177.59 nm  f=0.1320  <S**2>=0.000
      44 -> 49         0.20170
      45 -> 49         0.18633
      45 -> 50         0.48006
      45 -> 51         0.29111
      46 -> 50         0.16566
      47 -> 49         0.10178
      47 -> 50        -0.10494
      48 -> 49        -0.14183
      48 -> 50         0.13230

 The electronic state is 1-A.
 Alpha  occ. eigenvalues --  -19.20812 -19.14830 -14.33463 -10.32378 -10.26175
 Alpha  occ. eigenvalues --  -10.22682 -10.22450 -10.22045 -10.21435 -10.20641
 Alpha  occ. eigenvalues --  -10.18813 -10.18784 -10.17917  -1.11495  -1.03213
 Alpha  occ. eigenvalues --   -0.94368  -0.83371  -0.80811  -0.76596  -0.69760
 Alpha  occ. eigenvalues --   -0.69367  -0.67438  -0.64272  -0.60884  -0.56664
 Alpha  occ. eigenvalues --   -0.52206  -0.50338  -0.49267  -0.48618  -0.46166
 Alpha  occ. eigenvalues --   -0.44920  -0.43914  -0.43272  -0.42066  -0.41327
 Alpha  occ. eigenvalues --   -0.39832  -0.39062  -0.38913  -0.38596  -0.37382
 Alpha  occ. eigenvalues --   -0.36296  -0.34228  -0.34035  -0.33126  -0.29098
 Alpha  occ. eigenvalues --   -0.27559  -0.25779  -0.25348
 Alpha virt. eigenvalues --   -0.02744  -0.01712   0.00721   0.07785   0.09110
 Alpha virt. eigenvalues --    0.12152   0.13688   0.14195   0.14392   0.14654
 Alpha virt. eigenvalues --    0.14877   0.15343   0.16039   0.17652   0.17968

 Mulliken atomic charges:
              1
     1  O   -0.454511
     2  C    0.630264
     3  C   -0.010721
     4  C   -0.451928
     5  C   -0.453118
     6  C   -0.434329
     7  O   -0.529091
     8  C    0.350143
     9  C   -0.199222
    10  C   -0.162850
    11  C    0.048724
    12  N   -0.365659
    13  C    0.019545
    14  H    0.165536
    15  H    0.153528
    16  H    0.149232
    17  H    0.167242
    18  H    0.150586
    19  H    0.150250
    20  H    0.157691
    21  H    0.156152
    22  H    0.138495
    23  H    0.131961
    24  H    0.151316
    25  H    0.164528
    26  H    0.176238
 Sum of Mulliken atomic charges =   0.00000

 Dipole moment (field-independent basis, Debye):
    X=              0.3666    Y=              0.8740    Z=              1.1384  Tot=              1.4813
 Quadrupole moment (field-independent basis, Debye-Ang):
   XX=            -64.1141   YY=            -75.4023   ZZ=            -80.4359
   XY=              0.7592   XZ=              1.9363   YZ=             -4.4731

 Summary of Natural Population Analysis:

                                       Natural Population
                Natural  -----------------------------------------------
    Atom  No    Charge         Core      Valence    Rydberg      Total
 -----------------------------------------------------------------------
      O    1   -0.56798      1.99977     6.54814    0.02007     8.56798
      C    2    0.84263      1.99927     3.10917    0.04892     5.15737
      C    3   -0.15258      1.99905     4.14128    0.01226     6.15258
      C    4   -0.66987      1.99938     4.66068    0.00981     6.66987
      C    5   -0.66987      1.99938     4.66077    0.00972     6.66987
      C    6   -0.67002      1.99940     4.65952    0.01111     6.67002
      O    7   -0.53080      1.99970     6.52003    0.01107     8.53080
      C    8    0.27914      1.99865     3.69957    0.02265     5.72086
      C    9   -0.37686      1.99899     4.35785    0.02002     6.37686
      C   10   -0.28502      1.99905     4.27060    0.01538     6.28502
      C   11   -0.06283      1.99913     4.04302    0.02067     6.06283
      N   12   -0.17867      1.99897     5.16432    0.01539     7.17867
      C   13   -0.12415      1.99902     4.10379    0.02134     6.12415
      H   14    0.24481      0.00000     0.75413    0.00107     0.75519
      H   15    0.23730      0.00000     0.76181    0.00089     0.76270
      H   16    0.23532      0.00000     0.76366    0.00103     0.76468
      H   17    0.24565      0.00000     0.75331    0.00104     0.75435
      H   18    0.23616      0.00000     0.76281    0.00103     0.76384
      H   19    0.23532      0.00000     0.76376    0.00092     0.76468
      H   20    0.24358      0.00000     0.75540    0.00102     0.75642
      H   21    0.24285      0.00000     0.75610    0.00105     0.75715
      H   22    0.23075      0.00000     0.76835    0.00091     0.76925
      H   23    0.24717      0.00000     0.75200    0.00083     0.75283
      H   24    0.25844      0.00000     0.74109    0.00047     0.74156
      H   25    0.24812      0.00000     0.75126    0.00062     0.75188
      H   26    0.26143      0.00000     0.73778    0.00078     0.73857
 =======================================================================
   * Total *   -0.00000     25.98975    69.76019    0.25005    96.00000

 Normal termination of Gaussian 09 at Wed Sep 29 19:50:42 2021.
