 Gaussian 09, Revision A.02,

 -----------------------------------
 #p opt b3lyp/6-31G* scf=(xqc,tight)
 -----------------------------------

 -------------------------
 [Li]c1cccc2c1cccc2_conf_0
 -------------------------
 Symbolic Z-matrix:
 Charge =  0 Multiplicity = 1

 SCF Done:  E(RB3LYP) =  -392.777683525     A.U. after   15 cycles
 SCF Done:  E(RB3LYP) =  -392.784112058     A.U. after   11 cycles
 SCF Done:  E(RB3LYP) =  -392.784527154     A.U. after   15 cycles
 SCF Done:  E(RB3LYP) =  -392.784549165     A.U. after   14 cycles
 SCF Done:  E(RB3LYP) =  -392.784552805     A.U. after    8 cycles
 SCF Done:  E(RB3LYP) =  -392.784554494     A.U. after    8 cycles
 SCF Done:  E(RB3LYP) =  -392.784557836     A.U. after    8 cycles
 SCF Done:  E(RB3LYP) =  -392.784562854     A.U. after    9 cycles
 SCF Done:  E(RB3LYP) =  -392.784563079     A.U. after   14 cycles
 Optimization completed.
    -- Stationary point found.
 Normal termination of Gaussian 09 at Sat Oct  2 19:54:00 2021.

 ----------------------------------------------------------------------
 #p freq b3lyp/6-31G* volume NMR pop=NPA density=current Geom=AllCheck
 Guess=Read
 ----------------------------------------------------------------------

 [Li]c1cccc2c1cccc2_conf_0
 -------------------------
 Redundant internal coordinates taken from checkpoint file:
 C10H7Li_ce83_conf_0.chk
 Charge =  0 Multiplicity = 1

 SCF Done:  E(RB3LYP) =  -392.784563079     A.U. after    1 cycles

  1  Li   Isotropic =    90.2395   Anisotropy =    15.5142

  2  C    Isotropic =    21.5922   Anisotropy =   221.5820

  3  C    Isotropic =    55.5389   Anisotropy =   150.5222

  4  C    Isotropic =    71.4010   Anisotropy =   154.2807

  5  C    Isotropic =    70.5592   Anisotropy =   139.5140

  6  C    Isotropic =    63.1748   Anisotropy =   197.8376

  7  C    Isotropic =    51.6007   Anisotropy =   208.3289

  8  C    Isotropic =    59.0489   Anisotropy =   122.4345

  9  C    Isotropic =    73.3087   Anisotropy =   152.9029

 10  C    Isotropic =    72.9380   Anisotropy =   155.7487

 11  C    Isotropic =    67.5841   Anisotropy =   141.0704

 12  H    Isotropic =    24.3220   Anisotropy =     6.5694

 13  H    Isotropic =    25.2734   Anisotropy =     6.2288

 14  H    Isotropic =    24.9572   Anisotropy =     7.2890

 15  H    Isotropic =    24.7807   Anisotropy =     6.9305

 16  H    Isotropic =    25.1544   Anisotropy =     5.2449

 17  H    Isotropic =    25.1019   Anisotropy =     5.2848

 18  H    Isotropic =    24.8169   Anisotropy =     6.9544

  Exact polarizability: 165.562  -4.048 146.702   0.027  -0.071  49.838
 Approx polarizability: 282.052   4.466 237.887   0.000  -0.001  72.078

                     1                      2                      3
                     A                      A                      A
 Frequencies --    89.6293                95.6834               173.9935
 Red. masses --     5.3193                 6.7586                 4.1509
 Frc consts  --     0.0252                 0.0365                 0.0740
 IR Inten    --    60.9934                68.5065                 2.5703

                     4                      5                      6
                     A                      A                      A
 Frequencies --   192.5990               381.5061               408.6568
 Red. masses --     3.9505                 4.2167                 3.6893
 Frc consts  --     0.0863                 0.3616                 0.3630
 IR Inten    --    20.0460                 3.5965                10.1873

                     7                      8                      9
                     A                      A                      A
 Frequencies --   468.8502               480.4977               508.1891
 Red. masses --     6.9410                 3.3864                 3.0218
 Frc consts  --     0.8990                 0.4607                 0.4598
 IR Inten    --    40.0187                 0.2003                 0.0139

                    10                     11                     12
                     A                      A                      A
 Frequencies --   517.9855               547.6287               637.2152
 Red. masses --     7.1278                 6.9853                 3.9054
 Frc consts  --     1.1268                 1.2343                 0.9343
 IR Inten    --     2.8312                14.3523                 1.0547

                    13                     14                     15
                     A                      A                      A
 Frequencies --   668.0989               745.3589               790.8174
 Red. masses --     6.5321                 1.1902                 2.8584
 Frc consts  --     1.7178                 0.3896                 1.0532
 IR Inten    --     6.1132                 9.3039                 1.7502

                    16                     17                     18
                     A                      A                      A
 Frequencies --   800.0581               805.6644               810.3508
 Red. masses --     5.2404                 1.3353                 5.4296
 Frc consts  --     1.9763                 0.5107                 2.1007
 IR Inten    --     4.0047                59.6256                 1.4856

                    19                     20                     21
                     A                      A                      A
 Frequencies --   865.5144               912.5450               936.3535
 Red. masses --     1.6062                 1.4702                 1.3432
 Frc consts  --     0.7089                 0.7213                 0.6939
 IR Inten    --     0.9686                 0.0693                 0.9329

                    22                     23                     24
                     A                      A                      A
 Frequencies --   961.3955               969.2599               977.7438
 Red. masses --     6.1241                 1.2683                 1.2849
 Frc consts  --     3.3350                 0.7020                 0.7237
 IR Inten    --     0.5028                 0.0143                 0.8509

                    25                     26                     27
                     A                      A                      A
 Frequencies --  1046.0350              1063.6442              1154.6122
 Red. masses --     2.8364                 2.3005                 1.7922
 Frc consts  --     1.8286                 1.5334                 1.4077
 IR Inten    --     4.4198                 1.4027                 2.4747

                    28                     29                     30
                     A                      A                      A
 Frequencies --  1176.2162              1181.3056              1232.0078
 Red. masses --     1.2761                 1.1596                 1.9349
 Frc consts  --     1.0402                 0.9534                 1.7303
 IR Inten    --     0.1872                 0.5106                 1.6959

                    31                     32                     33
                     A                      A                      A
 Frequencies --  1242.8325              1274.1189              1343.6181
 Red. masses --     1.9489                 1.6416                 2.9789
 Frc consts  --     1.7737                 1.5701                 3.1686
 IR Inten    --     1.7381                11.9562                12.0902

                    34                     35                     36
                     A                      A                      A
 Frequencies --  1389.2813              1415.7052              1468.4866
 Red. masses --     6.4792                 1.9120                 2.0918
 Frc consts  --     7.3680                 2.2578                 2.6577
 IR Inten    --     3.5884                 0.3145                 2.9956

                    37                     38                     39
                     A                      A                      A
 Frequencies --  1493.8368              1547.8517              1593.0202
 Red. masses --     2.1791                 3.0807                 5.8585
 Frc consts  --     2.8651                 4.3487                 8.7595
 IR Inten    --     0.9443                 6.0920                 1.5386

                    40                     41                     42
                     A                      A                      A
 Frequencies --  1639.8369              1668.1275              3095.8025
 Red. masses --     5.0481                 5.6612                 1.0865
 Frc consts  --     7.9979                 9.2816                 6.1354
 IR Inten    --     0.1158                 0.2809                48.3268

                    43                     44                     45
                     A                      A                      A
 Frequencies --  3113.9455              3157.2799              3164.2186
 Red. masses --     1.0870                 1.0863                 1.0866
 Frc consts  --     6.2100                 6.3801                 6.4097
 IR Inten    --    55.1980                18.7594                 4.5752

                    46                     47                     48
                     A                      A                      A
 Frequencies --  3178.3060              3179.7329              3197.1123
 Red. masses --     1.0942                 1.0920                 1.0964
 Frc consts  --     6.5126                 6.5054                 6.6031
 IR Inten    --    18.6538                85.7395                44.5698

 - Thermochemistry -
 -------------------
 Temperature   298.150 Kelvin.  Pressure   1.00000 Atm.
 Atom     1 has atomic number  3 and mass   7.01600

 Molecular mass:   134.07078 amu.
 Principal axes and moments of inertia in atomic units:
                           1         2         3
     Eigenvalues --   831.037021520.481832351.51885
           X            0.99848   0.05505   0.00000
           Y           -0.05505   0.99848  -0.00000
           Z           -0.00000   0.00000   1.00000
 This molecule is an asymmetric top.
 Rotational symmetry number  1.
 Warning -- assumption of classical behavior for rotation
           may cause significant error
 Rotational temperatures (Kelvin)      0.10422     0.05696     0.03683
 Rotational constants (GHZ):           2.17167     1.18695     0.76748
 Zero-point vibrational energy     357459.3 (Joules/Mol)
                                   85.43482 (Kcal/Mol)
 Warning -- explicit consideration of  11 degrees of freedom as
           vibrations may cause significant error
 Vibrational temperatures:    128.96   137.67   250.34   277.11   548.90
          (Kelvin)            587.97   674.57   691.33   731.17   745.26
                              787.91   916.81   961.24  1072.40  1137.81
                             1151.10  1159.17  1165.91  1245.28  1312.95
                             1347.20  1383.23  1394.55  1406.75  1505.01
                             1530.34  1661.23  1692.31  1699.63  1772.58
                             1788.16  1833.17  1933.16  1998.86  2036.88
                             2112.82  2149.30  2227.01  2292.00  2359.36
                             2400.06  4454.16  4480.27  4542.62  4552.60
                             4572.87  4574.92  4599.93

 Zero-point correction=                           0.136149 (Hartree/Particle)
 Thermal correction to Energy=                    0.144554
 Thermal correction to Enthalpy=                  0.145498
 Thermal correction to Gibbs Free Energy=         0.102670
 Sum of electronic and zero-point Energies=           -392.648414
 Sum of electronic and thermal Energies=              -392.640009
 Sum of electronic and thermal Enthalpies=            -392.639065
 Sum of electronic and thermal Free Energies=         -392.681893

                     E (Thermal)             CV                S
                      KCal/Mol        Cal/Mol-Kelvin    Cal/Mol-Kelvin
 Total                   90.709             33.202             90.140
 Electronic               0.000              0.000              0.000
 Translational            0.889              2.981             40.592
 Rotational               0.889              2.981             29.476
 Vibrational             88.932             27.241             20.072
 Vibration     1          0.602              1.957              3.668
 Vibration     2          0.603              1.952              3.540
 Vibration     3          0.627              1.874              2.392
 Vibration     4          0.635              1.850              2.203
 Vibration     5          0.751              1.510              1.033
 Vibration     6          0.773              1.451              0.931
 Vibration     7          0.826              1.319              0.741
 Vibration     8          0.837              1.293              0.709
 Vibration     9          0.863              1.232              0.638
 Vibration    10          0.873              1.210              0.615
 Vibration    11          0.903              1.145              0.549

 Optimization completed.
    -- Stationary point found.
 Normal termination of Gaussian 09 at Sat Oct  2 20:58:21 2021.
 Gaussian 09:  AM64L-G09RevA.02 11-Jun-2009

 ----------------------------------------------------------------------
 #p TD(NStates=10, Root=1) b3lyp/6-31G* volume pop=NPA density=current
 Geom=AllCheck Guess=Read
 ----------------------------------------------------------------------

 [Li]c1cccc2c1cccc2_conf_0
 -------------------------
 Redundant internal coordinates taken from checkpoint file:
 C10H7Li_ce83_conf_0.chk
 Charge =  0 Multiplicity = 1

                         Standard orientation:
 ---------------------------------------------------------------------
 Center     Atomic      Atomic             Coordinates (Angstroms)
 Number     Number       Type             X           Y           Z
 ---------------------------------------------------------------------
      1          3           0       -1.667821    3.175404    0.000060
      2          6           0       -1.348328    1.223364   -0.000016
      3          6           0       -2.426636    0.341319   -0.000009
      4          6           0       -2.284204   -1.071469   -0.000003
      5          6           0       -1.032619   -1.640878    0.000002
      6          6           0        0.125329   -0.817920    0.000002
      7          6           0       -0.043132    0.611446   -0.000006
      8          6           0        1.143336    1.398843   -0.000011
      9          6           0        2.402972    0.841007   -0.000006
     10          6           0        2.550348   -0.566916    0.000006
     11          6           0        1.434182   -1.372886    0.000009
     12          1           0       -3.449319    0.727603   -0.000006
     13          1           0       -3.169794   -1.705136    0.000006
     14          1           0       -0.910277   -2.722508    0.000014
     15          1           0        1.035151    2.485465   -0.000025
     16          1           0        3.285472    1.476422   -0.000011
     17          1           0        3.544519   -1.007083    0.000011
     18          1           0        1.540225   -2.456432    0.000016
 ---------------------------------------------------------------------

 SCF Done:  E(RB3LYP) =  -392.784563079     A.U. after    2 cycles

 Excitation energies and oscillator strengths:

 Excited State   1:      Singlet-A      2.7836 eV  445.41 nm  f=0.0041  <S**2>=0.000
      35 -> 36         0.70472
 This state for optimization and/or second-order correction.
 Total Energy, E(TD-HF/TD-KS) =  -392.682267188
 Copying the excited state density for this state as the 1-particle RhoCI density.

 Excited State   2:      Singlet-A      3.1456 eV  394.16 nm  f=0.1033  <S**2>=0.000
      34 -> 36         0.70266

 Excited State   3:      Singlet-A      3.6951 eV  335.54 nm  f=0.0000  <S**2>=0.000
      33 -> 36         0.70597

 Excited State   4:      Singlet-A      4.1379 eV  299.63 nm  f=0.0971  <S**2>=0.000
      35 -> 37         0.64256
      35 -> 39         0.27364

 Excited State   5:      Singlet-A      4.1455 eV  299.08 nm  f=0.0268  <S**2>=0.000
      34 -> 37         0.69405
      34 -> 39        -0.10252

 Excited State   6:      Singlet-A      4.2336 eV  292.86 nm  f=0.0026  <S**2>=0.000
      35 -> 38         0.69843

 Excited State   7:      Singlet-A      4.4051 eV  281.45 nm  f=0.0039  <S**2>=0.000
      33 -> 37        -0.11802
      34 -> 38         0.48033
      35 -> 37         0.17247
      35 -> 39        -0.41787
      35 -> 40        -0.19526

 Excited State   8:      Singlet-A      4.4690 eV  277.43 nm  f=0.0025  <S**2>=0.000
      33 -> 37         0.40210
      33 -> 39        -0.14827
      35 -> 39        -0.34704
      35 -> 40         0.41619

 Excited State   9:      Singlet-A      4.4805 eV  276.72 nm  f=0.0213  <S**2>=0.000
      33 -> 37         0.26465
      34 -> 38         0.50055
      35 -> 37        -0.16954
      35 -> 39         0.33598
      35 -> 40         0.15856

 Excited State  10:      Singlet-A      4.4876 eV  276.28 nm  f=0.0499  <S**2>=0.000
      34 -> 37         0.10380
      34 -> 39         0.69210

 The electronic state is 1-A.
 Alpha  occ. eigenvalues --  -10.16525 -10.16481 -10.16426 -10.16407 -10.16293
 Alpha  occ. eigenvalues --  -10.16048 -10.15731 -10.15661 -10.15099 -10.11951
 Alpha  occ. eigenvalues --   -2.00610  -0.83369  -0.78226  -0.73204  -0.70370
 Alpha  occ. eigenvalues --   -0.67576  -0.58833  -0.57405  -0.54899  -0.47618
 Alpha  occ. eigenvalues --   -0.47032  -0.45711  -0.40815  -0.40280  -0.37648
 Alpha  occ. eigenvalues --   -0.36965  -0.35288  -0.35214  -0.31841  -0.29787
 Alpha  occ. eigenvalues --   -0.29233  -0.24828  -0.20944  -0.19617  -0.17925
 Alpha virt. eigenvalues --   -0.05204  -0.00915   0.00267   0.00551   0.02417
 Alpha virt. eigenvalues --    0.06137   0.07053   0.10873   0.11388   0.12210
 Alpha virt. eigenvalues --    0.12556   0.14510   0.14622   0.16997   0.19223

 Mulliken atomic charges:
              1
     1  Li  -0.347081
     2  C   -0.032840
     3  C   -0.174198
     4  C   -0.097403
     5  C   -0.166541
     6  C    0.149214
     7  C    0.025432
     8  C   -0.155645
     9  C   -0.117948
    10  C   -0.123652
    11  C   -0.164364
    12  H    0.172502
    13  H    0.157762
    14  H    0.166714
    15  H    0.214321
    16  H    0.170372
    17  H    0.163659
    18  H    0.159695
 Sum of Mulliken atomic charges =  -0.00000

 Dipole moment (field-independent basis, Debye):
    X=              4.6811    Y=            -10.5272    Z=             -0.0003  Tot=             11.5211
 Quadrupole moment (field-independent basis, Debye-Ang):
   XX=            -56.6452   YY=            -98.7463   ZZ=            -68.5850
   XY=             20.9120   XZ=              0.0006   YZ=             -0.0018

 Summary of Natural Population Analysis:

                                       Natural Population
                Natural  -----------------------------------------------
    Atom  No    Charge         Core      Valence    Rydberg      Total
 -----------------------------------------------------------------------
     Li    1   -0.09779      1.99866     1.09673    0.00240     3.09779
      C    2   -0.27737      1.99930     4.25663    0.02144     6.27737
      C    3   -0.19830      1.99914     4.18320    0.01597     6.19830
      C    4   -0.21935      1.99910     4.20617    0.01408     6.21935
      C    5   -0.10022      1.99904     4.08825    0.01293     6.10022
      C    6   -0.08879      1.99901     4.07588    0.01390     6.08879
      C    7   -0.10918      1.99902     4.09475    0.01541     6.10918
      C    8   -0.10252      1.99906     4.08976    0.01370     6.10252
      C    9   -0.20764      1.99910     4.19457    0.01397     6.20764
      C   10   -0.20655      1.99911     4.19354    0.01390     6.20655
      C   11   -0.13849      1.99906     4.12648    0.01295     6.13849
      H   12    0.24088      0.00000     0.75810    0.00102     0.75912
      H   13    0.24809      0.00000     0.75098    0.00093     0.75191
      H   14    0.24228      0.00000     0.75674    0.00098     0.75772
      H   15    0.26075      0.00000     0.73893    0.00033     0.73925
      H   16    0.25457      0.00000     0.74494    0.00050     0.74543
      H   17    0.25169      0.00000     0.74775    0.00056     0.74831
      H   18    0.24319      0.00000     0.75571    0.00110     0.75681
 =======================================================================
   * Total *   -0.00477     21.98960    47.85911    0.15607    70.00477

 Normal termination of Gaussian 09 at Sun Oct  3 00:35:49 2021.
