 Gaussian 09, Revision A.02,

 -----------------------------------
 #p opt b3lyp/6-31G* scf=(xqc,tight)
 -----------------------------------

 ----------------------------
 CC(P(=O)c1ccccc1)(C)C_conf_0
 ----------------------------
 Symbolic Z-matrix:
 Charge =  0 Multiplicity = 1

 SCF Done:  E(RB3LYP) =  -806.565607160     A.U. after   19 cycles
 SCF Done:  E(RB3LYP) =  -806.629917591     A.U. after   17 cycles
 SCF Done:  E(RB3LYP) =  -806.611683994     A.U. after   17 cycles
 SCF Done:  E(RB3LYP) =  -806.678245571     A.U. after   17 cycles
 SCF Done:  E(RB3LYP) =  -806.685740832     A.U. after   13 cycles
 SCF Done:  E(RB3LYP) =  -806.685596053     A.U. after   17 cycles
 SCF Done:  E(RB3LYP) =  -806.687673700     A.U. after   16 cycles
 SCF Done:  E(RB3LYP) =  -806.688277851     A.U. after   15 cycles
 SCF Done:  E(RB3LYP) =  -806.688826391     A.U. after   12 cycles
 SCF Done:  E(RB3LYP) =  -806.689205906     A.U. after   13 cycles
 SCF Done:  E(RB3LYP) =  -806.695138002     A.U. after   13 cycles
 SCF Done:  E(RB3LYP) =  -806.695403593     A.U. after   12 cycles
 SCF Done:  E(RB3LYP) =  -806.695476178     A.U. after   12 cycles
 SCF Done:  E(RB3LYP) =  -806.695488521     A.U. after   10 cycles
 SCF Done:  E(RB3LYP) =  -806.695492731     A.U. after    9 cycles
 SCF Done:  E(RB3LYP) =  -806.695496373     A.U. after    9 cycles
 SCF Done:  E(RB3LYP) =  -806.695497935     A.U. after    9 cycles
 SCF Done:  E(RB3LYP) =  -806.695498319     A.U. after    8 cycles
 Optimization completed.
    -- Stationary point found.
 Normal termination of Gaussian 09 at Tue Oct  5 17:10:07 2021.

 ----------------------------------------------------------------------
 #p freq b3lyp/6-31G* volume NMR pop=NPA density=current Geom=AllCheck
 Guess=Read
 ----------------------------------------------------------------------

 CC(P(=O)c1ccccc1)(C)C_conf_0
 ----------------------------
 Redundant internal coordinates taken from checkpoint file:
 C10H15OP_9a1c_conf_0.chk
 Charge =  0 Multiplicity = 1

 SCF Done:  E(RB3LYP) =  -806.695498319     A.U. after    1 cycles

  1  C    Isotropic =   164.8367   Anisotropy =    34.4711

  2  C    Isotropic =   152.6189   Anisotropy =    15.4316

  3  P    Isotropic =   330.7688   Anisotropy =   219.0577

  4  O    Isotropic =   261.5224   Anisotropy =    76.0550

  5  C    Isotropic =    62.7003   Anisotropy =   162.0849

  6  C    Isotropic =    63.3449   Anisotropy =   186.5250

  7  C    Isotropic =    68.0064   Anisotropy =   168.7506

  8  C    Isotropic =    65.2175   Anisotropy =   171.2473

  9  C    Isotropic =    69.5732   Anisotropy =   165.9103

 10  C    Isotropic =    66.8107   Anisotropy =   168.4483

 11  C    Isotropic =   168.7458   Anisotropy =    29.9802

 12  C    Isotropic =   166.1071   Anisotropy =    31.2165

 13  H    Isotropic =    30.2231   Anisotropy =     8.3021

 14  H    Isotropic =    31.2855   Anisotropy =     8.5992

 15  H    Isotropic =    31.0831   Anisotropy =     9.1603

 16  H    Isotropic =    24.9755   Anisotropy =     7.1500

 17  H    Isotropic =    24.2430   Anisotropy =     9.1260

 18  H    Isotropic =    24.7601   Anisotropy =     4.9231

 19  H    Isotropic =    24.8287   Anisotropy =     4.2568

 20  H    Isotropic =    24.9535   Anisotropy =     4.9399

 21  H    Isotropic =    25.0173   Anisotropy =     8.0670

 22  H    Isotropic =    30.5758   Anisotropy =     8.1718

 23  H    Isotropic =    31.5444   Anisotropy =     7.1244

 24  H    Isotropic =    31.5601   Anisotropy =     8.8422

 25  H    Isotropic =    31.2319   Anisotropy =     8.2954

 26  H    Isotropic =    31.3346   Anisotropy =     8.7788

 27  H    Isotropic =    31.4776   Anisotropy =     7.3850

  Exact polarizability: 157.543  -5.231 113.930 -10.163 -15.457  95.116
 Approx polarizability: 213.969 -14.079 193.906 -20.682 -34.245 150.043

                     1                      2                      3
                     A                      A                      A
 Frequencies --    31.8042                47.1499                78.5762
 Red. masses --     3.1911                 3.6640                 4.1079
 Frc consts  --     0.0019                 0.0048                 0.0149
 IR Inten    --     0.1757                 1.4669                 0.4033

                     4                      5                      6
                     A                      A                      A
 Frequencies --   159.1315               190.0621               211.3775
 Red. masses --     4.9421                 3.3290                 2.9235
 Frc consts  --     0.0737                 0.0709                 0.0770
 IR Inten    --     6.9008                 5.1338                 3.7127

                     7                      8                      9
                     A                      A                      A
 Frequencies --   225.3092               248.7774               270.0175
 Red. masses --     1.0724                 1.9032                 1.2169
 Frc consts  --     0.0321                 0.0694                 0.0523
 IR Inten    --     0.3993                 0.3343                 0.8429

                    10                     11                     12
                     A                      A                      A
 Frequencies --   271.6161               293.4821               338.2420
 Red. masses --     1.5903                 2.3923                 3.5756
 Frc consts  --     0.0691                 0.1214                 0.2410
 IR Inten    --     0.9259                 3.9023                 0.5646

                    13                     14                     15
                     A                      A                      A
 Frequencies --   362.6577               388.4578               409.9624
 Red. masses --     2.4302                 2.7124                 2.9377
 Frc consts  --     0.1883                 0.2411                 0.2909
 IR Inten    --     2.5273                 4.0311                 0.2315

                    16                     17                     18
                     A                      A                      A
 Frequencies --   457.4216               476.5389               515.9813
 Red. masses --     3.9534                 4.3101                 5.0530
 Frc consts  --     0.4874                 0.5767                 0.7926
 IR Inten    --    17.8893                20.7770                27.8998

                    19                     20                     21
                     A                      A                      A
 Frequencies --   603.3937               631.8017               709.6782
 Red. masses --     3.3974                 6.4283                 2.3547
 Frc consts  --     0.7288                 1.5119                 0.6987
 IR Inten    --    27.1066                 0.2012                20.7657

                    22                     23                     24
                     A                      A                      A
 Frequencies --   716.9767               759.2117               818.6802
 Red. masses --     5.7581                 1.4902                 2.7477
 Frc consts  --     1.7440                 0.5061                 1.0850
 IR Inten    --    10.0114                32.6522                19.7297

                    25                     26                     27
                     A                      A                      A
 Frequencies --   869.7825               933.9328               944.3491
 Red. masses --     1.2456                 1.3102                 1.4260
 Frc consts  --     0.5552                 0.6733                 0.7492
 IR Inten    --     0.1220                60.2841                43.9146

                    28                     29                     30
                     A                      A                      A
 Frequencies --   956.6667               961.2272               980.7084
 Red. masses --     1.6663                 1.4641                 1.3238
 Frc consts  --     0.8985                 0.7970                 0.7502
 IR Inten    --    18.0424                25.3017                 1.1998

                    31                     32                     33
                     A                      A                      A
 Frequencies --   981.5341               999.3625              1006.7659
 Red. masses --     1.2291                 1.2265                 1.2727
 Frc consts  --     0.6977                 0.7217                 0.7600
 IR Inten    --     0.0716                24.9365                 0.6817

                    34                     35                     36
                     A                      A                      A
 Frequencies --  1017.2680              1043.6835              1054.3565
 Red. masses --     4.4267                 1.4034                 2.6615
 Frc consts  --     2.6990                 0.9007                 1.7432
 IR Inten    --     0.2396                10.6875                 0.0766

                    37                     38                     39
                     A                      A                      A
 Frequencies --  1059.9983              1109.7133              1129.2161
 Red. masses --     1.3528                 1.6624                 2.9775
 Frc consts  --     0.8956                 1.2062                 2.2369
 IR Inten    --    17.5575                 9.5214                32.8680

                    40                     41                     42
                     A                      A                      A
 Frequencies --  1195.7675              1211.9013              1216.9495
 Red. masses --     1.1073                 6.0430                 1.1520
 Frc consts  --     0.9329                 5.2293                 1.0052
 IR Inten    --     0.0309               130.6646                 2.4170

                    43                     44                     45
                     A                      A                      A
 Frequencies --  1240.1047              1246.6728              1253.7656
 Red. masses --     2.5144                 2.4637                 2.6553
 Frc consts  --     2.2782                 2.2560                 2.4593
 IR Inten    --     1.6637                13.9543                16.3112

                    46                     47                     48
                     A                      A                      A
 Frequencies --  1337.6474              1367.2232              1425.2061
 Red. masses --     2.8813                 1.8164                 1.2118
 Frc consts  --     3.0376                 2.0005                 1.4502
 IR Inten    --     3.3178                 2.6549                 4.5837

                    49                     50                     51
                     A                      A                      A
 Frequencies --  1427.2074              1458.2544              1484.0852
 Red. masses --     1.2153                 1.2105                 2.1187
 Frc consts  --     1.4585                 1.5167                 2.7494
 IR Inten    --     4.2436                 5.5015                14.4817

                    52                     53                     54
                     A                      A                      A
 Frequencies --  1509.3989              1518.6997              1520.4970
 Red. masses --     1.0464                 1.0474                 1.0471
 Frc consts  --     1.4046                 1.4234                 1.4263
 IR Inten    --     0.4299                 1.8122                 1.0017

                    55                     56                     57
                     A                      A                      A
 Frequencies --  1532.1856              1533.5254              1535.1421
 Red. masses --     1.0620                 1.2996                 1.4512
 Frc consts  --     1.4690                 1.8008                 2.0149
 IR Inten    --     6.6499                 5.6897                 1.6570

                    58                     59                     60
                     A                      A                      A
 Frequencies --  1548.7587              1634.7638              1651.5675
 Red. masses --     1.0549                 5.1588                 5.2645
 Frc consts  --     1.4908                 8.1229                 8.4606
 IR Inten    --    19.8669                 0.2715                 2.0788

                    61                     62                     63
                     A                      A                      A
 Frequencies --  2372.5794              3037.5211              3040.3694
 Red. masses --     1.0396                 1.0364                 1.0362
 Frc consts  --     3.4480                 5.6338                 5.6435
 IR Inten    --   140.2793                15.5316                31.6936

                    64                     65                     66
                     A                      A                      A
 Frequencies --  3046.3971              3096.3333              3100.7213
 Red. masses --     1.0371                 1.1022                 1.1017
 Frc consts  --     5.6710                 6.2261                 6.2406
 IR Inten    --    26.1748                 3.6723                40.1652

                    67                     68                     69
                     A                      A                      A
 Frequencies --  3107.3126              3122.8214              3129.4813
 Red. masses --     1.1009                 1.1010                 1.1024
 Frc consts  --     6.2627                 6.3259                 6.3610
 IR Inten    --    33.5923                26.4618                11.4893

                    70                     71                     72
                     A                      A                      A
 Frequencies --  3136.6119              3179.7101              3188.5858
 Red. masses --     1.1004                 1.0862                 1.0875
 Frc consts  --     6.3788                 6.4705                 6.5142
 IR Inten    --    14.1140                 3.0367                 1.7081

                    73                     74                     75
                     A                      A                      A
 Frequencies --  3198.7245              3208.3452              3215.1495
 Red. masses --     1.0911                 1.0943                 1.0965
 Frc consts  --     6.5773                 6.6369                 6.6783
 IR Inten    --    18.9275                18.9717                14.6207

 - Thermochemistry -
 -------------------
 Temperature   298.150 Kelvin.  Pressure   1.00000 Atm.
 Atom     1 has atomic number  6 and mass  12.00000

 Molecular mass:   182.08605 amu.
 Principal axes and moments of inertia in atomic units:
                           1         2         3
     Eigenvalues --  1175.496923406.691083732.22469
           X            0.99988   0.01474   0.00459
           Y           -0.01432   0.99661  -0.08107
           Z           -0.00577   0.08100   0.99670
 This molecule is an asymmetric top.
 Rotational symmetry number  1.
 Warning -- assumption of classical behavior for rotation
           may cause significant error
 Rotational temperatures (Kelvin)      0.07368     0.02542     0.02321
 Rotational constants (GHZ):           1.53530     0.52976     0.48356
 Zero-point vibrational energy     599896.5 (Joules/Mol)
                                  143.37870 (Kcal/Mol)
 Warning -- explicit consideration of  19 degrees of freedom as
           vibrations may cause significant error
 Vibrational temperatures:     45.76    67.84   113.05   228.95   273.46
          (Kelvin)            304.12   324.17   357.93   388.49   390.79
                              422.25   486.65   521.78   558.90   589.84
                              658.13   685.63   742.38   868.15   909.02
                             1021.07  1031.57  1092.33  1177.90  1251.42
                             1343.72  1358.71  1376.43  1382.99  1411.02
                             1412.21  1437.86  1448.51  1463.62  1501.63
                             1516.98  1525.10  1596.63  1624.69  1720.44
                             1743.65  1750.92  1784.23  1793.68  1803.89
                             1924.57  1967.13  2050.55  2053.43  2098.10
                             2135.26  2171.69  2185.07  2187.65  2204.47
                             2206.40  2208.72  2228.32  2352.06  2376.23
                             3413.61  4370.31  4374.41  4383.08  4454.93
                             4461.24  4470.72  4493.04  4502.62  4512.88
                             4574.89  4587.66  4602.25  4616.09  4625.88

 Zero-point correction=                           0.228489 (Hartree/Particle)
 Thermal correction to Energy=                    0.241381
 Thermal correction to Enthalpy=                  0.242325
 Thermal correction to Gibbs Free Energy=         0.188944
 Sum of electronic and zero-point Energies=           -806.467010
 Sum of electronic and thermal Energies=              -806.454118
 Sum of electronic and thermal Enthalpies=            -806.453174
 Sum of electronic and thermal Free Energies=         -806.506554

                     E (Thermal)             CV                S
                      KCal/Mol        Cal/Mol-Kelvin    Cal/Mol-Kelvin
 Total                  151.469             49.050            112.349
 Electronic               0.000              0.000              0.000
 Translational            0.889              2.981             41.504
 Rotational               0.889              2.981             31.081
 Vibrational            149.691             43.088             39.763
 Vibration     1          0.594              1.983              5.714
 Vibration     2          0.595              1.979              4.933
 Vibration     3          0.600              1.964              3.926
 Vibration     4          0.621              1.892              2.560
 Vibration     5          0.633              1.854              2.227
 Vibration     6          0.643              1.824              2.032
 Vibration     7          0.650              1.802              1.916
 Vibration     8          0.662              1.765              1.739
 Vibration     9          0.674              1.728              1.596
 Vibration    10          0.675              1.726              1.586
 Vibration    11          0.688              1.686              1.454
 Vibration    12          0.719              1.599              1.220
 Vibration    13          0.737              1.549              1.111
 Vibration    14          0.757              1.495              1.006
 Vibration    15          0.774              1.449              0.927
 Vibration    16          0.816              1.344              0.774
 Vibration    17          0.833              1.302              0.719
 Vibration    18          0.871              1.215              0.619
 Vibration    19          0.962              1.025              0.444

 Optimization completed.
    -- Stationary point found.
 Normal termination of Gaussian 09 at Tue Oct  5 17:18:06 2021.
 Gaussian 09:  AM64L-G09RevA.02 11-Jun-2009

 ----------------------------------------------------------------------
 #p TD(NStates=10, Root=1) b3lyp/6-31G* volume pop=NPA density=current
 Geom=AllCheck Guess=Read
 ----------------------------------------------------------------------

 CC(P(=O)c1ccccc1)(C)C_conf_0
 ----------------------------
 Redundant internal coordinates taken from checkpoint file:
 C10H15OP_9a1c_conf_0.chk
 Charge =  0 Multiplicity = 1

                         Standard orientation:
 ---------------------------------------------------------------------
 Center     Atomic      Atomic             Coordinates (Angstroms)
 Number     Number       Type             X           Y           Z
 ---------------------------------------------------------------------
      1          6           0        3.369207    0.177165   -0.176964
      2          6           0        1.935449    0.443810    0.326712
      3         15           0        0.808058   -0.564809   -0.764619
      4          8           0        1.119915   -2.034106   -0.764754
      5          6           0       -0.926427   -0.186018   -0.340359
      6          6           0       -1.623719   -1.089785    0.474006
      7          6           0       -2.952508   -0.841709    0.819024
      8          6           0       -3.595732    0.304530    0.346986
      9          6           0       -2.912345    1.200525   -0.478178
     10          6           0       -1.583079    0.954687   -0.823593
     11          6           0        1.785235   -0.052389    1.776925
     12          6           0        1.607213    1.942971    0.226410
     13          1           0        3.605526   -0.890717   -0.151842
     14          1           0        4.089733    0.708287    0.457850
     15          1           0        3.508084    0.532511   -1.205703
     16          1           0        0.951709    0.107374   -2.013573
     17          1           0       -1.123955   -1.993312    0.811291
     18          1           0       -3.488689   -1.546655    1.448596
     19          1           0       -4.632246    0.494580    0.612687
     20          1           0       -3.416399    2.084671   -0.859082
     21          1           0       -1.062995    1.648323   -1.480224
     22          1           0        2.000400   -1.123303    1.850611
     23          1           0        0.773601    0.122128    2.160644
     24          1           0        2.487780    0.482996    2.428041
     25          1           0        1.670589    2.307228   -0.806754
     26          1           0        2.329843    2.517916    0.819204
     27          1           0        0.607078    2.170237    0.609762
 ---------------------------------------------------------------------

 SCF Done:  E(RB3LYP) =  -806.695498319     A.U. after    1 cycles

 Excitation energies and oscillator strengths:

 Excited State   1:      Singlet-A      5.2294 eV  237.09 nm  f=0.0023  <S**2>=0.000
      46 -> 50        -0.10969
      48 -> 50        -0.12348
      48 -> 51        -0.12618
      49 -> 50         0.66238
 This state for optimization and/or second-order correction.
 Total Energy, E(TD-HF/TD-KS) =  -806.503322349
 Copying the excited state density for this state as the 1-particle RhoCI density.

 Excited State   2:      Singlet-A      5.3547 eV  231.54 nm  f=0.0041  <S**2>=0.000
      46 -> 51        -0.22848
      47 -> 50         0.53918
      48 -> 51         0.35672
      49 -> 50         0.14104

 Excited State   3:      Singlet-A      5.4712 eV  226.61 nm  f=0.0241  <S**2>=0.000
      46 -> 50         0.35112
      48 -> 50         0.58426
      49 -> 50         0.16941

 Excited State   4:      Singlet-A      5.7275 eV  216.47 nm  f=0.0007  <S**2>=0.000
      46 -> 51        -0.10882
      49 -> 51         0.68258

 Excited State   5:      Singlet-A      6.0031 eV  206.53 nm  f=0.0053  <S**2>=0.000
      46 -> 50        -0.12064
      46 -> 51         0.46326
      47 -> 50        -0.12699
      47 -> 51        -0.12188
      48 -> 51         0.46670
      49 -> 51         0.11662

 Excited State   6:      Singlet-A      6.0294 eV  205.63 nm  f=0.0817  <S**2>=0.000
      46 -> 50         0.50840
      47 -> 51         0.33903
      48 -> 50        -0.28558
      48 -> 51         0.16120

 Excited State   7:      Singlet-A      6.9706 eV  177.87 nm  f=0.7615  <S**2>=0.000
      44 -> 50        -0.15254
      46 -> 50        -0.23762
      46 -> 51         0.16381
      47 -> 50         0.12762
      47 -> 51         0.54792
      48 -> 50         0.20759

 Excited State   8:      Singlet-A      6.9865 eV  177.46 nm  f=0.3085  <S**2>=0.000
      46 -> 50         0.11006
      46 -> 51         0.40222
      47 -> 50         0.39454
      47 -> 51        -0.18005
      48 -> 51        -0.31166
      49 -> 52        -0.11356

 Excited State   9:      Singlet-A      7.2891 eV  170.10 nm  f=0.0251  <S**2>=0.000
      49 -> 52         0.67051

 Excited State  10:      Singlet-A      7.3721 eV  168.18 nm  f=0.0053  <S**2>=0.000
      42 -> 50         0.28563
      45 -> 50         0.59841
      48 -> 52        -0.11669

 The electronic state is 1-A.
 Alpha  occ. eigenvalues --  -77.14750 -19.08655 -10.21059 -10.20806 -10.20418
 Alpha  occ. eigenvalues --  -10.20309 -10.20303 -10.20237 -10.20108 -10.18872
 Alpha  occ. eigenvalues --  -10.18211 -10.18176  -6.60793  -4.77064  -4.76988
 Alpha  occ. eigenvalues --   -4.76926  -0.94521  -0.86351  -0.81800  -0.76042
 Alpha  occ. eigenvalues --   -0.75610  -0.69544  -0.69115  -0.64322  -0.61535
 Alpha  occ. eigenvalues --   -0.59170  -0.54249  -0.51284  -0.47064  -0.46523
 Alpha  occ. eigenvalues --   -0.45595  -0.44557  -0.44194  -0.43199  -0.41790
 Alpha  occ. eigenvalues --   -0.39971  -0.39098  -0.37900  -0.37316  -0.37135
 Alpha  occ. eigenvalues --   -0.35540  -0.35020  -0.34012  -0.33557  -0.33399
 Alpha  occ. eigenvalues --   -0.26811  -0.26242  -0.25703  -0.25141
 Alpha virt. eigenvalues --   -0.02816  -0.01312   0.06343   0.07449   0.08301
 Alpha virt. eigenvalues --    0.10283   0.10644   0.11860   0.13034   0.14048
 Alpha virt. eigenvalues --    0.14441   0.15568   0.16243   0.16315   0.17000

 Mulliken atomic charges:
              1
     1  C   -0.462702
     2  C   -0.113153
     3  P    0.802948
     4  O   -0.384110
     5  C   -0.159785
     6  C   -0.185283
     7  C   -0.126660
     8  C   -0.190228
     9  C   -0.117672
    10  C   -0.191894
    11  C   -0.468750
    12  C   -0.461862
    13  H    0.174906
    14  H    0.163085
    15  H    0.160202
    16  H   -0.025651
    17  H    0.118704
    18  H    0.107088
    19  H    0.095220
    20  H    0.109133
    21  H    0.093148
    22  H    0.171704
    23  H    0.195543
    24  H    0.164032
    25  H    0.158660
    26  H    0.170246
    27  H    0.203132
 Sum of Mulliken atomic charges =  -0.00000

 Dipole moment (field-independent basis, Debye):
    X=              5.8532    Y=              1.8715    Z=              0.3566  Tot=              6.1554
 Quadrupole moment (field-independent basis, Debye-Ang):
   XX=            -81.2732   YY=            -81.6918   ZZ=            -79.1087
   XY=              2.9412   XZ=              0.2444   YZ=             -2.6653

 Summary of Natural Population Analysis:

                                       Natural Population
                Natural  -----------------------------------------------
    Atom  No    Charge         Core      Valence    Rydberg      Total
 -----------------------------------------------------------------------
      C    1   -0.68902      1.99937     4.67828    0.01138     6.68902
      C    2   -0.34139      1.99915     4.32408    0.01816     6.34139
      P    3    1.71864      9.99795     3.18526    0.09815    13.28136
      O    4   -0.69179      1.99992     6.68295    0.00892     8.69179
      C    5   -0.58347      1.99884     4.56299    0.02164     6.58347
      C    6   -0.25234      1.99903     4.23580    0.01751     6.25234
      C    7   -0.23888      1.99910     4.22409    0.01569     6.23888
      C    8   -0.34579      1.99911     4.32881    0.01787     6.34579
      C    9   -0.22127      1.99909     4.20679    0.01539     6.22127
      C   10   -0.28402      1.99901     4.26688    0.01813     6.28402
      C   11   -0.69057      1.99936     4.67910    0.01211     6.69057
      C   12   -0.68909      1.99935     4.67769    0.01205     6.68909
      H   13    0.24710      0.00000     0.75174    0.00116     0.75290
      H   14    0.24692      0.00000     0.75140    0.00167     0.75308
      H   15    0.23966      0.00000     0.75930    0.00105     0.76034
      H   16   -0.06054      0.00000     1.05808    0.00246     1.06054
      H   17    0.22588      0.00000     0.77327    0.00086     0.77412
      H   18    0.22581      0.00000     0.77335    0.00084     0.77419
      H   19    0.21993      0.00000     0.77935    0.00072     0.78007
      H   20    0.22711      0.00000     0.77206    0.00083     0.77289
      H   21    0.21524      0.00000     0.78354    0.00122     0.78476
      H   22    0.24626      0.00000     0.75251    0.00122     0.75374
      H   23    0.26261      0.00000     0.73639    0.00100     0.73739
      H   24    0.24901      0.00000     0.74994    0.00105     0.75099
      H   25    0.24085      0.00000     0.75796    0.00119     0.75915
      H   26    0.25553      0.00000     0.74343    0.00105     0.74447
      H   27    0.26763      0.00000     0.73143    0.00095     0.73237
 =======================================================================
   * Total *   -0.00000     31.98927    65.72645    0.28428    98.00000

 Normal termination of Gaussian 09 at Tue Oct  5 17:31:23 2021.
