 Gaussian 09, Revision A.02,

 -----------------------------------
 #p opt b3lyp/6-31G* scf=(xqc,tight)
 -----------------------------------

 -----------------------------
 CC(c1ccc(cc1)[Li])(C)C_conf_0
 -----------------------------
 Symbolic Z-matrix:
 Charge =  0 Multiplicity = 1

 SCF Done:  E(RB3LYP) =  -396.387467205     A.U. after   15 cycles
 SCF Done:  E(RB3LYP) =  -396.392874994     A.U. after   11 cycles
 SCF Done:  E(RB3LYP) =  -396.393219657     A.U. after   10 cycles
 SCF Done:  E(RB3LYP) =  -396.393258202     A.U. after   10 cycles
 SCF Done:  E(RB3LYP) =  -396.393267453     A.U. after   15 cycles
 Optimization completed.
    -- Stationary point found.
 Normal termination of Gaussian 09 at Sat Oct  2 13:55:25 2021.

 ----------------------------------------------------------------------
 #p freq b3lyp/6-31G* volume NMR pop=NPA density=current Geom=AllCheck
 Guess=Read
 ----------------------------------------------------------------------

 CC(c1ccc(cc1)[Li])(C)C_conf_0
 -----------------------------
 Redundant internal coordinates taken from checkpoint file:
 C10H13Li_2b7c_conf_0.chk
 Charge =  0 Multiplicity = 1

 SCF Done:  E(RB3LYP) =  -396.393267453     A.U. after    1 cycles

  1  C    Isotropic =   157.0365   Anisotropy =    39.4863

  2  C    Isotropic =   153.5819   Anisotropy =     8.9818

  3  C    Isotropic =    51.9366   Anisotropy =   179.6029

  4  C    Isotropic =    71.4806   Anisotropy =   154.9150

  5  C    Isotropic =    53.5252   Anisotropy =   152.1682

  6  C    Isotropic =    33.9617   Anisotropy =   238.5382

  7  C    Isotropic =    53.2779   Anisotropy =   152.2467

  8  C    Isotropic =    73.9313   Anisotropy =   150.9894

  9  Li   Isotropic =    90.8740   Anisotropy =    15.7002

 10  C    Isotropic =   157.0365   Anisotropy =    39.4863

 11  C    Isotropic =   160.8825   Anisotropy =    31.1188

 12  H    Isotropic =    30.6299   Anisotropy =     7.7214

 13  H    Isotropic =    31.1180   Anisotropy =     8.2378

 14  H    Isotropic =    31.0964   Anisotropy =     7.6215

 15  H    Isotropic =    25.2972   Anisotropy =    10.6740

 16  H    Isotropic =    24.5365   Anisotropy =     7.2818

 17  H    Isotropic =    24.5874   Anisotropy =     7.2392

 18  H    Isotropic =    25.5217   Anisotropy =    10.8663

 19  H    Isotropic =    30.6299   Anisotropy =     7.7214

 20  H    Isotropic =    31.0964   Anisotropy =     7.6215

 21  H    Isotropic =    31.1180   Anisotropy =     8.2377

 22  H    Isotropic =    30.7490   Anisotropy =     8.1086

 23  H    Isotropic =    31.2761   Anisotropy =     7.1386

 24  H    Isotropic =    30.7490   Anisotropy =     8.1086

  Exact polarizability: 179.992   0.407 114.952  -0.062  -0.002  80.535
 Approx polarizability: 228.627   1.373 190.851  -0.000  -0.000 110.760

                     1                      2                      3
                     A                      A                      A
 Frequencies --    50.2732                82.8816               108.2159
 Red. masses --     3.1510                 4.9068                 6.3873
 Frc consts  --     0.0047                 0.0199                 0.0441
 IR Inten    --     0.4342                44.1259                77.5378

                     4                      5                      6
                     A                      A                      A
 Frequencies --   162.6032               230.3325               231.8712
 Red. masses --     3.6953                 2.6077                 1.0758
 Frc consts  --     0.0576                 0.0815                 0.0341
 IR Inten    --    38.6679                 4.5596                 2.9212

                     7                      8                      9
                     A                      A                      A
 Frequencies --   272.3086               310.6608               328.1539
 Red. masses --     1.1344                 3.0723                 2.6243
 Frc consts  --     0.0496                 0.1747                 0.1665
 IR Inten    --     0.4767                 1.7520                 5.5063

                    10                     11                     12
                     A                      A                      A
 Frequencies --   331.0651               338.1736               393.1554
 Red. masses --     1.0942                 2.6156                 2.7254
 Frc consts  --     0.0707                 0.1762                 0.2482
 IR Inten    --     0.9738                 0.9239                 0.5255

                    13                     14                     15
                     A                      A                      A
 Frequencies --   396.7276               458.6906               489.1194
 Red. masses --     2.5905                 2.8863                 3.5960
 Frc consts  --     0.2402                 0.3578                 0.5069
 IR Inten    --     3.7625                 0.1392                21.2336

                    16                     17                     18
                     A                      A                      A
 Frequencies --   562.1504               592.2882               653.9883
 Red. masses --     3.0231                 4.0594                 7.1059
 Frc consts  --     0.5629                 0.8390                 1.7907
 IR Inten    --    16.8577                28.5618                 0.2866

                    19                     20                     21
                     A                      A                      A
 Frequencies --   729.5518               738.2560               820.6390
 Red. masses --     5.5830                 3.0628                 1.6159
 Frc consts  --     1.7508                 0.9835                 0.6412
 IR Inten    --     2.3373                 1.2870                11.2103

                    22                     23                     24
                     A                      A                      A
 Frequencies --   847.8159               863.7512               933.8087
 Red. masses --     2.5971                 1.2528                 1.7756
 Frc consts  --     1.0999                 0.5507                 0.9123
 IR Inten    --     1.3921                 0.0238                 0.3690

                    25                     26                     27
                     A                      A                      A
 Frequencies --   945.1135               960.2156               964.1843
 Red. masses --     1.7202                 1.3393                 1.2898
 Frc consts  --     0.9053                 0.7275                 0.7065
 IR Inten    --     0.8096                 0.2924                 0.3120

                    28                     29                     30
                     A                      A                      A
 Frequencies --   970.2327              1022.7738              1050.7010
 Red. masses --     1.2149                 5.5812                 1.4425
 Frc consts  --     0.6738                 3.4398                 0.9383
 IR Inten    --     0.2142                 3.9014                 0.9280

                    31                     32                     33
                     A                      A                      A
 Frequencies --  1061.3419              1068.8218              1132.6048
 Red. masses --     1.3893                 3.6132                 1.6904
 Frc consts  --     0.9221                 2.4319                 1.2776
 IR Inten    --     0.0007                23.0463                 1.3310

                    34                     35                     36
                     A                      A                      A
 Frequencies --  1147.8144              1239.0077              1239.0885
 Red. masses --     2.1138                 1.9405                 2.6983
 Frc consts  --     1.6408                 1.7551                 2.4409
 IR Inten    --     8.6618                 0.5563                 4.1730

                    37                     38                     39
                     A                      A                      A
 Frequencies --  1242.6644              1292.5605              1300.9254
 Red. masses --     1.3446                 5.3653                 3.0059
 Frc consts  --     1.2233                 5.2814                 2.9973
 IR Inten    --     0.4972                19.3058                18.1974

                    40                     41                     42
                     A                      A                      A
 Frequencies --  1353.6667              1412.1297              1423.1901
 Red. masses --     1.4043                 1.6329                 1.2157
 Frc consts  --     1.5162                 1.9185                 1.4508
 IR Inten    --     0.0610                 0.5834                 3.1337

                    43                     44                     45
                     A                      A                      A
 Frequencies --  1430.4719              1454.7445              1510.5110
 Red. masses --     1.5305                 1.2192                 1.0506
 Frc consts  --     1.8453                 1.5201                 1.4123
 IR Inten    --    15.0467                 2.6189                 0.0145

                    46                     47                     48
                     A                      A                      A
 Frequencies --  1516.3621              1519.0151              1528.1614
 Red. masses --     1.0461                 1.1165                 1.3185
 Frc consts  --     1.4172                 1.5179                 1.8142
 IR Inten    --     0.1877                 0.1102                 2.6134

                    49                     50                     51
                     A                      A                      A
 Frequencies --  1535.1326              1535.2095              1549.9698
 Red. masses --     1.3468                 1.0513                 1.0710
 Frc consts  --     1.8700                 1.4598                 1.5160
 IR Inten    --     2.8970                 4.0736                 7.5698

                    52                     53                     54
                     A                      A                      A
 Frequencies --  1581.1544              1634.7622              3036.3139
 Red. masses --     5.0164                 5.0386                 1.0367
 Frc consts  --     7.3890                 7.9336                 5.6309
 IR Inten    --     4.1276                 8.1556                29.3767

                    55                     56                     57
                     A                      A                      A
 Frequencies --  3038.2612              3046.9293              3096.3228
 Red. masses --     1.0357                 1.0364                 1.0866
 Frc consts  --     5.6332                 5.6690                 6.1378
 IR Inten    --    30.4333                40.8918                29.5392

                    58                     59                     60
                     A                      A                      A
 Frequencies --  3096.8267              3100.8038              3101.8748
 Red. masses --     1.0866                 1.1004                 1.1012
 Frc consts  --     6.1399                 6.2335                 6.2424
 IR Inten    --    69.1307                 9.6535                 6.6059

                    61                     62                     63
                     A                      A                      A
 Frequencies --  3110.6240              3113.3768              3118.8376
 Red. masses --     1.1009                 1.1027                 1.1020
 Frc consts  --     6.2763                 6.2974                 6.3158
 IR Inten    --   108.3306                21.4812                24.9294

                    64                     65                     66
                     A                      A                      A
 Frequencies --  3121.0052              3159.4602              3189.8945
 Red. masses --     1.1012                 1.0902                 1.0893
 Frc consts  --     6.3200                 6.4121                 6.5307
 IR Inten    --    34.2794                54.8381                33.0527

 - Thermochemistry -
 -------------------
 Temperature   298.150 Kelvin.  Pressure   1.00000 Atm.
 Atom     1 has atomic number  6 and mass  12.00000

 Molecular mass:   140.11773 amu.
 Principal axes and moments of inertia in atomic units:
                           1         2         3
     Eigenvalues --   703.363222457.867632761.63409
           X            1.00000   0.00020  -0.00000
           Y           -0.00020   1.00000   0.00000
           Z            0.00000  -0.00000   1.00000
 This molecule is an asymmetric top.
 Rotational symmetry number  1.
 Warning -- assumption of classical behavior for rotation
           may cause significant error
 Rotational temperatures (Kelvin)      0.12314     0.03524     0.03136
 Rotational constants (GHZ):           2.56587     0.73427     0.65350
 Zero-point vibrational energy     531617.7 (Joules/Mol)
                                  127.05969 (Kcal/Mol)
 Warning -- explicit consideration of  17 degrees of freedom as
           vibrations may cause significant error
 Vibrational temperatures:     72.33   119.25   155.70   233.95   331.40
          (Kelvin)            333.61   391.79   446.97   472.14   476.33
                              486.56   565.66   570.80   659.95   703.73
                              808.81   852.17   940.94  1049.66  1062.18
                             1180.72  1219.82  1242.74  1343.54  1359.81
                             1381.53  1387.24  1395.95  1471.54  1511.72
                             1527.03  1537.79  1629.56  1651.45  1782.65
                             1782.77  1787.91  1859.70  1871.74  1947.62
                             2031.74  2047.65  2058.13  2093.05  2173.29
                             2181.70  2185.52  2198.68  2208.71  2208.82
                             2230.06  2274.93  2352.06  4368.57  4371.37
                             4383.85  4454.91  4455.64  4461.36  4462.90
                             4475.49  4479.45  4487.31  4490.42  4545.75
                             4589.54

 Zero-point correction=                           0.202482 (Hartree/Particle)
 Thermal correction to Energy=                    0.213809
 Thermal correction to Enthalpy=                  0.214753
 Thermal correction to Gibbs Free Energy=         0.165967
 Sum of electronic and zero-point Energies=           -396.190785
 Sum of electronic and thermal Energies=              -396.179459
 Sum of electronic and thermal Enthalpies=            -396.178515
 Sum of electronic and thermal Free Energies=         -396.227301

                     E (Thermal)             CV                S
                      KCal/Mol        Cal/Mol-Kelvin    Cal/Mol-Kelvin
 Total                  134.167             43.332            102.679
 Electronic               0.000              0.000              0.000
 Translational            0.889              2.981             40.724
 Rotational               0.889              2.981             29.947
 Vibrational            132.389             37.370             32.009
 Vibration     1          0.595              1.977              4.807
 Vibration     2          0.600              1.961              3.821
 Vibration     3          0.606              1.943              3.301
 Vibration     4          0.623              1.888              2.519
 Vibration     5          0.652              1.795              1.876
 Vibration     6          0.653              1.792              1.864
 Vibration     7          0.675              1.724              1.582
 Vibration     8          0.700              1.653              1.359
 Vibration     9          0.711              1.619              1.269
 Vibration    10          0.713              1.613              1.255
 Vibration    11          0.718              1.599              1.221
 Vibration    12          0.760              1.485              0.988
 Vibration    13          0.763              1.477              0.975
 Vibration    14          0.817              1.342              0.770
 Vibration    15          0.845              1.274              0.686
 Vibration    16          0.918              1.113              0.520
 Vibration    17          0.950              1.048              0.463

 Normal termination of Gaussian 09 at Sat Oct  2 15:11:42 2021.
 Gaussian 09:  AM64L-G09RevA.02 11-Jun-2009

 ----------------------------------------------------------------------
 #p TD(NStates=10, Root=1) b3lyp/6-31G* volume pop=NPA density=current
 Geom=AllCheck Guess=Read
 ----------------------------------------------------------------------

 CC(c1ccc(cc1)[Li])(C)C_conf_0
 -----------------------------
 Redundant internal coordinates taken from checkpoint file:
 C10H13Li_2b7c_conf_0.chk
 Charge =  0 Multiplicity = 1

                         Standard orientation:
 ---------------------------------------------------------------------
 Center     Atomic      Atomic             Coordinates (Angstroms)
 Number     Number       Type             X           Y           Z
 ---------------------------------------------------------------------
      1          6           0       -2.119330   -0.734855    1.261040
      2          6           0       -1.613095    0.004687    0.000000
      3          6           0       -0.073046    0.029881    0.000000
      4          6           0        0.654145   -1.172308    0.000000
      5          6           0        2.050052   -1.178878    0.000000
      6          6           0        2.835862   -0.001667   -0.000000
      7          6           0        2.075308    1.187890   -0.000000
      8          6           0        0.675131    1.214060    0.000000
      9          3           0        4.807727   -0.018244    0.000000
     10          6           0       -2.119329   -0.734858   -1.261039
     11          6           0       -2.225047    1.418608   -0.000002
     12          1           0       -1.749028   -1.764465    1.303002
     13          1           0       -3.216380   -0.772455    1.273066
     14          1           0       -1.786171   -0.224320    2.172045
     15          1           0        0.123889   -2.123605    0.000000
     16          1           0        2.536530   -2.157835    0.000000
     17          1           0        2.581191    2.157058   -0.000000
     18          1           0        0.171564    2.176895    0.000000
     19          1           0       -1.749026   -1.764468   -1.302998
     20          1           0       -1.786170   -0.224324   -2.172045
     21          1           0       -3.216379   -0.772458   -1.273066
     22          1           0       -1.928905    1.990347    0.886925
     23          1           0       -3.319290    1.348662   -0.000000
     24          1           0       -1.928907    1.990344   -0.886930
 ---------------------------------------------------------------------

 SCF Done:  E(RB3LYP) =  -396.393267453     A.U. after    1 cycles

 Excitation energies and oscillator strengths:

 Excited State   1:      Singlet-A      3.0105 eV  411.83 nm  f=0.1109  <S**2>=0.000
      38 -> 39         0.70467
 This state for optimization and/or second-order correction.
 Total Energy, E(TD-HF/TD-KS) =  -396.282631900
 Copying the excited state density for this state as the 1-particle RhoCI density.

 Excited State   2:      Singlet-A      3.1698 eV  391.14 nm  f=0.0111  <S**2>=0.000
      37 -> 39         0.70452

 Excited State   3:      Singlet-A      3.5735 eV  346.95 nm  f=0.0001  <S**2>=0.000
      36 -> 39         0.70601

 Excited State   4:      Singlet-A      4.2571 eV  291.24 nm  f=0.0709  <S**2>=0.000
      38 -> 40         0.70517

 Excited State   5:      Singlet-A      4.2737 eV  290.11 nm  f=0.0331  <S**2>=0.000
      38 -> 41         0.70256

 Excited State   6:      Singlet-A      4.6419 eV  267.10 nm  f=0.0000  <S**2>=0.000
      37 -> 41         0.70526

 Excited State   7:      Singlet-A      4.7112 eV  263.17 nm  f=0.2417  <S**2>=0.000
      37 -> 40         0.69967

 Excited State   8:      Singlet-A      4.8642 eV  254.89 nm  f=0.0058  <S**2>=0.000
      36 -> 40         0.65470
      37 -> 42        -0.24835

 Excited State   9:      Singlet-A      5.0073 eV  247.61 nm  f=0.0019  <S**2>=0.000
      36 -> 41         0.70595

 Excited State  10:      Singlet-A      5.0226 eV  246.85 nm  f=0.0001  <S**2>=0.000
      38 -> 42         0.70454

 The electronic state is 1-A.
 Alpha  occ. eigenvalues --  -10.17982 -10.15543 -10.15421 -10.15387 -10.15386
 Alpha  occ. eigenvalues --  -10.14536 -10.14491 -10.14369 -10.14311 -10.11082
 Alpha  occ. eigenvalues --   -2.00072  -0.81634  -0.77425  -0.69735  -0.67903
 Alpha  occ. eigenvalues --   -0.66275  -0.66211  -0.56222  -0.55127  -0.51218
 Alpha  occ. eigenvalues --   -0.46018  -0.41938  -0.41615  -0.40475  -0.39507
 Alpha  occ. eigenvalues --   -0.38473  -0.37272  -0.37173  -0.35293  -0.34503
 Alpha  occ. eigenvalues --   -0.31917  -0.31193  -0.29994  -0.29970  -0.28002
 Alpha  occ. eigenvalues --   -0.20472  -0.19416  -0.18907
 Alpha virt. eigenvalues --   -0.05032   0.00079   0.00451   0.04219   0.05001
 Alpha virt. eigenvalues --    0.05863   0.10507   0.11729   0.11796   0.13032
 Alpha virt. eigenvalues --    0.14456   0.15105   0.16041   0.17046   0.18047

 Mulliken atomic charges:
              1
     1  C   -0.440359
     2  C    0.012623
     3  C    0.172908
     4  C   -0.156425
     5  C   -0.181952
     6  C   -0.090612
     7  C   -0.180762
     8  C   -0.165396
     9  Li  -0.028703
    10  C   -0.440359
    11  C   -0.460992
    12  H    0.145334
    13  H    0.147750
    14  H    0.152743
    15  H    0.148318
    16  H    0.159988
    17  H    0.160308
    18  H    0.150604
    19  H    0.145334
    20  H    0.152743
    21  H    0.147750
    22  H    0.149501
    23  H    0.150155
    24  H    0.149501
 Sum of Mulliken atomic charges =  -0.00000

 Dipole moment (field-independent basis, Debye):
    X=             -7.6712    Y=              0.0418    Z=             -0.0000  Tot=              7.6714
 Quadrupole moment (field-independent basis, Debye-Ang):
   XX=           -121.0107   YY=            -62.8193   ZZ=            -70.8229
   XY=              0.3476   XZ=             -0.0000   YZ=             -0.0000

 Summary of Natural Population Analysis:

                                       Natural Population
                Natural  -----------------------------------------------
    Atom  No    Charge         Core      Valence    Rydberg      Total
 -----------------------------------------------------------------------
      C    1   -0.66449      1.99938     4.65537    0.00975     6.66449
      C    2   -0.06842      1.99910     4.05704    0.01228     6.06842
      C    3   -0.00459      1.99899     3.98716    0.01844     6.00459
      C    4   -0.22001      1.99897     4.20859    0.01245     6.22001
      C    5   -0.28638      1.99907     4.27200    0.01531     6.28638
      C    6   -0.14708      1.99875     4.12741    0.02092     6.14708
      C    7   -0.28509      1.99908     4.27083    0.01518     6.28509
      C    8   -0.22541      1.99897     4.21392    0.01253     6.22541
     Li    9    0.12124      1.99567     0.88047    0.00262     2.87876
      C   10   -0.66449      1.99938     4.65536    0.00975     6.66449
      C   11   -0.67938      1.99939     4.66967    0.01031     6.67938
      H   12    0.23070      0.00000     0.76851    0.00079     0.76930
      H   13    0.23566      0.00000     0.76345    0.00089     0.76434
      H   14    0.23799      0.00000     0.76109    0.00093     0.76201
      H   15    0.24644      0.00000     0.75268    0.00088     0.75356
      H   16    0.25074      0.00000     0.74902    0.00024     0.74926
      H   17    0.25090      0.00000     0.74888    0.00022     0.74910
      H   18    0.25144      0.00000     0.74766    0.00090     0.74856
      H   19    0.23070      0.00000     0.76851    0.00079     0.76930
      H   20    0.23799      0.00000     0.76109    0.00093     0.76201
      H   21    0.23566      0.00000     0.76345    0.00089     0.76434
      H   22    0.23453      0.00000     0.76453    0.00094     0.76547
      H   23    0.24193      0.00000     0.75725    0.00082     0.75807
      H   24    0.23453      0.00000     0.76453    0.00094     0.76547
 =======================================================================
   * Total *   -0.00490     21.98675    53.86845    0.14970    76.00490

 Normal termination of Gaussian 09 at Sat Oct  2 19:10:43 2021.
