 Gaussian 09, Revision A.02,

 -----------------------------------
 #p opt b3lyp/6-31G* scf=(xqc,tight)
 -----------------------------------

 ----------------------------
 CN(c1ccc(cc1)C(=O)C)C_conf_0
 ----------------------------
 Symbolic Z-matrix:
 Charge =  0 Multiplicity = 1

 SCF Done:  E(RB3LYP) =  -518.857878400     A.U. after   15 cycles
 SCF Done:  E(RB3LYP) =  -518.862045380     A.U. after   14 cycles
 SCF Done:  E(RB3LYP) =  -518.863856456     A.U. after   14 cycles
 SCF Done:  E(RB3LYP) =  -518.864518088     A.U. after   13 cycles
 SCF Done:  E(RB3LYP) =  -518.864946344     A.U. after   12 cycles
 SCF Done:  E(RB3LYP) =  -518.865022715     A.U. after   12 cycles
 SCF Done:  E(RB3LYP) =  -518.865623704     A.U. after   12 cycles
 SCF Done:  E(RB3LYP) =  -518.866347347     A.U. after   13 cycles
 SCF Done:  E(RB3LYP) =  -518.866421011     A.U. after   16 cycles
 SCF Done:  E(RB3LYP) =  -518.866810304     A.U. after   16 cycles
 SCF Done:  E(RB3LYP) =  -518.866844804     A.U. after   11 cycles
 SCF Done:  E(RB3LYP) =  -518.866859283     A.U. after   10 cycles
 SCF Done:  E(RB3LYP) =  -518.866870113     A.U. after   10 cycles
 SCF Done:  E(RB3LYP) =  -518.866879377     A.U. after   10 cycles
 SCF Done:  E(RB3LYP) =  -518.866882966     A.U. after    9 cycles
 Optimization completed.
    -- Stationary point found.
 Normal termination of Gaussian 09 at Mon Oct  4 07:27:26 2021.

 ----------------------------------------------------------------------
 #p freq b3lyp/6-31G* volume NMR pop=NPA density=current Geom=AllCheck
 Guess=Read
 ----------------------------------------------------------------------

 CN(c1ccc(cc1)C(=O)C)C_conf_0
 ----------------------------
 Redundant internal coordinates taken from checkpoint file:
 C10H13NO_3689_conf_0.chk
 Charge =  0 Multiplicity = 1

 SCF Done:  E(RB3LYP) =  -518.866882966     A.U. after    1 cycles

  1  C    Isotropic =   149.6601   Anisotropy =    53.1738

  2  N    Isotropic =   197.0573   Anisotropy =    83.9817

  3  C    Isotropic =    48.6236   Anisotropy =   154.3999

  4  C    Isotropic =    86.2992   Anisotropy =   132.7951

  5  C    Isotropic =    65.5110   Anisotropy =   162.2679

  6  C    Isotropic =    70.5175   Anisotropy =   149.3279

  7  C    Isotropic =    64.8184   Anisotropy =   178.3846

  8  C    Isotropic =    84.6859   Anisotropy =   135.4005

  9  C    Isotropic =     6.0800   Anisotropy =   149.5611

 10  O    Isotropic =  -242.8262   Anisotropy =   896.6284

 11  C    Isotropic =   164.0730   Anisotropy =    38.5170

 12  C    Isotropic =   149.6620   Anisotropy =    53.3615

 13  H    Isotropic =    28.9951   Anisotropy =     8.8953

 14  H    Isotropic =    29.1109   Anisotropy =     8.9808

 15  H    Isotropic =    29.5965   Anisotropy =     7.5653

 16  H    Isotropic =    25.9934   Anisotropy =     8.8497

 17  H    Isotropic =    24.7322   Anisotropy =     8.1175

 18  H    Isotropic =    24.1118   Anisotropy =     6.7381

 19  H    Isotropic =    25.8198   Anisotropy =     8.7921

 20  H    Isotropic =    29.7845   Anisotropy =     4.3497

 21  H    Isotropic =    30.4435   Anisotropy =     6.3842

 22  H    Isotropic =    29.7860   Anisotropy =     4.3450

 23  H    Isotropic =    29.6146   Anisotropy =     7.6322

 24  H    Isotropic =    29.0868   Anisotropy =     9.1327

 25  H    Isotropic =    28.9657   Anisotropy =     9.0271

  Exact polarizability: 192.403  -2.190 115.795  -0.193  -0.022  57.559
 Approx polarizability: 280.528 -17.587 194.212   0.780  -0.141  86.030

                     1                      2                      3
                     A                      A                      A
 Frequencies --    36.3621                63.3195                81.7956
 Red. masses --     2.4133                 3.0430                 2.4957
 Frc consts  --     0.0019                 0.0072                 0.0098
 IR Inten    --     3.4766                 2.1654                 0.2020

                     4                      5                      6
                     A                      A                      A
 Frequencies --    88.3277               155.1337               156.9967
 Red. masses --     2.9563                 1.0351                 3.7777
 Frc consts  --     0.0136                 0.0147                 0.0549
 IR Inten    --     1.6788                 0.1751                 2.5044

                     7                      8                      9
                     A                      A                      A
 Frequencies --   192.3879               205.8682               273.3955
 Red. masses --     1.8667                 1.1750                 2.9324
 Frc consts  --     0.0407                 0.0293                 0.1291
 IR Inten    --     2.3875                 0.3518                 2.2020

                    10                     11                     12
                     A                      A                      A
 Frequencies --   297.6421               311.0655               428.9915
 Red. masses --     4.8768                 3.3646                 3.1831
 Frc consts  --     0.2546                 0.1918                 0.3451
 IR Inten    --     0.6877                 1.4417                 0.1376

                    13                     14                     15
                     A                      A                      A
 Frequencies --   431.8881               472.5913               506.7985
 Red. masses --     3.1770                 3.7385                 3.3613
 Frc consts  --     0.3492                 0.4919                 0.5087
 IR Inten    --     0.0413                 4.9818                 3.7533

                    16                     17                     18
                     A                      A                      A
 Frequencies --   512.8900               578.2776               601.9631
 Red. masses --     2.9111                 4.3376                 2.2378
 Frc consts  --     0.4512                 0.8546                 0.4778
 IR Inten    --     1.7810                23.9959                10.3491

                    19                     20                     21
                     A                      A                      A
 Frequencies --   649.9626               669.1957               743.0654
 Red. masses --     7.1139                 3.8496                 3.6228
 Frc consts  --     1.7707                 1.0157                 1.1786
 IR Inten    --     0.6146                 6.3873                 0.6479

                    22                     23                     24
                     A                      A                      A
 Frequencies --   792.7497               812.7760               835.8791
 Red. masses --     5.4760                 1.3248                 1.6625
 Frc consts  --     2.0276                 0.5156                 0.6844
 IR Inten    --     0.6531                 8.5607                43.4398

                    25                     26                     27
                     A                      A                      A
 Frequencies --   948.4929               964.3411               971.8230
 Red. masses --     1.3010                 2.4042                 2.9080
 Frc consts  --     0.6896                 1.3173                 1.6182
 IR Inten    --     0.1782                68.1595                 2.8375

                    28                     29                     30
                     A                      A                      A
 Frequencies --   987.2274              1021.4105              1055.1649
 Red. masses --     1.2923                 3.0251                 1.8257
 Frc consts  --     0.7421                 1.8595                 1.1976
 IR Inten    --     1.0671                 3.1509                 1.9042

                    31                     32                     33
                     A                      A                      A
 Frequencies --  1092.7314              1102.7446              1150.0087
 Red. masses --     1.5249                 2.2920                 1.3101
 Frc consts  --     1.0728                 1.6421                 1.0209
 IR Inten    --    28.8269                 4.5153                 9.1488

                    34                     35                     36
                     A                      A                      A
 Frequencies --  1158.8529              1164.1861              1210.6522
 Red. masses --     1.2334                 1.3788                 1.6878
 Frc consts  --     0.9759                 1.1010                 1.4575
 IR Inten    --     0.1337                 3.4356                27.4504

                    37                     38                     39
                     A                      A                      A
 Frequencies --  1227.0033              1287.5836              1311.0743
 Red. masses --     1.1967                 3.0601                 3.1736
 Frc consts  --     1.0616                 2.9891                 3.2141
 IR Inten    --   167.5963                34.2880               288.1096

                    40                     41                     42
                     A                      A                      A
 Frequencies --  1355.0474              1382.6544              1403.4609
 Red. masses --     1.5746                 5.1525                 3.2447
 Frc consts  --     1.7035                 5.8035                 3.7655
 IR Inten    --    17.2387                15.6687               214.8447

                    43                     44                     45
                     A                      A                      A
 Frequencies --  1411.2119              1468.1552              1487.3591
 Red. masses --     1.3460                 1.4194                 2.0035
 Frc consts  --     1.5793                 1.8026                 2.6114
 IR Inten    --    75.2281                 9.6866                15.8238

                    46                     47                     48
                     A                      A                      A
 Frequencies --  1500.8401              1510.2715              1510.3974
 Red. masses --     1.0604                 1.0476                 1.0420
 Frc consts  --     1.4073                 1.4079                 1.4005
 IR Inten    --    11.0131                 7.3652                 1.2316

                    49                     50                     51
                     A                      A                      A
 Frequencies --  1515.5126              1518.8129              1544.8822
 Red. masses --     1.2324                 1.0516                 1.0787
 Frc consts  --     1.6678                 1.4292                 1.5168
 IR Inten    --    12.7405                10.2455                 4.8627

                    52                     53                     54
                     A                      A                      A
 Frequencies --  1558.5129              1577.8954              1603.5546
 Red. masses --     1.1247                 2.3258                 5.8362
 Frc consts  --     1.6095                 3.4117                 8.8419
 IR Inten    --    48.1924                89.7612                33.8086

                    55                     56                     57
                     A                      A                      A
 Frequencies --  1666.6932              1761.9794              3011.7956
 Red. masses --     5.3866                10.3415                 1.0414
 Frc consts  --     8.8161                18.9163                 5.5657
 IR Inten    --   428.5220               187.2492                82.9199

                    58                     59                     60
                     A                      A                      A
 Frequencies --  3020.0693              3051.3138              3062.8208
 Red. masses --     1.0451                 1.0383                 1.0996
 Frc consts  --     5.6162                 5.6958                 6.0776
 IR Inten    --    67.4336                 3.9638                25.7902

                    61                     62                     63
                     A                      A                      A
 Frequencies --  3066.4909              3110.1930              3146.5772
 Red. masses --     1.1010                 1.1001                 1.0975
 Frc consts  --     6.1001                 6.2699                 6.4020
 IR Inten    --    50.1857                12.9112                 2.0257

                    64                     65                     66
                     A                      A                      A
 Frequencies --  3159.5902              3166.7532              3197.7960
 Red. masses --     1.0948                 1.1010                 1.0880
 Frc consts  --     6.4391                 6.5052                 6.5551
 IR Inten    --    41.2103                15.3911                11.9278

                    67                     68                     69
                     A                      A                      A
 Frequencies --  3214.9584              3230.0224              3231.6839
 Red. masses --     1.0873                 1.0912                 1.0926
 Frc consts  --     6.6217                 6.7074                 6.7232
 IR Inten    --     1.1990                18.3797                10.5752

 - Thermochemistry -
 -------------------
 Temperature   298.150 Kelvin.  Pressure   1.00000 Atm.
 Atom     1 has atomic number  6 and mass  12.00000

 Molecular mass:   163.09971 amu.
 Principal axes and moments of inertia in atomic units:
                           1         2         3
     Eigenvalues --   693.887303887.020794546.46763
           X            0.99985   0.01710  -0.00061
           Y           -0.01710   0.99985   0.00025
           Z            0.00062  -0.00024   1.00000
 This molecule is an asymmetric top.
 Rotational symmetry number  1.
 Warning -- assumption of classical behavior for rotation
           may cause significant error
 Rotational temperatures (Kelvin)      0.12482     0.02228     0.01905
 Rotational constants (GHZ):           2.60091     0.46430     0.39695
 Zero-point vibrational energy     556263.1 (Joules/Mol)
                                  132.95007 (Kcal/Mol)
 Warning -- explicit consideration of  18 degrees of freedom as
           vibrations may cause significant error
 Vibrational temperatures:     52.32    91.10   117.69   127.08   223.20
          (Kelvin)            225.88   276.80   296.20   393.35   428.24
                              447.55   617.22   621.39   679.95   729.17
                              737.93   832.01   866.09   935.15   962.82
                             1069.10  1140.59  1169.40  1202.64  1364.67
                             1387.47  1398.23  1420.40  1469.58  1518.14
                             1572.19  1586.60  1654.60  1667.33  1675.00
                             1741.86  1765.38  1852.54  1886.34  1949.61
                             1989.33  2019.26  2030.42  2112.35  2139.98
                             2159.37  2172.94  2173.12  2180.48  2185.23
                             2222.74  2242.35  2270.24  2307.15  2398.00
                             2535.09  4333.30  4345.20  4390.15  4406.71
                             4411.99  4474.87  4527.22  4545.94  4556.25
                             4600.91  4625.60  4647.28  4649.67

 Zero-point correction=                           0.211869 (Hartree/Particle)
 Thermal correction to Energy=                    0.224206
 Thermal correction to Enthalpy=                  0.225150
 Thermal correction to Gibbs Free Energy=         0.172576
 Sum of electronic and zero-point Energies=           -518.655014
 Sum of electronic and thermal Energies=              -518.642677
 Sum of electronic and thermal Enthalpies=            -518.641733
 Sum of electronic and thermal Free Energies=         -518.694307

                     E (Thermal)             CV                S
                      KCal/Mol        Cal/Mol-Kelvin    Cal/Mol-Kelvin
 Total                  140.691             45.045            110.651
 Electronic               0.000              0.000              0.000
 Translational            0.889              2.981             41.176
 Rotational               0.889              2.981             30.884
 Vibrational            138.914             39.083             38.591
 Vibration     1          0.594              1.982              5.448
 Vibration     2          0.597              1.972              4.351
 Vibration     3          0.600              1.962              3.847
 Vibration     4          0.601              1.957              3.697
 Vibration     5          0.620              1.897              2.608
 Vibration     6          0.621              1.895              2.586
 Vibration     7          0.634              1.850              2.205
 Vibration     8          0.640              1.832              2.080
 Vibration     9          0.676              1.722              1.575
 Vibration    10          0.691              1.678              1.430
 Vibration    11          0.700              1.653              1.357
 Vibration    12          0.790              1.407              0.862
 Vibration    13          0.793              1.401              0.853
 Vibration    14          0.829              1.311              0.730
 Vibration    15          0.862              1.235              0.641
 Vibration    16          0.868              1.221              0.627
 Vibration    17          0.935              1.078              0.489
 Vibration    18          0.960              1.028              0.446

 Normal termination of Gaussian 09 at Mon Oct  4 08:20:26 2021.
 Gaussian 09:  AM64L-G09RevA.02 11-Jun-2009

 ----------------------------------------------------------------------
 #p TD(NStates=10, Root=1) b3lyp/6-31G* volume pop=NPA density=current
 Geom=AllCheck Guess=Read
 ----------------------------------------------------------------------

 CN(c1ccc(cc1)C(=O)C)C_conf_0
 ----------------------------
 Redundant internal coordinates taken from checkpoint file:
 C10H13NO_3689_conf_0.chk
 Charge =  0 Multiplicity = 1

                         Standard orientation:
 ---------------------------------------------------------------------
 Center     Atomic      Atomic             Coordinates (Angstroms)
 Number     Number       Type             X           Y           Z
 ---------------------------------------------------------------------
      1          6           0       -3.446453    1.310220    0.024735
      2          7           0       -2.748189    0.037880   -0.044450
      3          6           0       -1.369329    0.004316   -0.023539
      4          6           0       -0.603631    1.196059   -0.013890
      5          6           0        0.783594    1.151234   -0.006092
      6          6           0        1.481079   -0.067056   -0.003019
      7          6           0        0.720901   -1.249584   -0.005670
      8          6           0       -0.662468   -1.226093   -0.013690
      9          6           0        2.963220   -0.166961    0.005808
     10          8           0        3.526470   -1.255361    0.010931
     11          6           0        3.785683    1.115936    0.008510
     12          6           0       -3.508817   -1.198957    0.024357
     13          1           0       -3.180125    1.960872   -0.818727
     14          1           0       -3.228359    1.854844    0.955407
     15          1           0       -4.522048    1.131669   -0.018872
     16          1           0       -1.094480    2.161830   -0.011977
     17          1           0        1.327259    2.091668   -0.000060
     18          1           0        1.252613   -2.195960    0.000651
     19          1           0       -1.202724   -2.165296   -0.011362
     20          1           0        3.570868    1.727242   -0.876330
     21          1           0        4.844048    0.849535    0.013441
     22          1           0        3.563025    1.728352    0.890666
     23          1           0       -4.573971   -0.966939   -0.023611
     24          1           0       -3.321249   -1.751815    0.956559
     25          1           0       -3.271957   -1.862952   -0.817145
 ---------------------------------------------------------------------

 SCF Done:  E(RB3LYP) =  -518.866882966     A.U. after    2 cycles

 Excitation energies and oscillator strengths:

 Excited State   1:      Singlet-A      3.8683 eV  320.51 nm  f=0.0001  <S**2>=0.000
      43 -> 45         0.69492
      43 -> 47        -0.12555
 This state for optimization and/or second-order correction.
 Total Energy, E(TD-HF/TD-KS) =  -518.724724546
 Copying the excited state density for this state as the 1-particle RhoCI density.

 Excited State   2:      Singlet-A      4.2962 eV  288.59 nm  f=0.4767  <S**2>=0.000
      44 -> 45         0.69780

 Excited State   3:      Singlet-A      4.6386 eV  267.29 nm  f=0.0120  <S**2>=0.000
      42 -> 45         0.34978
      44 -> 46         0.60939

 Excited State   4:      Singlet-A      5.4291 eV  228.37 nm  f=0.0718  <S**2>=0.000
      41 -> 46        -0.15382
      42 -> 45         0.59609
      44 -> 46        -0.33560

 Excited State   5:      Singlet-A      5.4733 eV  226.53 nm  f=0.0001  <S**2>=0.000
      43 -> 46         0.70594

 Excited State   6:      Singlet-A      6.3807 eV  194.31 nm  f=0.0111  <S**2>=0.000
      41 -> 45         0.56765
      42 -> 46         0.20097
      44 -> 47        -0.36379

 Excited State   7:      Singlet-A      6.5473 eV  189.37 nm  f=0.0030  <S**2>=0.000
      41 -> 45         0.39737
      42 -> 46        -0.16634
      44 -> 47         0.54206

 Excited State   8:      Singlet-A      6.6331 eV  186.92 nm  f=0.0091  <S**2>=0.000
      44 -> 48         0.70253

 Excited State   9:      Singlet-A      6.7469 eV  183.76 nm  f=0.0013  <S**2>=0.000
      43 -> 45         0.12736
      43 -> 47         0.68335

 Excited State  10:      Singlet-A      6.8652 eV  180.60 nm  f=0.6433  <S**2>=0.000
      42 -> 46         0.62612
      44 -> 45         0.10216
      44 -> 47         0.23773

 The electronic state is 1-A.
 Alpha  occ. eigenvalues --  -19.11382 -14.36583 -10.25719 -10.23594 -10.22801
 Alpha  occ. eigenvalues --  -10.22735 -10.19317 -10.18532 -10.18520 -10.18339
 Alpha  occ. eigenvalues --  -10.17830 -10.17646  -1.01291  -0.95767  -0.84447
 Alpha  occ. eigenvalues --   -0.76233  -0.75236  -0.73005  -0.72102  -0.67112
 Alpha  occ. eigenvalues --   -0.60265  -0.59329  -0.54459  -0.52277  -0.48886
 Alpha  occ. eigenvalues --   -0.47362  -0.46370  -0.45020  -0.43168  -0.42801
 Alpha  occ. eigenvalues --   -0.42364  -0.41880  -0.41432  -0.39378  -0.39084
 Alpha  occ. eigenvalues --   -0.38846  -0.36960  -0.36138  -0.34007  -0.33292
 Alpha  occ. eigenvalues --   -0.28538  -0.24977  -0.22996  -0.19740
 Alpha virt. eigenvalues --   -0.03261   0.00283   0.06161   0.07921   0.09779
 Alpha virt. eigenvalues --    0.10759   0.11904   0.13507   0.15648   0.15981
 Alpha virt. eigenvalues --    0.16253   0.16348   0.16710   0.17193   0.17470

 Mulliken atomic charges:
              1
     1  C   -0.308141
     2  N   -0.472425
     3  C    0.350641
     4  C   -0.191533
     5  C   -0.221193
     6  C    0.122347
     7  C   -0.207339
     8  C   -0.189223
     9  C    0.295587
    10  O   -0.321000
    11  C   -0.511867
    12  C   -0.308716
    13  H    0.157087
    14  H    0.151980
    15  H    0.152001
    16  H    0.119633
    17  H    0.109740
    18  H    0.131885
    19  H    0.121330
    20  H    0.188943
    21  H    0.178165
    22  H    0.188778
    23  H    0.151573
    24  H    0.153193
    25  H    0.158553
 Sum of Mulliken atomic charges =  -0.00000

 Dipole moment (field-independent basis, Debye):
    X=             -1.5284    Y=              1.7227    Z=              0.0745  Tot=              2.3042
 Quadrupole moment (field-independent basis, Debye-Ang):
   XX=            -58.2195   YY=            -67.5794   ZZ=            -74.9451
   XY=              6.8644   XZ=             -0.1629   YZ=              0.0223

 Summary of Natural Population Analysis:

                                       Natural Population
                Natural  -----------------------------------------------
    Atom  No    Charge         Core      Valence    Rydberg      Total
 -----------------------------------------------------------------------
      C    1   -0.46433      1.99948     4.45329    0.01156     6.46433
      N    2   -0.43778      1.99932     5.42749    0.01097     7.43778
      C    3    0.14874      1.99906     3.83336    0.01884     5.85126
      C    4   -0.28121      1.99907     4.26940    0.01274     6.28121
      C    5   -0.22851      1.99905     4.21588    0.01358     6.22851
      C    6   -0.17906      1.99889     4.16532    0.01486     6.17906
      C    7   -0.21415      1.99906     4.20021    0.01488     6.21415
      C    8   -0.28081      1.99907     4.26932    0.01241     6.28081
      C    9    0.34818      1.99927     3.62009    0.03246     5.65182
      O   10   -0.26773      1.99981     6.25003    0.01789     8.26773
      C   11   -0.70463      1.99933     4.69861    0.00669     6.70463
      C   12   -0.46436      1.99948     4.45334    0.01155     6.46436
      H   13    0.22025      0.00000     0.77763    0.00212     0.77975
      H   14    0.21486      0.00000     0.78252    0.00262     0.78514
      H   15    0.23006      0.00000     0.76933    0.00061     0.76994
      H   16    0.23302      0.00000     0.76607    0.00090     0.76698
      H   17    0.22621      0.00000     0.77279    0.00100     0.77379
      H   18    0.23678      0.00000     0.76236    0.00086     0.76322
      H   19    0.23371      0.00000     0.76537    0.00092     0.76629
      H   20    0.25515      0.00000     0.74340    0.00145     0.74485
      H   21    0.25420      0.00000     0.74465    0.00115     0.74580
      H   22    0.25498      0.00000     0.74356    0.00145     0.74502
      H   23    0.22972      0.00000     0.76967    0.00061     0.77028
      H   24    0.21555      0.00000     0.78187    0.00258     0.78445
      H   25    0.22116      0.00000     0.77676    0.00208     0.77884
 =======================================================================
   * Total *   -0.00000     23.99089    63.81233    0.19678    88.00000

 Normal termination of Gaussian 09 at Mon Oct  4 17:27:51 2021.
