 Gaussian 09, Revision A.02,

 -----------------------------------
 #p opt b3lyp/6-31G* scf=(xqc,tight)
 -----------------------------------

 ----------------------
 CCCCCCCCC=C[Li]_conf_0
 ----------------------
 Symbolic Z-matrix:
 Charge =  0 Multiplicity = 1

 SCF Done:  E(RB3LYP) =  -399.980367289     A.U. after   13 cycles
 SCF Done:  E(RB3LYP) =  -399.990334386     A.U. after   11 cycles
 SCF Done:  E(RB3LYP) =  -399.991781193     A.U. after   10 cycles
 SCF Done:  E(RB3LYP) =  -399.991851588     A.U. after    9 cycles
 SCF Done:  E(RB3LYP) =  -399.991856193     A.U. after    8 cycles
 SCF Done:  E(RB3LYP) =  -399.991858660     A.U. after    7 cycles
 SCF Done:  E(RB3LYP) =  -399.991863550     A.U. after    8 cycles
 SCF Done:  E(RB3LYP) =  -399.991867005     A.U. after    8 cycles
 SCF Done:  E(RB3LYP) =  -399.991867178     A.U. after    7 cycles
 Optimization completed.
    -- Stationary point found.
 Normal termination of Gaussian 09 at Sun Oct  3 01:01:38 2021.

 ----------------------------------------------------------------------
 #p freq b3lyp/6-31G* volume NMR pop=NPA density=current Geom=AllCheck
 Guess=Read
 ----------------------------------------------------------------------

 CCCCCCCCC=C[Li]_conf_0
 ----------------------
 Redundant internal coordinates taken from checkpoint file:
 C10H19Li_a9eb_conf_0.chk
 Charge =  0 Multiplicity = 1

 SCF Done:  E(RB3LYP) =  -399.991867178     A.U. after    1 cycles

  1  C    Isotropic =   173.4189   Anisotropy =    24.1065

  2  C    Isotropic =   163.3452   Anisotropy =    20.1773

  3  C    Isotropic =   154.9028   Anisotropy =    32.9954

  4  C    Isotropic =   156.1061   Anisotropy =    31.3712

  5  C    Isotropic =   156.0249   Anisotropy =    31.4647

  6  C    Isotropic =   156.5455   Anisotropy =    30.3332

  7  C    Isotropic =   156.7760   Anisotropy =    28.3492

  8  C    Isotropic =   151.4537   Anisotropy =    41.4271

  9  C    Isotropic =    46.5456   Anisotropy =   118.9448

 10  C    Isotropic =    41.9259   Anisotropy =   199.4174

 11  Li   Isotropic =    91.0016   Anisotropy =    16.0182

 12  H    Isotropic =    31.1025   Anisotropy =     9.8476

 13  H    Isotropic =    31.2747   Anisotropy =     7.7940

 14  H    Isotropic =    31.2748   Anisotropy =     7.7939

 15  H    Isotropic =    30.7719   Anisotropy =     6.1586

 16  H    Isotropic =    30.7720   Anisotropy =     6.1590

 17  H    Isotropic =    30.8238   Anisotropy =     4.3192

 18  H    Isotropic =    30.8239   Anisotropy =     4.3196

 19  H    Isotropic =    30.8351   Anisotropy =     4.2936

 20  H    Isotropic =    30.8351   Anisotropy =     4.2943

 21  H    Isotropic =    30.8406   Anisotropy =     4.2355

 22  H    Isotropic =    30.8407   Anisotropy =     4.2365

 23  H    Isotropic =    30.9628   Anisotropy =     4.5234

 24  H    Isotropic =    30.9628   Anisotropy =     4.5257

 25  H    Isotropic =    30.8190   Anisotropy =     5.0102

 26  H    Isotropic =    30.8189   Anisotropy =     5.0149

 27  H    Isotropic =    30.1925   Anisotropy =     5.1297

 28  H    Isotropic =    30.1939   Anisotropy =     5.1342

 29  H    Isotropic =    25.8376   Anisotropy =     6.7535

 30  H    Isotropic =    25.8800   Anisotropy =     6.3091

  Exact polarizability: 191.405  -5.213 108.114   0.001  -0.018 101.709
 Approx polarizability: 195.561   0.225 156.594  -0.036  -0.015 147.541

 ******    1 imaginary frequencies (negative Signs) ******

                     1                      2                      3
                     A                      A                      A
 Frequencies --  -108.7900                35.3789                44.4369
 Red. masses --     1.9348                 3.6520                 4.3499
 Frc consts  --     0.0135                 0.0027                 0.0051
 IR Inten    --     5.5523                 2.6143                 7.8797

                     4                      5                      6
                     A                      A                      A
 Frequencies --    60.5248                89.9644                93.0002
 Red. masses --     2.1565                 2.0931                 5.0930
 Frc consts  --     0.0047                 0.0100                 0.0260
 IR Inten    --    14.2837                 4.8207                51.9712

                     7                      8                      9
                     A                      A                      A
 Frequencies --   113.3340               145.4744               150.8365
 Red. masses --     2.3477                 1.9350                 3.8635
 Frc consts  --     0.0178                 0.0241                 0.0518
 IR Inten    --    13.5960                18.9128                27.2211

                    10                     11                     12
                     A                      A                      A
 Frequencies --   163.1831               180.5664               222.0604
 Red. masses --     2.2780                 2.2912                 4.7191
 Frc consts  --     0.0357                 0.0440                 0.1371
 IR Inten    --     6.0125                32.3691                 5.3388

                    13                     14                     15
                     A                      A                      A
 Frequencies --   246.7882               258.0576               378.4798
 Red. masses --     1.1320                 3.2766                 3.0293
 Frc consts  --     0.0406                 0.1286                 0.2557
 IR Inten    --     0.0019                11.2218                 9.0702

                    16                     17                     18
                     A                      A                      A
 Frequencies --   403.1107               485.4490               505.7959
 Red. masses --     3.9132                 2.9226                 3.2490
 Frc consts  --     0.3747                 0.4058                 0.4897
 IR Inten    --     1.4649                 3.7349                 2.6135

                    19                     20                     21
                     A                      A                      A
 Frequencies --   640.0287               703.1740               739.9161
 Red. masses --     1.4874                 4.4688                 1.0596
 Frc consts  --     0.3590                 1.3019                 0.3418
 IR Inten    --     1.3036                48.9956                 5.3108

                    22                     23                     24
                     A                      A                      A
 Frequencies --   743.1446               763.2374               809.4105
 Red. masses --     1.0881                 1.1554                 1.2277
 Frc consts  --     0.3540                 0.3966                 0.4739
 IR Inten    --     0.0430                 1.3154                 0.0613

                    25                     26                     27
                     A                      A                      A
 Frequencies --   879.9912               903.6010               962.1888
 Red. masses --     1.2630                 1.9812                 1.2490
 Frc consts  --     0.5762                 0.9531                 0.6813
 IR Inten    --     0.1410                 1.6409                 0.4481

                    28                     29                     30
                     A                      A                      A
 Frequencies --   986.8093              1000.9710              1032.0806
 Red. masses --     4.3354                 4.1460                 3.5166
 Frc consts  --     2.4874                 2.4475                 2.2070
 IR Inten    --     5.1989                 0.7260                 1.5032

                    31                     32                     33
                     A                      A                      A
 Frequencies --  1040.0430              1049.8608              1059.6033
 Red. masses --     1.1637                 1.0781                 2.6903
 Frc consts  --     0.7417                 0.7001                 1.7797
 IR Inten    --     0.4078                16.1207                 2.2709

                    34                     35                     36
                     A                      A                      A
 Frequencies --  1068.2131              1073.3518              1076.8114
 Red. masses --     2.6047                 2.1700                 2.3163
 Frc consts  --     1.7512                 1.4730                 1.5824
 IR Inten    --     1.5601                 0.2351                 2.6857

                    37                     38                     39
                     A                      A                      A
 Frequencies --  1128.9912              1143.1485              1194.6023
 Red. masses --     1.2903                 2.1350                 1.4746
 Frc consts  --     0.9690                 1.6438                 1.2399
 IR Inten    --     0.1565                 1.0752                15.6392

                    40                     41                     42
                     A                      A                      A
 Frequencies --  1229.4091              1251.0456              1268.7512
 Red. masses --     1.7632                 1.3090                 1.4239
 Frc consts  --     1.5702                 1.2071                 1.3504
 IR Inten    --     0.0137                12.3114                 0.0070

                    43                     44                     45
                     A                      A                      A
 Frequencies --  1291.3260              1309.3136              1334.3013
 Red. masses --     1.3082                 1.2615                 1.3296
 Frc consts  --     1.2853                 1.2742                 1.3947
 IR Inten    --     2.8170                 0.0201                 8.6794

                    46                     47                     48
                     A                      A                      A
 Frequencies --  1336.7912              1341.3999              1353.2108
 Red. masses --     1.1286                 1.0483                 1.0881
 Frc consts  --     1.1882                 1.1113                 1.1739
 IR Inten    --     0.6096                 0.0470                 0.1688

                    49                     50                     51
                     A                      A                      A
 Frequencies --  1355.5284              1364.8225              1378.2754
 Red. masses --     1.1036                 1.2200                 1.4049
 Frc consts  --     1.1947                 1.3389                 1.5724
 IR Inten    --     0.0662                 4.1491                 2.5015

                    52                     53                     54
                     A                      A                      A
 Frequencies --  1408.2571              1423.8842              1425.9829
 Red. masses --     1.5092                 1.6113                 1.6496
 Frc consts  --     1.7635                 1.9247                 1.9763
 IR Inten    --     3.3599                 0.0654                 0.3158

                    55                     56                     57
                     A                      A                      A
 Frequencies --  1441.0428              1504.7539              1514.5438
 Red. masses --     1.2508                 1.0789                 1.0743
 Frc consts  --     1.5304                 1.4393                 1.4519
 IR Inten    --     0.9904                 0.7793                 0.0833

                    58                     59                     60
                     A                      A                      A
 Frequencies --  1515.9410              1518.1479              1524.2342
 Red. masses --     1.0755                 1.0711                 1.0784
 Frc consts  --     1.4562                 1.4545                 1.4761
 IR Inten    --     0.0715                 0.3046                 0.0504

                    61                     62                     63
                     A                      A                      A
 Frequencies --  1529.4277              1532.7302              1540.5220
 Red. masses --     1.0411                 1.0846                 1.0909
 Frc consts  --     1.4348                 1.5013                 1.5253
 IR Inten    --     5.5777                 1.0304                 0.0687

                    64                     65                     66
                     A                      A                      A
 Frequencies --  1546.0564              1605.6847              2980.3319
 Red. masses --     1.0964                 6.5154                 1.0824
 Frc consts  --     1.5441                 9.8972                 5.6647
 IR Inten    --     3.5627                45.7509                57.1058

                    67                     68                     69
                     A                      A                      A
 Frequencies --  3003.6203              3007.1504              3009.7586
 Red. masses --     1.0587                 1.0610                 1.0586
 Frc consts  --     5.6275                 5.6529                 5.6499
 IR Inten    --    14.3038                 1.3391                 3.6617

                    70                     71                     72
                     A                      A                      A
 Frequencies --  3011.7566              3014.3694              3020.2099
 Red. masses --     1.0592                 1.0622                 1.0699
 Frc consts  --     5.6606                 5.6864                 5.7503
 IR Inten    --     0.0319                 1.6291                 4.9056

                    73                     74                     75
                     A                      A                      A
 Frequencies --  3022.8948              3024.7658              3028.9185
 Red. masses --     1.1002                 1.0676                 1.0605
 Frc consts  --     5.9235                 5.7549                 5.7323
 IR Inten    --     2.9648                84.3165               183.3477

                    76                     77                     78
                     A                      A                      A
 Frequencies --  3029.6757              3032.7284              3040.4937
 Red. masses --     1.0994                 1.1013                 1.0358
 Frc consts  --     5.9457                 5.9679                 5.6418
 IR Inten    --     0.6134                 0.8635                46.0275

                    79                     80                     81
                     A                      A                      A
 Frequencies --  3041.0129              3052.6668              3064.2807
 Red. masses --     1.1038                 1.1054                 1.1058
 Frc consts  --     6.0143                 6.0689                 6.1178
 IR Inten    --     4.4600                11.0514                 5.7971

                    82                     83                     84
                     A                      A                      A
 Frequencies --  3074.3677              3105.0823              3108.9295
 Red. masses --     1.1055                 1.1028                 1.1019
 Frc consts  --     6.1562                 6.2645                 6.2748
 IR Inten    --   193.5142                72.5198                47.4523

 - Thermochemistry -
 -------------------
 Temperature   298.150 Kelvin.  Pressure   1.00000 Atm.
 Atom     1 has atomic number  6 and mass  12.00000

 Molecular mass:   146.16468 amu.
 Principal axes and moments of inertia in atomic units:
                           1         2         3
     Eigenvalues --   221.029988104.643708236.73171
           X            0.99997   0.00825   0.00000
           Y           -0.00825   0.99997  -0.00010
           Z           -0.00000   0.00010   1.00000
 This molecule is an asymmetric top.
 Rotational symmetry number  1.
 Rotational temperatures (Kelvin)      0.39186     0.01069     0.01052
 Rotational constants (GHZ):           8.16514     0.22268     0.21911
    1 imaginary frequencies ignored.
 Zero-point vibrational energy     706359.1 (Joules/Mol)
                                  168.82387 (Kcal/Mol)
 Warning -- explicit consideration of  17 degrees of freedom as
           vibrations may cause significant error
 Vibrational temperatures:     50.90    63.93    87.08   129.44   133.81
          (Kelvin)            163.06   209.30   217.02   234.78   259.79
                              319.50   355.07   371.29   544.55   579.99
                              698.45   727.73   920.86  1011.71  1064.57
                             1069.22  1098.13  1164.56  1266.11  1300.08
                             1384.37  1419.80  1440.17  1484.93  1496.39
                             1510.51  1524.53  1536.92  1544.31  1549.29
                             1624.36  1644.73  1718.76  1768.84  1799.97
                             1825.45  1857.93  1883.81  1919.76  1923.34
                             1929.97  1946.97  1950.30  1963.67  1983.03
                             2026.17  2048.65  2051.67  2073.34  2165.00
                             2179.09  2181.10  2184.27  2193.03  2200.50
                             2205.25  2216.46  2224.43  2310.22  4288.03
                             4321.53  4326.61  4330.37  4333.24  4337.00
                             4345.40  4349.27  4351.96  4357.93  4359.02
                             4363.41  4374.59  4375.33  4392.10  4408.81
                             4423.32  4467.52  4473.05

 Zero-point correction=                           0.269038 (Hartree/Particle)
 Thermal correction to Energy=                    0.283003
 Thermal correction to Enthalpy=                  0.283947
 Thermal correction to Gibbs Free Energy=         0.227074
 Sum of electronic and zero-point Energies=           -399.722829
 Sum of electronic and thermal Energies=              -399.708865
 Sum of electronic and thermal Enthalpies=            -399.707920
 Sum of electronic and thermal Free Energies=         -399.764793

                     E (Thermal)             CV                S
                      KCal/Mol        Cal/Mol-Kelvin    Cal/Mol-Kelvin
 Total                  177.587             48.665            119.698
 Electronic               0.000              0.000              0.000
 Translational            0.889              2.981             40.849
 Rotational               0.889              2.981             31.068
 Vibrational            175.809             42.703             47.781
 Vibration     1          0.594              1.982              5.502
 Vibration     2          0.595              1.980              5.051
 Vibration     3          0.597              1.973              4.440
 Vibration     4          0.602              1.956              3.661
 Vibration     5          0.602              1.954              3.596
 Vibration     6          0.607              1.938              3.211
 Vibration     7          0.617              1.908              2.731
 Vibration     8          0.618              1.902              2.662
 Vibration     9          0.623              1.888              2.513
 Vibration    10          0.630              1.866              2.323
 Vibration    11          0.648              1.807              1.942
 Vibration    12          0.661              1.768              1.753
 Vibration    13          0.667              1.749              1.675
 Vibration    14          0.749              1.516              1.045
 Vibration    15          0.769              1.463              0.951
 Vibration    16          0.842              1.282              0.696
 Vibration    17          0.861              1.237              0.644

 Normal termination of Gaussian 09 at Sun Oct  3 02:01:15 2021.
 Gaussian 09:  AM64L-G09RevA.02 11-Jun-2009

 ----------------------------------------------------------------------
 #p TD(NStates=10, Root=1) b3lyp/6-31G* volume pop=NPA density=current
 Geom=AllCheck Guess=Read
 ----------------------------------------------------------------------

 CCCCCCCCC=C[Li]_conf_0
 ----------------------
 Redundant internal coordinates taken from checkpoint file:
 C10H19Li_a9eb_conf_0.chk
 Charge =  0 Multiplicity = 1

                         Standard orientation:
 ---------------------------------------------------------------------
 Center     Atomic      Atomic             Coordinates (Angstroms)
 Number     Number       Type             X           Y           Z
 ---------------------------------------------------------------------
      1          6           0       -5.822871   -0.411498   -0.000327
      2          6           0       -4.554330    0.447830   -0.000056
      3          6           0       -3.262111   -0.379173   -0.000137
      4          6           0       -1.986195    0.472550    0.000121
      5          6           0       -0.694208   -0.354968    0.000052
      6          6           0        0.582164    0.496553    0.000299
      7          6           0        1.874133   -0.329245    0.000236
      8          6           0        3.152197    0.520549    0.000486
      9          6           0        4.438735   -0.299642    0.000451
     10          6           0        5.702240    0.177420   -0.000956
     11          3           0        7.227099   -1.035172   -0.000588
     12          1           0       -6.727609    0.207424   -0.000255
     13          1           0       -5.862468   -1.059491    0.884104
     14          1           0       -5.862349   -1.059110   -0.885042
     15          1           0       -4.560274    1.109377    0.878025
     16          1           0       -4.560150    1.109744   -0.877861
     17          1           0       -3.256948   -1.041848   -0.878678
     18          1           0       -3.257067   -1.042205    0.878134
     19          1           0       -1.992607    1.135091    0.878587
     20          1           0       -1.992482    1.135436   -0.878084
     21          1           0       -0.688217   -1.017561   -0.878441
     22          1           0       -0.688335   -1.017894    0.878296
     23          1           0        0.575507    1.159492    0.878596
     24          1           0        0.575626    1.159817   -0.877753
     25          1           0        1.881591   -0.992276   -0.878175
     26          1           0        1.881460   -0.992598    0.878406
     27          1           0        3.140044    1.186812    0.876840
     28          1           0        3.140233    1.187136   -0.875612
     29          1           0        4.260068   -1.384739    0.001839
     30          1           0        5.734155    1.280660   -0.002174
 ---------------------------------------------------------------------

 SCF Done:  E(RB3LYP) =  -399.991867178     A.U. after    1 cycles

 Excitation energies and oscillator strengths:

 Excited State   1:      Singlet-A      3.0093 eV  412.01 nm  f=0.0884  <S**2>=0.000
      41 -> 42         0.70394
 This state for optimization and/or second-order correction.
 Total Energy, E(TD-HF/TD-KS) =  -399.881278139
 Copying the excited state density for this state as the 1-particle RhoCI density.

 Excited State   2:      Singlet-A      3.1510 eV  393.48 nm  f=0.0178  <S**2>=0.000
      40 -> 42         0.70518

 Excited State   3:      Singlet-A      4.2049 eV  294.86 nm  f=0.0594  <S**2>=0.000
      41 -> 43         0.70367

 Excited State   4:      Singlet-A      4.2836 eV  289.44 nm  f=0.0433  <S**2>=0.000
      40 -> 43        -0.10949
      41 -> 44         0.69702

 Excited State   5:      Singlet-A      4.6252 eV  268.06 nm  f=0.0019  <S**2>=0.000
      40 -> 44         0.70426

 Excited State   6:      Singlet-A      4.8681 eV  254.69 nm  f=0.2611  <S**2>=0.000
      40 -> 43         0.69009
      41 -> 44         0.10660

 Excited State   7:      Singlet-A      5.7210 eV  216.72 nm  f=0.0152  <S**2>=0.000
      41 -> 45         0.70179

 Excited State   8:      Singlet-A      5.7774 eV  214.60 nm  f=0.0009  <S**2>=0.000
      41 -> 46         0.69626

 Excited State   9:      Singlet-A      6.0074 eV  206.39 nm  f=0.0515  <S**2>=0.000
      40 -> 45         0.70255

 Excited State  10:      Singlet-A      6.0848 eV  203.76 nm  f=0.0132  <S**2>=0.000
      35 -> 42         0.11130
      38 -> 42         0.17214
      39 -> 42         0.66871

 The electronic state is 1-A.
 Alpha  occ. eigenvalues --  -10.17079 -10.16746 -10.16589 -10.16573 -10.16391
 Alpha  occ. eigenvalues --  -10.16076 -10.15658 -10.14871 -10.13865 -10.09734
 Alpha  occ. eigenvalues --   -1.99008  -0.79512  -0.77278  -0.74165  -0.70377
 Alpha  occ. eigenvalues --   -0.66171  -0.61517  -0.57303  -0.56296  -0.55372
 Alpha  occ. eigenvalues --   -0.48926  -0.46882  -0.44655  -0.41869  -0.41549
 Alpha  occ. eigenvalues --   -0.40082  -0.38768  -0.37913  -0.36616  -0.34449
 Alpha  occ. eigenvalues --   -0.34416  -0.33832  -0.31976  -0.31887  -0.31069
 Alpha  occ. eigenvalues --   -0.30993  -0.30373  -0.30267  -0.28572  -0.19353
 Alpha  occ. eigenvalues --   -0.18358
 Alpha virt. eigenvalues --   -0.04513   0.00588   0.00974   0.06076   0.07516
 Alpha virt. eigenvalues --    0.09903   0.10954   0.11702   0.12349   0.12503
 Alpha virt. eigenvalues --    0.13301   0.13684   0.13934   0.15750   0.16190

 Mulliken atomic charges:
              1
     1  C   -0.441845
     2  C   -0.247602
     3  C   -0.246866
     4  C   -0.254068
     5  C   -0.255488
     6  C   -0.259702
     7  C   -0.273874
     8  C   -0.299040
     9  C   -0.082265
    10  C   -0.328341
    11  Li  -0.047984
    12  H    0.143539
    13  H    0.142282
    14  H    0.142282
    15  H    0.130899
    16  H    0.130899
    17  H    0.128383
    18  H    0.128383
    19  H    0.129111
    20  H    0.129112
    21  H    0.132495
    22  H    0.132492
    23  H    0.134010
    24  H    0.134015
    25  H    0.146657
    26  H    0.146628
    27  H    0.172375
    28  H    0.172320
    29  H    0.180190
    30  H    0.181003
 Sum of Mulliken atomic charges =  -0.00000

 Dipole moment (field-independent basis, Debye):
    X=             -6.4243    Y=              3.8103    Z=              0.0010  Tot=              7.4693
 Quadrupole moment (field-independent basis, Debye-Ang):
   XX=           -146.8584   YY=            -79.6867   ZZ=            -73.0792
   XY=             31.5805   XZ=              0.0048   YZ=             -0.0057

 Summary of Natural Population Analysis:

                                       Natural Population
                Natural  -----------------------------------------------
    Atom  No    Charge         Core      Valence    Rydberg      Total
 -----------------------------------------------------------------------
      C    1   -0.67321      1.99947     4.66627    0.00748     6.67321
      C    2   -0.45205      1.99935     4.44280    0.00990     6.45205
      C    3   -0.45200      1.99933     4.44157    0.01109     6.45200
      C    4   -0.44920      1.99933     4.43884    0.01103     6.44920
      C    5   -0.44838      1.99933     4.43793    0.01112     6.44838
      C    6   -0.44976      1.99933     4.43944    0.01099     6.44976
      C    7   -0.45007      1.99933     4.43989    0.01085     6.45007
      C    8   -0.47366      1.99923     4.46327    0.01115     6.47366
      C    9   -0.27986      1.99922     4.26613    0.01451     6.27986
      C   10   -0.37971      1.99877     4.35987    0.02108     6.37971
     Li   11    0.11748      1.99589     0.88429    0.00234     2.88252
      H   12    0.23258      0.00000     0.76661    0.00080     0.76742
      H   13    0.22461      0.00000     0.77431    0.00108     0.77539
      H   14    0.22461      0.00000     0.77431    0.00108     0.77539
      H   15    0.22619      0.00000     0.77218    0.00163     0.77381
      H   16    0.22619      0.00000     0.77218    0.00163     0.77381
      H   17    0.22492      0.00000     0.77333    0.00174     0.77508
      H   18    0.22492      0.00000     0.77334    0.00174     0.77508
      H   19    0.22545      0.00000     0.77284    0.00171     0.77455
      H   20    0.22545      0.00000     0.77284    0.00171     0.77455
      H   21    0.22742      0.00000     0.77091    0.00167     0.77258
      H   22    0.22741      0.00000     0.77091    0.00167     0.77259
      H   23    0.22805      0.00000     0.77027    0.00168     0.77195
      H   24    0.22805      0.00000     0.77027    0.00168     0.77195
      H   25    0.23363      0.00000     0.76478    0.00159     0.76637
      H   26    0.23361      0.00000     0.76480    0.00159     0.76639
      H   27    0.25464      0.00000     0.74412    0.00124     0.74536
      H   28    0.25459      0.00000     0.74417    0.00124     0.74541
      H   29    0.24698      0.00000     0.75292    0.00010     0.75302
      H   30    0.21541      0.00000     0.78459    0.00000     0.78459
 =======================================================================
   * Total *   -0.00570     21.98860    59.86995    0.14715    82.00570

 Normal termination of Gaussian 09 at Sun Oct  3 05:59:47 2021.
