 Gaussian 09, Revision A.02,

 -----------------------------------
 #p opt b3lyp/6-31G* scf=(xqc,tight)
 -----------------------------------

 -----------------------
 CCP(CCP(CC)CC)CC_conf_0
 -----------------------
 Symbolic Z-matrix:
 Charge =  0 Multiplicity = 1

 SCF Done:  E(RB3LYP) =  -1078.22008102     A.U. after   13 cycles
 SCF Done:  E(RB3LYP) =  -1078.22726979     A.U. after   12 cycles
 SCF Done:  E(RB3LYP) =  -1078.22841794     A.U. after   12 cycles
 SCF Done:  E(RB3LYP) =  -1078.22901629     A.U. after   11 cycles
 SCF Done:  E(RB3LYP) =  -1078.22915507     A.U. after   10 cycles
 SCF Done:  E(RB3LYP) =  -1078.22918838     A.U. after   10 cycles
 SCF Done:  E(RB3LYP) =  -1078.22920804     A.U. after   10 cycles
 SCF Done:  E(RB3LYP) =  -1078.22922189     A.U. after   10 cycles
 SCF Done:  E(RB3LYP) =  -1078.22923724     A.U. after   10 cycles
 SCF Done:  E(RB3LYP) =  -1078.22924439     A.U. after   10 cycles
 SCF Done:  E(RB3LYP) =  -1078.22926825     A.U. after    9 cycles
 SCF Done:  E(RB3LYP) =  -1078.22918245     A.U. after   11 cycles
 SCF Done:  E(RB3LYP) =  -1078.22927190     A.U. after   10 cycles
 SCF Done:  E(RB3LYP) =  -1078.22927985     A.U. after   10 cycles
 SCF Done:  E(RB3LYP) =  -1078.22928117     A.U. after    8 cycles
 SCF Done:  E(RB3LYP) =  -1078.22928183     A.U. after    7 cycles
 SCF Done:  E(RB3LYP) =  -1078.22928231     A.U. after    7 cycles
 SCF Done:  E(RB3LYP) =  -1078.22928235     A.U. after    6 cycles
 Optimization completed.
    -- Stationary point found.
 Normal termination of Gaussian 09 at Fri Oct  1 22:26:01 2021.

 ----------------------------------------------------------------------
 #p freq b3lyp/6-31G* volume NMR pop=NPA density=current Geom=AllCheck
 Guess=Read
 ----------------------------------------------------------------------

 CCP(CCP(CC)CC)CC_conf_0
 -----------------------
 Redundant internal coordinates taken from checkpoint file:
 C10H24P2_3a24_conf_0.chk
 Charge =  0 Multiplicity = 1

 SCF Done:  E(RB3LYP) =  -1078.22928235     A.U. after    1 cycles

  1  C    Isotropic =   176.4315   Anisotropy =    15.8714

  2  C    Isotropic =   168.0912   Anisotropy =    17.0845

  3  P    Isotropic =   390.1508   Anisotropy =    33.3073

  4  C    Isotropic =   164.1412   Anisotropy =    27.2304

  5  C    Isotropic =   162.5357   Anisotropy =    26.3593

  6  P    Isotropic =   386.9469   Anisotropy =    27.3968

  7  C    Isotropic =   159.6755   Anisotropy =    24.1291

  8  C    Isotropic =   176.2631   Anisotropy =    19.5829

  9  C    Isotropic =   162.5805   Anisotropy =    23.0549

 10  C    Isotropic =   174.0003   Anisotropy =    22.9668

 11  C    Isotropic =   173.6054   Anisotropy =    14.7862

 12  C    Isotropic =   177.8870   Anisotropy =    17.9906

 13  H    Isotropic =    31.0280   Anisotropy =    11.0038

 14  H    Isotropic =    31.0640   Anisotropy =     6.8991

 15  H    Isotropic =    31.0627   Anisotropy =     7.0031

 16  H    Isotropic =    30.6848   Anisotropy =     7.2669

 17  H    Isotropic =    30.4448   Anisotropy =    10.0243

 18  H    Isotropic =    30.5678   Anisotropy =     7.5323

 19  H    Isotropic =    30.6746   Anisotropy =     5.7690

 20  H    Isotropic =    30.6017   Anisotropy =     7.0366

 21  H    Isotropic =    30.8818   Anisotropy =     7.5096

 22  H    Isotropic =    30.7428   Anisotropy =     5.0362

 23  H    Isotropic =    30.7163   Anisotropy =     7.5021

 24  H    Isotropic =    31.0419   Anisotropy =     7.1549

 25  H    Isotropic =    30.8935   Anisotropy =    11.0700

 26  H    Isotropic =    30.9549   Anisotropy =     8.3752

 27  H    Isotropic =    30.7428   Anisotropy =     7.2315

 28  H    Isotropic =    30.8580   Anisotropy =     5.0958

 29  H    Isotropic =    30.9072   Anisotropy =     8.3848

 30  H    Isotropic =    30.8816   Anisotropy =    10.8141

 31  H    Isotropic =    31.0386   Anisotropy =     7.6877

 32  H    Isotropic =    31.0002   Anisotropy =     9.5095

 33  H    Isotropic =    30.1335   Anisotropy =     4.6958

 34  H    Isotropic =    31.0725   Anisotropy =     9.4470

 35  H    Isotropic =    30.9119   Anisotropy =    10.6945

 36  H    Isotropic =    31.2847   Anisotropy =     7.5041

  Exact polarizability: 181.861  -2.380 155.490  -1.183   1.222 128.888
 Approx polarizability: 227.507  -2.853 220.516   0.335   2.983 201.173

                     1                      2                      3
                     A                      A                      A
 Frequencies --    23.9820                38.3495                53.0796
 Red. masses --     3.1985                 2.9181                 2.0310
 Frc consts  --     0.0011                 0.0025                 0.0034
 IR Inten    --     0.0774                 0.1347                 0.1411

                     4                      5                      6
                     A                      A                      A
 Frequencies --    67.0134                76.5931                93.2490
 Red. masses --     3.0160                 1.9383                 2.3278
 Frc consts  --     0.0080                 0.0067                 0.0119
 IR Inten    --     0.0192                 0.0944                 0.1166

                     7                      8                      9
                     A                      A                      A
 Frequencies --    94.3306               126.7138               154.1886
 Red. masses --     2.4888                 2.3087                 2.2280
 Frc consts  --     0.0130                 0.0218                 0.0312
 IR Inten    --     0.0945                 0.0808                 0.0941

                    10                     11                     12
                     A                      A                      A
 Frequencies --   166.7594               179.4153               198.0640
 Red. masses --     2.5557                 1.7868                 1.4358
 Frc consts  --     0.0419                 0.0339                 0.0332
 IR Inten    --     0.1188                 0.1898                 0.0942

                    13                     14                     15
                     A                      A                      A
 Frequencies --   215.2114               218.3146               229.7231
 Red. masses --     1.6526                 1.4712                 1.4642
 Frc consts  --     0.0451                 0.0413                 0.0455
 IR Inten    --     0.0654                 0.1263                 0.2203

                    16                     17                     18
                     A                      A                      A
 Frequencies --   254.8258               269.0896               278.8572
 Red. masses --     1.9160                 1.8630                 2.2639
 Frc consts  --     0.0733                 0.0795                 0.1037
 IR Inten    --     0.3933                 0.5689                 0.0506

                    19                     20                     21
                     A                      A                      A
 Frequencies --   293.7078               317.7754               335.7794
 Red. masses --     2.5417                 2.0777                 2.7751
 Frc consts  --     0.1292                 0.1236                 0.1844
 IR Inten    --     0.6225                 0.4215                 0.1930

                    22                     23                     24
                     A                      A                      A
 Frequencies --   385.7142               427.8394               595.4937
 Red. masses --     3.6395                 3.9903                 3.8931
 Frc consts  --     0.3190                 0.4303                 0.8134
 IR Inten    --     0.5395                 1.0991                 1.8162

                    25                     26                     27
                     A                      A                      A
 Frequencies --   615.7962               650.4504               661.3314
 Red. masses --     3.2843                 3.2919                 3.4308
 Frc consts  --     0.7338                 0.8206                 0.8841
 IR Inten    --     0.9291                 6.8957                 6.5066

                    28                     29                     30
                     A                      A                      A
 Frequencies --   677.2996               694.8538               727.7539
 Red. masses --     3.9603                 1.3691                 1.1861
 Frc consts  --     1.0704                 0.3895                 0.3701
 IR Inten    --    10.7661                10.2655                 1.4416

                    31                     32                     33
                     A                      A                      A
 Frequencies --   740.5701               755.3043               775.1510
 Red. masses --     1.9237                 2.0023                 1.3135
 Frc consts  --     0.6216                 0.6730                 0.4650
 IR Inten    --    16.7220                11.5103                14.1264

                    34                     35                     36
                     A                      A                      A
 Frequencies --   784.5204               903.1079               990.2945
 Red. masses --     1.2575                 1.4940                 1.1930
 Frc consts  --     0.4560                 0.7179                 0.6893
 IR Inten    --    20.5290                 3.1935                 2.2834

                    37                     38                     39
                     A                      A                      A
 Frequencies --   991.5610               996.3904               998.5275
 Red. masses --     1.5926                 1.8053                 1.7553
 Frc consts  --     0.9225                 1.0560                 1.0311
 IR Inten    --     0.0683                 0.1842                 0.3101

                    40                     41                     42
                     A                      A                      A
 Frequencies --  1000.0744              1014.1421              1021.2843
 Red. masses --     1.7287                 2.1549                 1.3836
 Frc consts  --     1.0186                 1.3058                 0.8502
 IR Inten    --     0.3793                 3.9381                 3.8944

                    43                     44                     45
                     A                      A                      A
 Frequencies --  1032.3820              1051.4627              1056.8298
 Red. masses --     1.8198                 1.6294                 1.3979
 Frc consts  --     1.1428                 1.0614                 0.9199
 IR Inten    --     3.5981                 1.2988                 5.0402

                    46                     47                     48
                     A                      A                      A
 Frequencies --  1066.1338              1070.1681              1076.6131
 Red. masses --     1.8696                 2.0056                 1.9701
 Frc consts  --     1.2521                 1.3533                 1.3454
 IR Inten    --     2.6242                16.8299                17.6662

                    49                     50                     51
                     A                      A                      A
 Frequencies --  1141.6691              1221.8832              1282.8863
 Red. masses --     1.0931                 1.2258                 1.2759
 Frc consts  --     0.8395                 1.0783                 1.2372
 IR Inten    --    12.7861                 3.6831                 4.0437

                    52                     53                     54
                     A                      A                      A
 Frequencies --  1285.3066              1290.2970              1291.9424
 Red. masses --     1.2329                 1.3321                 1.2671
 Frc consts  --     1.2000                 1.3067                 1.2461
 IR Inten    --     0.4657                 3.8592                 4.0044

                    55                     56                     57
                     A                      A                      A
 Frequencies --  1292.8496              1301.5621              1308.9830
 Red. masses --     1.2290                 1.3554                 1.3327
 Frc consts  --     1.2103                 1.3529                 1.3454
 IR Inten    --     4.0099                 3.1282                 0.9479

                    58                     59                     60
                     A                      A                      A
 Frequencies --  1317.3997              1326.4666              1332.5019
 Red. masses --     1.3150                 1.1839                 1.2766
 Frc consts  --     1.3447                 1.2273                 1.3354
 IR Inten    --     3.7880                 0.2825                 1.1699

                    61                     62                     63
                     A                      A                      A
 Frequencies --  1438.9490              1440.0173              1441.7805
 Red. masses --     1.2141                 1.2105                 1.2109
 Frc consts  --     1.4811                 1.4789                 1.4831
 IR Inten    --     0.0733                 0.7519                 1.9302

                    64                     65                     66
                     A                      A                      A
 Frequencies --  1445.3058              1485.5553              1488.6822
 Red. masses --     1.2098                 1.0828                 1.0843
 Frc consts  --     1.4890                 1.4080                 1.4158
 IR Inten    --     1.5610                 1.1710                 4.7750

                    67                     68                     69
                     A                      A                      A
 Frequencies --  1495.1805              1496.4479              1499.7183
 Red. masses --     1.0875                 1.0786                 1.0834
 Frc consts  --     1.4324                 1.4231                 1.4357
 IR Inten    --     2.0247                 4.8621                 1.7388

                    70                     71                     72
                     A                      A                      A
 Frequencies --  1504.3787              1527.3529              1529.4312
 Red. masses --     1.0834                 1.0414                 1.0452
 Frc consts  --     1.4447                 1.4313                 1.4405
 IR Inten    --     9.7837                 4.1375                 4.0755

                    73                     74                     75
                     A                      A                      A
 Frequencies --  1529.6313              1533.2251              1534.4303
 Red. masses --     1.0438                 1.0454                 1.0434
 Frc consts  --     1.4390                 1.4479                 1.4474
 IR Inten    --     6.6459                 2.3313                 0.5148

                    76                     77                     78
                     A                      A                      A
 Frequencies --  1534.5989              1534.9939              1539.2823
 Red. masses --     1.0463                 1.0446                 1.0434
 Frc consts  --     1.4517                 1.4501                 1.4566
 IR Inten    --     2.8269                 0.4456                 7.9246

                    79                     80                     81
                     A                      A                      A
 Frequencies --  3023.5419              3025.4975              3033.1418
 Red. masses --     1.0603                 1.0612                 1.0612
 Frc consts  --     5.7108                 5.7234                 5.7519
 IR Inten    --    24.4624                13.6334                11.1772

                    82                     83                     84
                     A                      A                      A
 Frequencies --  3038.3413              3039.4328              3043.3944
 Red. masses --     1.0605                 1.0604                 1.0588
 Frc consts  --     5.7681                 5.7716                 5.7779
 IR Inten    --    24.9028                 7.9722                12.7332

                    85                     86                     87
                     A                      A                      A
 Frequencies --  3046.1146              3047.8061              3049.9245
 Red. masses --     1.0375                 1.0360                 1.0371
 Frc consts  --     5.6721                 5.6698                 5.6837
 IR Inten    --    33.6282                19.5814                71.6246

                    88                     89                     90
                     A                      A                      A
 Frequencies --  3050.6395              3068.8852              3071.2717
 Red. masses --     1.0425                 1.1022                 1.1010
 Frc consts  --     5.7160                 6.1163                 6.1190
 IR Inten    --    38.8591                 8.3447                17.9071

                    91                     92                     93
                     A                      A                      A
 Frequencies --  3073.8923              3075.1607              3084.0425
 Red. masses --     1.1011                 1.0999                 1.1016
 Frc consts  --     6.1300                 6.1281                 6.1733
 IR Inten    --     2.6344                 7.0668                 7.7478

                    94                     95                     96
                     A                      A                      A
 Frequencies --  3096.6417              3107.0437              3108.8809
 Red. masses --     1.1013                 1.1022                 1.1016
 Frc consts  --     6.2222                 6.2689                 6.2730
 IR Inten    --    30.9453                34.0973                50.1349

                    97                     98                     99
                     A                      A                      A
 Frequencies --  3109.3462              3111.6077              3119.1899
 Red. masses --     1.0972                 1.1007                 1.1027
 Frc consts  --     6.2500                 6.2789                 6.3213
 IR Inten    --    27.9789                30.5705                36.3419

                   100                    101                    102
                     A                      A                      A
 Frequencies --  3122.0693              3127.8760              3139.1869
 Red. masses --     1.1029                 1.1018                 1.1001
 Frc consts  --     6.3338                 6.3510                 6.3874
 IR Inten    --    23.3914                32.8208                36.4594

 - Thermochemistry -
 -------------------
 Temperature   298.150 Kelvin.  Pressure   1.00000 Atm.
 Atom     1 has atomic number  6 and mass  12.00000

 Molecular mass:   206.13533 amu.
 Principal axes and moments of inertia in atomic units:
                           1         2         3
     Eigenvalues --  1876.219395643.002416594.51608
           X            0.99993  -0.01109   0.00411
           Y            0.01110   0.99994  -0.00155
           Z           -0.00409   0.00159   0.99999
 This molecule is an asymmetric top.
 Rotational symmetry number  1.
 Warning -- assumption of classical behavior for rotation
           may cause significant error
 Rotational temperatures (Kelvin)      0.04616     0.01535     0.01313
 Rotational constants (GHZ):           0.96190     0.31982     0.27367
 Zero-point vibrational energy     853246.7 (Joules/Mol)
                                  203.93086 (Kcal/Mol)
 Warning -- explicit consideration of  25 degrees of freedom as
           vibrations may cause significant error
 Vibrational temperatures:     34.50    55.18    76.37    96.42   110.20
          (Kelvin)            134.16   135.72   182.31   221.84   239.93
                              258.14   284.97   309.64   314.11   330.52
                              366.64   387.16   401.21   422.58   457.21
                              483.11   554.96   615.56   856.78   885.99
                              935.85   951.51   974.48   999.74  1047.07
                             1065.51  1086.71  1115.27  1128.75  1299.37
                             1424.81  1426.63  1433.58  1436.66  1438.88
                             1459.12  1469.40  1485.37  1512.82  1520.54
                             1533.93  1539.73  1549.00  1642.61  1758.02
                             1845.78  1849.27  1856.45  1858.81  1860.12
                             1872.66  1883.33  1895.44  1908.49  1917.17
                             2070.32  2071.86  2074.40  2079.47  2137.38
                             2141.88  2151.23  2153.05  2157.76  2164.46
                             2197.52  2200.51  2200.80  2205.97  2207.70
                             2207.94  2208.51  2214.68  4350.20  4353.01
                             4364.01  4371.49  4373.06  4378.76  4382.67
                             4385.11  4388.16  4389.18  4415.44  4418.87
                             4422.64  4424.46  4437.24  4455.37  4470.34
                             4472.98  4473.65  4476.90  4487.81  4491.96
                             4500.31  4516.58

 Zero-point correction=                           0.324985 (Hartree/Particle)
 Thermal correction to Energy=                    0.343343
 Thermal correction to Enthalpy=                  0.344287
 Thermal correction to Gibbs Free Energy=         0.277472
 Sum of electronic and zero-point Energies=          -1077.904298
 Sum of electronic and thermal Energies=             -1077.885940
 Sum of electronic and thermal Enthalpies=           -1077.884996
 Sum of electronic and thermal Free Energies=        -1077.951810

                     E (Thermal)             CV                S
                      KCal/Mol        Cal/Mol-Kelvin    Cal/Mol-Kelvin
 Total                  215.451             65.134            140.623
 Electronic               0.000              0.000              0.000
 Translational            0.889              2.981             41.874
 Rotational               0.889              2.981             32.612
 Vibrational            213.673             59.172             66.136
 Vibration     1          0.593              1.985              6.274
 Vibration     2          0.594              1.982              5.343
 Vibration     3          0.596              1.976              4.699
 Vibration     4          0.598              1.970              4.239
 Vibration     5          0.599              1.965              3.976
 Vibration     6          0.602              1.954              3.591
 Vibration     7          0.603              1.953              3.568
 Vibration     8          0.611              1.926              2.995
 Vibration     9          0.620              1.898              2.620
 Vibration    10          0.624              1.883              2.472
 Vibration    11          0.629              1.868              2.334
 Vibration    12          0.637              1.843              2.151
 Vibration    13          0.645              1.818              1.999
 Vibration    14          0.646              1.813              1.973
 Vibration    15          0.652              1.796              1.881
 Vibration    16          0.665              1.755              1.697
 Vibration    17          0.673              1.730              1.602
 Vibration    18          0.679              1.713              1.541
 Vibration    19          0.689              1.685              1.453
 Vibration    20          0.704              1.640              1.322
 Vibration    21          0.717              1.604              1.232
 Vibration    22          0.754              1.501              1.017
 Vibration    23          0.789              1.410              0.866
 Vibration    24          0.953              1.041              0.457
 Vibration    25          0.975              0.998              0.423

 Optimization completed.
    -- Stationary point found.
 Normal termination of Gaussian 09 at Fri Oct  1 23:49:30 2021.
 Gaussian 09:  AM64L-G09RevA.02 11-Jun-2009

 ----------------------------------------------------------------------
 #p TD(NStates=10, Root=1) b3lyp/6-31G* volume pop=NPA density=current
 Geom=AllCheck Guess=Read
 ----------------------------------------------------------------------

 CCP(CCP(CC)CC)CC_conf_0
 -----------------------
 Redundant internal coordinates taken from checkpoint file:
 C10H24P2_3a24_conf_0.chk
 Charge =  0 Multiplicity = 1

                         Standard orientation:
 ---------------------------------------------------------------------
 Center     Atomic      Atomic             Coordinates (Angstroms)
 Number     Number       Type             X           Y           Z
 ---------------------------------------------------------------------
      1          6           0        2.917117   -2.211202    0.693289
      2          6           0        3.173968   -1.433455   -0.605302
      3         15           0        2.652706    0.374273   -0.764983
      4          6           0        0.799644    0.278865   -1.094922
      5          6           0       -0.133549   -0.498489   -0.154331
      6         15           0       -1.949428   -0.329056   -0.634202
      7          6           0       -2.668613   -1.481060    0.666185
      8          6           0       -4.201265   -1.546589    0.673137
      9          6           0       -2.304681    1.357818    0.126412
     10          6           0       -3.590111    2.018951   -0.389955
     11          6           0        2.719477    0.971076    1.013220
     12          6           0        2.298968    2.440617    1.155562
     13          1           0        3.283692   -3.241230    0.598502
     14          1           0        1.854426   -2.260811    0.947571
     15          1           0        3.439117   -1.758512    1.542941
     16          1           0        2.708699   -1.950527   -1.455683
     17          1           0        4.250935   -1.441335   -0.816636
     18          1           0        0.704037   -0.113786   -2.115568
     19          1           0        0.482225    1.328044   -1.164374
     20          1           0        0.003769   -0.187635    0.890339
     21          1           0        0.097344   -1.569085   -0.201464
     22          1           0       -2.295321   -1.203511    1.662064
     23          1           0       -2.263608   -2.477436    0.444204
     24          1           0       -4.645637   -0.590040    0.968711
     25          1           0       -4.555898   -2.304128    1.382333
     26          1           0       -4.593833   -1.804491   -0.316948
     27          1           0       -1.449896    1.999318   -0.124875
     28          1           0       -2.321890    1.277278    1.222422
     29          1           0       -3.562413    2.133656   -1.479061
     30          1           0       -3.722193    3.014655    0.050787
     31          1           0       -4.480708    1.429939   -0.146045
     32          1           0        3.763968    0.858232    1.332665
     33          1           0        2.119737    0.340003    1.680093
     34          1           0        2.895161    3.090519    0.505325
     35          1           0        2.428803    2.786401    2.187966
     36          1           0        1.244569    2.587033    0.892748
 ---------------------------------------------------------------------

 SCF Done:  E(RB3LYP) =  -1078.22928235     A.U. after    1 cycles

 Excitation energies and oscillator strengths:

 Excited State   1:      Singlet-A      6.2334 eV  198.90 nm  f=0.0814  <S**2>=0.000
      57 -> 58         0.68523
      57 -> 60         0.10867
 This state for optimization and/or second-order correction.
 Total Energy, E(TD-HF/TD-KS) =  -1078.00021012
 Copying the excited state density for this state as the 1-particle RhoCI density.

 Excited State   2:      Singlet-A      6.4023 eV  193.66 nm  f=0.1450  <S**2>=0.000
      56 -> 58         0.66474
      56 -> 60        -0.10109
      57 -> 59         0.17014

 Excited State   3:      Singlet-A      6.4278 eV  192.89 nm  f=0.0100  <S**2>=0.000
      56 -> 58        -0.16326
      56 -> 59         0.10800
      57 -> 59         0.65788
      57 -> 61        -0.10314

 Excited State   4:      Singlet-A      6.6102 eV  187.56 nm  f=0.0816  <S**2>=0.000
      56 -> 59         0.21738
      57 -> 60         0.62306
      57 -> 61         0.12792
      57 -> 62        -0.14768

 Excited State   5:      Singlet-A      6.6536 eV  186.34 nm  f=0.1213  <S**2>=0.000
      56 -> 59         0.63430
      57 -> 59        -0.10265
      57 -> 60        -0.23317
      57 -> 61         0.11667

 Excited State   6:      Singlet-A      6.8518 eV  180.95 nm  f=0.0172  <S**2>=0.000
      56 -> 60         0.27752
      56 -> 61         0.11540
      56 -> 62         0.10036
      57 -> 61         0.43580
      57 -> 62         0.43167

 Excited State   7:      Singlet-A      6.8912 eV  179.92 nm  f=0.0077  <S**2>=0.000
      56 -> 59         0.10615
      56 -> 60        -0.14486
      56 -> 62        -0.10062
      57 -> 60         0.15815
      57 -> 61        -0.38198
      57 -> 62         0.51276

 Excited State   8:      Singlet-A      6.9071 eV  179.50 nm  f=0.0172  <S**2>=0.000
      56 -> 60         0.54234
      56 -> 61         0.16166
      56 -> 62         0.18153
      57 -> 61        -0.33110

 Excited State   9:      Singlet-A      7.1380 eV  173.70 nm  f=0.0106  <S**2>=0.000
      56 -> 60        -0.28879
      56 -> 61         0.53883
      56 -> 62         0.33834

 Excited State  10:      Singlet-A      7.2224 eV  171.67 nm  f=0.0277  <S**2>=0.000
      56 -> 61        -0.39355
      56 -> 62         0.56755

 The electronic state is 1-A.
 Alpha  occ. eigenvalues --  -77.06725 -77.06578 -10.18770 -10.18648 -10.18642
 Alpha  occ. eigenvalues --  -10.18608 -10.18570 -10.18466 -10.17943 -10.17908
 Alpha  occ. eigenvalues --  -10.17907 -10.17718  -6.53520  -6.53357  -4.69768
 Alpha  occ. eigenvalues --   -4.69762  -4.69618  -4.69608  -4.69277  -4.69092
 Alpha  occ. eigenvalues --   -0.78826  -0.77342  -0.74903  -0.74882  -0.74634
 Alpha  occ. eigenvalues --   -0.66805  -0.63864  -0.61548  -0.61187  -0.60440
 Alpha  occ. eigenvalues --   -0.52371  -0.51448  -0.46145  -0.45736  -0.45030
 Alpha  occ. eigenvalues --   -0.43768  -0.43464  -0.42044  -0.41672  -0.41118
 Alpha  occ. eigenvalues --   -0.40621  -0.38656  -0.37582  -0.37313  -0.36974
 Alpha  occ. eigenvalues --   -0.36509  -0.36230  -0.35688  -0.34939  -0.34770
 Alpha  occ. eigenvalues --   -0.34312  -0.32937  -0.29795  -0.29488  -0.28318
 Alpha  occ. eigenvalues --   -0.21957  -0.21068
 Alpha virt. eigenvalues --    0.04383   0.05187   0.05989   0.06888   0.07014
 Alpha virt. eigenvalues --    0.09552   0.09785   0.11383   0.11975   0.12687
 Alpha virt. eigenvalues --    0.13177   0.13475   0.13913   0.14741   0.15207

 Mulliken atomic charges:
              1
     1  C   -0.424816
     2  C   -0.464278
     3  P    0.592099
     4  C   -0.467671
     5  C   -0.379842
     6  P    0.188958
     7  C   -0.411546
     8  C   -0.427358
     9  C   -0.419752
    10  C   -0.416290
    11  C   -0.385890
    12  C   -0.462347
    13  H    0.160495
    14  H    0.165701
    15  H    0.146638
    16  H    0.178937
    17  H    0.172346
    18  H    0.178829
    19  H    0.176535
    20  H    0.082406
    21  H    0.128202
    22  H    0.129382
    23  H    0.137080
    24  H    0.142120
    25  H    0.116634
    26  H    0.149400
    27  H    0.120671
    28  H    0.132922
    29  H    0.142685
    30  H    0.113416
    31  H    0.140810
    32  H    0.131102
    33  H    0.160138
    34  H    0.144784
    35  H    0.164018
    36  H    0.163481
 Sum of Mulliken atomic charges =  -0.00000

 Dipole moment (field-independent basis, Debye):
    X=              7.6996    Y=              0.4154    Z=              0.6078  Tot=              7.7347
 Quadrupole moment (field-independent basis, Debye-Ang):
   XX=            -95.4709   YY=            -93.2783   ZZ=            -97.0314
   XY=             -1.9812   XZ=             -7.5067   YZ=             -0.7114

 Summary of Natural Population Analysis:

                                       Natural Population
                Natural  -----------------------------------------------
    Atom  No    Charge         Core      Valence    Rydberg      Total
 -----------------------------------------------------------------------
      C    1   -0.67847      1.99941     4.66930    0.00975     6.67847
      C    2   -0.78779      1.99933     4.77567    0.01280     6.78779
      P    3    1.27526      9.99770     3.66270    0.06433    13.72474
      C    4   -0.78352      1.99929     4.76853    0.01571     6.78352
      C    5   -0.81782      1.99933     4.79341    0.02508     6.81782
      P    6    0.63878      9.99863     4.28155    0.08104    14.36122
      C    7   -0.75968      1.99940     4.74581    0.01447     6.75968
      C    8   -0.67110      1.99945     4.66207    0.00958     6.67110
      C    9   -0.77598      1.99940     4.75928    0.01730     6.77598
      C   10   -0.67008      1.99945     4.66125    0.00937     6.67008
      C   11   -0.81149      1.99932     4.79926    0.01291     6.81149
      C   12   -0.69293      1.99946     4.68311    0.01036     6.69293
      H   13    0.24437      0.00000     0.75186    0.00376     0.75563
      H   14    0.23526      0.00000     0.75654    0.00821     0.76474
      H   15    0.22464      0.00000     0.76856    0.00681     0.77536
      H   16    0.25223      0.00000     0.73928    0.00849     0.74777
      H   17    0.25612      0.00000     0.73742    0.00646     0.74388
      H   18    0.25494      0.00000     0.73663    0.00843     0.74506
      H   19    0.25513      0.00000     0.74092    0.00395     0.74487
      H   20    0.18236      0.00000     0.79762    0.02002     0.81764
      H   21    0.23011      0.00000     0.76215    0.00774     0.76989
      H   22    0.22065      0.00000     0.77568    0.00367     0.77935
      H   23    0.23714      0.00000     0.76126    0.00160     0.76286
      H   24    0.21995      0.00000     0.77789    0.00215     0.78005
      H   25    0.21364      0.00000     0.78221    0.00415     0.78636
      H   26    0.23076      0.00000     0.76651    0.00274     0.76924
      H   27    0.21803      0.00000     0.78009    0.00188     0.78197
      H   28    0.22264      0.00000     0.77359    0.00376     0.77736
      H   29    0.22683      0.00000     0.77109    0.00208     0.77317
      H   30    0.21236      0.00000     0.78424    0.00340     0.78764
      H   31    0.22082      0.00000     0.77562    0.00356     0.77918
      H   32    0.23230      0.00000     0.75404    0.01366     0.76770
      H   33    0.24366      0.00000     0.73578    0.02055     0.75634
      H   34    0.22281      0.00000     0.77283    0.00436     0.77719
      H   35    0.24696      0.00000     0.75104    0.00200     0.75304
      H   36    0.23108      0.00000     0.76404    0.00487     0.76892
 =======================================================================
   * Total *   -0.00000     39.99017    73.57882    0.43101   114.00000

 Normal termination of Gaussian 09 at Sat Oct  2 06:51:40 2021.
