 Gaussian 09, Revision A.02,

 -----------------------------------
 #p opt b3lyp/6-31G* scf=(xqc,tight)
 -----------------------------------

 -------------------------
 c1ccc(nc1)c1ccccn1_conf_0
 -------------------------
 Symbolic Z-matrix:
 Charge =  0 Multiplicity = 1

 SCF Done:  E(RB3LYP) =  -495.385585064     A.U. after   14 cycles
 SCF Done:  E(RB3LYP) =  -495.387427439     A.U. after   12 cycles
 SCF Done:  E(RB3LYP) =  -495.387618465     A.U. after   11 cycles
 SCF Done:  E(RB3LYP) =  -495.387625713     A.U. after   15 cycles
 SCF Done:  E(RB3LYP) =  -495.387626637     A.U. after    8 cycles
 SCF Done:  E(RB3LYP) =  -495.387626754     A.U. after    7 cycles
 Optimization completed.
    -- Stationary point found.
 Normal termination of Gaussian 09 at Fri Oct  1 19:25:54 2021.

 ----------------------------------------------------------------------
 #p freq b3lyp/6-31G* volume NMR pop=NPA density=current Geom=AllCheck
 Guess=Read
 ----------------------------------------------------------------------

 c1ccc(nc1)c1ccccn1_conf_0
 -------------------------
 Redundant internal coordinates taken from checkpoint file:
 C10H8N2_687d_conf_0.chk
 Charge =  0 Multiplicity = 1

 SCF Done:  E(RB3LYP) =  -495.387626754     A.U. after    1 cycles

  1  C    Isotropic =    73.1126   Anisotropy =   158.6042

  2  C    Isotropic =    60.7181   Anisotropy =   180.6730

  3  C    Isotropic =    74.1604   Anisotropy =   170.1696

  4  C    Isotropic =    39.7669   Anisotropy =   158.6032

  5  N    Isotropic =   -48.1412   Anisotropy =   515.6560

  6  C    Isotropic =    47.4410   Anisotropy =   151.3810

  7  C    Isotropic =    39.7669   Anisotropy =   158.6032

  8  C    Isotropic =    74.1604   Anisotropy =   170.1696

  9  C    Isotropic =    60.7181   Anisotropy =   180.6730

 10  C    Isotropic =    73.1127   Anisotropy =   158.6042

 11  C    Isotropic =    47.4410   Anisotropy =   151.3810

 12  N    Isotropic =   -48.1412   Anisotropy =   515.6560

 13  H    Isotropic =    25.2479   Anisotropy =     4.7208

 14  H    Isotropic =    24.6623   Anisotropy =     5.1647

 15  H    Isotropic =    23.5882   Anisotropy =     8.6719

 16  H    Isotropic =    23.5852   Anisotropy =     5.8157

 17  H    Isotropic =    23.5882   Anisotropy =     8.6719

 18  H    Isotropic =    24.6623   Anisotropy =     5.1647

 19  H    Isotropic =    25.2479   Anisotropy =     4.7208

 20  H    Isotropic =    23.5852   Anisotropy =     5.8157

  Exact polarizability: 187.416  -0.642 116.476   0.000   0.000  38.810
 Approx polarizability: 279.025  -0.599 216.007   0.000   0.000  61.268

                     1                      2                      3
                     A                      A                      A
 Frequencies --    58.3305                96.9114               164.8506
 Red. masses --     4.3472                 4.6172                 4.5353
 Frc consts  --     0.0087                 0.0255                 0.0726
 IR Inten    --     3.3495                 2.7125                 6.4379

                     4                      5                      6
                     A                      A                      A
 Frequencies --   228.3670               333.9724               411.6677
 Red. masses --     4.5984                 7.0514                 3.2665
 Frc consts  --     0.1413                 0.4634                 0.3262
 IR Inten    --     0.0000                 0.0000                 7.6266

                     7                      8                      9
                     A                      A                      A
 Frequencies --   418.7760               447.0946               449.5351
 Red. masses --     3.6391                 3.6835                 5.5023
 Frc consts  --     0.3760                 0.4338                 0.6551
 IR Inten    --     0.0000                 0.0028                 0.0000

                    10                     11                     12
                     A                      A                      A
 Frequencies --   572.7543               628.4213               634.8027
 Red. masses --     2.7522                 7.2642                 7.5423
 Frc consts  --     0.5320                 1.6902                 1.7907
 IR Inten    --     0.0000                 0.0000                13.3519

                    13                     14                     15
                     A                      A                      A
 Frequencies --   672.3047               760.1282               760.5549
 Red. masses --     6.9131                 5.1664                 1.6332
 Frc consts  --     1.8410                 1.7588                 0.5566
 IR Inten    --     6.4835                 1.7931                 0.0000

                    16                     17                     18
                     A                      A                      A
 Frequencies --   778.3838               785.9769               841.5375
 Red. masses --     1.1934                 5.9797                 2.5101
 Frc consts  --     0.4260                 2.1765                 1.0473
 IR Inten    --    81.6519                 0.0000                 0.0000

                    19                     20                     21
                     A                      A                      A
 Frequencies --   922.4707               931.1652               977.1298
 Red. masses --     1.2923                 1.3784                 1.3883
 Frc consts  --     0.6479                 0.7042                 0.7810
 IR Inten    --     1.7186                 0.0000                 0.3740

                    22                     23                     24
                     A                      A                      A
 Frequencies --   982.3599              1012.5710              1014.4518
 Red. masses --     1.4397                 7.5200                 6.6807
 Frc consts  --     0.8186                 4.5427                 4.0507
 IR Inten    --     0.0000                 8.8418                 0.0000

                    25                     26                     27
                     A                      A                      A
 Frequencies --  1016.2998              1016.4758              1059.9658
 Red. masses --     1.3032                 1.2837                 5.1145
 Frc consts  --     0.7931                 0.7815                 3.3856
 IR Inten    --     0.0000                 0.2989                 8.1659

                    28                     29                     30
                     A                      A                      A
 Frequencies --  1074.6116              1096.4449              1121.8473
 Red. masses --     2.2107                 1.8005                 1.7740
 Frc consts  --     1.5041                 1.2753                 1.3154
 IR Inten    --     0.0000                 5.9961                16.8089

                    31                     32                     33
                     A                      A                      A
 Frequencies --  1126.2938              1181.5357              1181.7465
 Red. masses --     1.4712                 1.1206                 1.1251
 Frc consts  --     1.0996                 0.9217                 0.9258
 IR Inten    --     0.0000                 2.1171                 0.0000

                    34                     35                     36
                     A                      A                      A
 Frequencies --  1293.4498              1298.5826              1334.9570
 Red. masses --     4.6067                 1.8438                 4.0193
 Frc consts  --     4.5409                 1.8319                 4.2202
 IR Inten    --     0.0000                 1.7332                 6.1273

                    37                     38                     39
                     A                      A                      A
 Frequencies --  1340.0103              1351.4225              1465.1340
 Red. masses --     3.0866                 1.6747                 1.9260
 Frc consts  --     3.2655                 1.8021                 2.4359
 IR Inten    --     0.0000                 0.0000                38.0506

                    40                     41                     42
                     A                      A                      A
 Frequencies --  1491.5996              1506.0528              1529.4659
 Red. masses --     2.4771                 2.0938                 2.6203
 Frc consts  --     3.2472                 2.7981                 3.6115
 IR Inten    --     0.0000                76.1093                 0.0000

                    43                     44                     45
                     A                      A                      A
 Frequencies --  1616.9170              1635.9629              1646.3871
 Red. masses --     5.2843                 5.8804                 5.7426
 Frc consts  --     8.1398                 9.2726                 9.1711
 IR Inten    --    39.6640                 0.0000                 0.0000

                    46                     47                     48
                     A                      A                      A
 Frequencies --  1647.8021              3168.5667              3168.9126
 Red. masses --     5.6012                 1.0890                 1.0891
 Frc consts  --     8.9606                 6.4417                 6.4437
 IR Inten    --    86.7034                59.5110                 0.0000

                    49                     50                     51
                     A                      A                      A
 Frequencies --  3193.1947              3193.2460              3213.9625
 Red. masses --     1.0889                 1.0891                 1.0960
 Frc consts  --     6.5418                 6.5428                 6.6705
 IR Inten    --     0.0000                28.8276                51.7972

                    52                     53                     54
                     A                      A                      A
 Frequencies --  3214.3081              3243.5158              3244.1089
 Red. masses --     1.0960                 1.0924                 1.0929
 Frc consts  --     6.6719                 6.7711                 6.7770
 IR Inten    --     0.0000                 2.9642                 0.0000

 - Thermochemistry -
 -------------------
 Temperature   298.150 Kelvin.  Pressure   1.00000 Atm.
 Atom     1 has atomic number  6 and mass  12.00000

 Molecular mass:   156.06875 amu.
 Principal axes and moments of inertia in atomic units:
                           1         2         3
     Eigenvalues --   613.042853085.361213698.40401
           X            0.99999   0.00443   0.00000
           Y           -0.00443   0.99999   0.00000
           Z           -0.00000  -0.00000   1.00000
 This molecule is an asymmetric top.
 Rotational symmetry number  1.
 Warning -- assumption of classical behavior for rotation
           may cause significant error
 Rotational temperatures (Kelvin)      0.14129     0.02807     0.02342
 Rotational constants (GHZ):           2.94391     0.58494     0.48798
 Zero-point vibrational energy     416045.0 (Joules/Mol)
                                   99.43715 (Kcal/Mol)
 Warning -- explicit consideration of  10 degrees of freedom as
           vibrations may cause significant error
 Vibrational temperatures:     83.92   139.43   237.18   328.57   480.51
          (Kelvin)            592.30   602.52   643.27   646.78   824.06
                              904.16   913.34   967.30  1093.65  1094.27
                             1119.92  1130.84  1210.78  1327.23  1339.74
                             1405.87  1413.39  1456.86  1459.57  1462.23
                             1462.48  1525.05  1546.12  1577.54  1614.09
                             1620.48  1699.96  1700.27  1860.98  1868.37
                             1920.70  1927.97  1944.39  2108.00  2146.08
                             2166.87  2200.56  2326.38  2353.78  2368.78
                             2370.82  4558.86  4559.35  4594.29  4594.36
                             4624.17  4624.67  4666.69  4667.54

 Zero-point correction=                           0.158463 (Hartree/Particle)
 Thermal correction to Energy=                    0.167053
 Thermal correction to Enthalpy=                  0.167998
 Thermal correction to Gibbs Free Energy=         0.124001
 Sum of electronic and zero-point Energies=           -495.229164
 Sum of electronic and thermal Energies=              -495.220573
 Sum of electronic and thermal Enthalpies=            -495.219629
 Sum of electronic and thermal Free Energies=         -495.263626

                     E (Thermal)             CV                S
                      KCal/Mol        Cal/Mol-Kelvin    Cal/Mol-Kelvin
 Total                  104.828             34.272             92.598
 Electronic               0.000              0.000              0.000
 Translational            0.889              2.981             41.045
 Rotational               0.889              2.981             30.326
 Vibrational            103.050             28.310             21.227
 Vibration     1          0.596              1.974              4.513
 Vibration     2          0.603              1.951              3.516
 Vibration     3          0.623              1.886              2.493
 Vibration     4          0.651              1.798              1.892
 Vibration     5          0.715              1.608              1.241
 Vibration     6          0.776              1.445              0.921
 Vibration     7          0.782              1.429              0.896
 Vibration     8          0.806              1.367              0.805
 Vibration     9          0.808              1.362              0.797
 Vibration    10          0.929              1.090              0.499

 Optimization completed.
    -- Stationary point found.
 Normal termination of Gaussian 09 at Fri Oct  1 20:33:36 2021.
 Gaussian 09:  AM64L-G09RevA.02 11-Jun-2009

 ----------------------------------------------------------------------
 #p TD(NStates=10, Root=1) b3lyp/6-31G* volume pop=NPA density=current
 Geom=AllCheck Guess=Read
 ----------------------------------------------------------------------

 c1ccc(nc1)c1ccccn1_conf_0
 -------------------------
 Redundant internal coordinates taken from checkpoint file:
 C10H8N2_687d_conf_0.chk
 Charge =  0 Multiplicity = 1

                         Standard orientation:
 ---------------------------------------------------------------------
 Center     Atomic      Atomic             Coordinates (Angstroms)
 Number     Number       Type             X           Y           Z
 ---------------------------------------------------------------------
      1          6           0       -3.487599    0.062128    0.000185
      2          6           0       -2.845218   -1.176169   -0.000041
      3          6           0       -1.454474   -1.215188   -0.000231
      4          6           0       -0.745053   -0.004921   -0.000290
      5          7           0       -1.360732    1.191391    0.000055
      6          6           0       -2.695639    1.211650    0.000274
      7          6           0        0.745053    0.004921   -0.000290
      8          6           0        1.454474    1.215188   -0.000231
      9          6           0        2.845218    1.176169   -0.000041
     10          6           0        3.487599   -0.062128    0.000185
     11          6           0        2.695639   -1.211650    0.000274
     12          7           0        1.360732   -1.191391    0.000055
     13          1           0       -4.570686    0.140113    0.000317
     14          1           0       -3.419891   -2.098749   -0.000080
     15          1           0       -0.904259   -2.148464   -0.000373
     16          1           0       -3.157174    2.198205    0.000375
     17          1           0        0.904259    2.148464   -0.000373
     18          1           0        3.419891    2.098749   -0.000080
     19          1           0        4.570686   -0.140113    0.000317
     20          1           0        3.157174   -2.198205    0.000375
 ---------------------------------------------------------------------

 SCF Done:  E(RB3LYP) =  -495.387626754     A.U. after    2 cycles

 Excitation energies and oscillator strengths:

 Excited State   1:      Singlet-A      4.2695 eV  290.40 nm  f=0.0019  <S**2>=0.000
      40 -> 42         0.70171
 This state for optimization and/or second-order correction.
 Total Energy, E(TD-HF/TD-KS) =  -495.230726956
 Copying the excited state density for this state as the 1-particle RhoCI density.

 Excited State   2:      Singlet-A      4.6716 eV  265.40 nm  f=0.0002  <S**2>=0.000
      39 -> 42         0.67252
      40 -> 43        -0.19671

 Excited State   3:      Singlet-A      4.6825 eV  264.78 nm  f=0.4517  <S**2>=0.000
      37 -> 42         0.10876
      41 -> 42         0.67749
      41 -> 44         0.12766

 Excited State   4:      Singlet-A      4.9196 eV  252.02 nm  f=0.0000  <S**2>=0.000
      38 -> 42         0.32604
      41 -> 43         0.60950

 Excited State   5:      Singlet-A      4.9595 eV  249.99 nm  f=0.0000  <S**2>=0.000
      39 -> 42         0.19392
      39 -> 44        -0.19786
      40 -> 43         0.64689

 Excited State   6:      Singlet-A      5.1802 eV  239.34 nm  f=0.0048  <S**2>=0.000
      39 -> 43        -0.49619
      40 -> 44         0.49772

 Excited State   7:      Singlet-A      5.4241 eV  228.58 nm  f=0.0859  <S**2>=0.000
      37 -> 42         0.42125
      41 -> 42        -0.17218
      41 -> 44         0.52847

 Excited State   8:      Singlet-A      5.6417 eV  219.76 nm  f=0.0000  <S**2>=0.000
      36 -> 42        -0.12513
      36 -> 44        -0.11348
      37 -> 43        -0.12300
      38 -> 42         0.58296
      41 -> 43        -0.30958
      41 -> 45         0.12652

 Excited State   9:      Singlet-A      5.7533 eV  215.50 nm  f=0.0000  <S**2>=0.000
      39 -> 43         0.49930
      40 -> 44         0.49802

 Excited State  10:      Singlet-A      5.9760 eV  207.47 nm  f=0.0000  <S**2>=0.000
      39 -> 44         0.66005
      40 -> 43         0.20508
      40 -> 45        -0.14056

 The electronic state is 1-A.
 Alpha  occ. eigenvalues --  -14.32830 -14.32830 -10.22690 -10.22662 -10.22207
 Alpha  occ. eigenvalues --  -10.22207 -10.20619 -10.20619 -10.19821 -10.19821
 Alpha  occ. eigenvalues --  -10.19225 -10.19225  -0.94961  -0.93147  -0.80338
 Alpha  occ. eigenvalues --   -0.79823  -0.78458  -0.73819  -0.64986  -0.64140
 Alpha  occ. eigenvalues --   -0.61117  -0.59668  -0.53413  -0.50156  -0.48995
 Alpha  occ. eigenvalues --   -0.47332  -0.45908  -0.44434  -0.42308  -0.41385
 Alpha  occ. eigenvalues --   -0.40983  -0.39460  -0.38241  -0.37480  -0.35470
 Alpha  occ. eigenvalues --   -0.29502  -0.28545  -0.27381  -0.26347  -0.24751
 Alpha  occ. eigenvalues --   -0.23351
 Alpha virt. eigenvalues --   -0.04866  -0.02413  -0.00651   0.03099   0.10173
 Alpha virt. eigenvalues --    0.10354   0.13275   0.14325   0.15336   0.17205
 Alpha virt. eigenvalues --    0.17304   0.18710   0.18765   0.18828   0.23971

 Mulliken atomic charges:
              1
     1  C   -0.181111
     2  C   -0.107329
     3  C   -0.141259
     4  C    0.256004
     5  N   -0.473192
     6  C    0.061376
     7  C    0.256004
     8  C   -0.141259
     9  C   -0.107329
    10  C   -0.181111
    11  C    0.061376
    12  N   -0.473192
    13  H    0.133164
    14  H    0.142040
    15  H    0.156939
    16  H    0.153368
    17  H    0.156939
    18  H    0.142040
    19  H    0.133164
    20  H    0.153368
 Sum of Mulliken atomic charges =  -0.00000

 Dipole moment (field-independent basis, Debye):
    X=             -0.0000    Y=             -0.0000    Z=              0.0000  Tot=              0.0000
 Quadrupole moment (field-independent basis, Debye-Ang):
   XX=            -55.3967   YY=            -61.8064   ZZ=            -73.0613
   XY=              0.0458   XZ=              0.0000   YZ=              0.0000

 Summary of Natural Population Analysis:

                                       Natural Population
                Natural  -----------------------------------------------
    Atom  No    Charge         Core      Valence    Rydberg      Total
 -----------------------------------------------------------------------
      C    1   -0.35216      1.99908     4.33805    0.01503     6.35216
      C    2   -0.20295      1.99910     4.18935    0.01451     6.20295
      C    3   -0.24309      1.99902     4.23093    0.01314     6.24309
      C    4    0.10072      1.99901     3.87643    0.02383     5.89928
      N    5   -0.31417      1.99914     5.30031    0.01472     7.31417
      C    6    0.02728      1.99917     3.95230    0.02126     5.97272
      C    7    0.10072      1.99901     3.87643    0.02383     5.89928
      C    8   -0.24309      1.99902     4.23093    0.01314     6.24309
      C    9   -0.20295      1.99910     4.18935    0.01451     6.20295
      C   10   -0.35216      1.99908     4.33805    0.01503     6.35216
      C   11    0.02728      1.99917     3.95230    0.02126     5.97272
      N   12   -0.31417      1.99914     5.30031    0.01472     7.31417
      H   13    0.24396      0.00000     0.75534    0.00070     0.75604
      H   14    0.24586      0.00000     0.75339    0.00074     0.75414
      H   15    0.25880      0.00000     0.73994    0.00127     0.74120
      H   16    0.23575      0.00000     0.76336    0.00089     0.76425
      H   17    0.25880      0.00000     0.73994    0.00127     0.74120
      H   18    0.24586      0.00000     0.75339    0.00074     0.75414
      H   19    0.24396      0.00000     0.75534    0.00070     0.75604
      H   20    0.23575      0.00000     0.76336    0.00089     0.76425
 =======================================================================
   * Total *    0.00000     23.98903    57.79879    0.21219    82.00000

 Normal termination of Gaussian 09 at Fri Oct  1 23:56:34 2021.
