 Gaussian 09, Revision A.02,

 -----------------------------------
 #p opt b3lyp/6-31G* scf=(xqc,tight)
 -----------------------------------

 ---------------------------------
 O=C(C(C)(C)C)Oc1ccc(cc1)Cl_conf_0
 ---------------------------------
 Symbolic Z-matrix:
 Charge =  0 Multiplicity = 1

 SCF Done:  E(RB3LYP) =  -1037.65831455     A.U. after   15 cycles
 SCF Done:  E(RB3LYP) =  -1037.66131744     A.U. after   15 cycles
 SCF Done:  E(RB3LYP) =  -1037.65866616     A.U. after   13 cycles
 SCF Done:  E(RB3LYP) =  -1037.66158770     A.U. after   13 cycles
 SCF Done:  E(RB3LYP) =  -1037.66190017     A.U. after   11 cycles
 SCF Done:  E(RB3LYP) =  -1037.66212911     A.U. after   12 cycles
 SCF Done:  E(RB3LYP) =  -1037.66228932     A.U. after   12 cycles
 SCF Done:  E(RB3LYP) =  -1037.66245916     A.U. after   11 cycles
 SCF Done:  E(RB3LYP) =  -1037.66253653     A.U. after   11 cycles
 SCF Done:  E(RB3LYP) =  -1037.66254111     A.U. after   10 cycles
 SCF Done:  E(RB3LYP) =  -1037.66254284     A.U. after    8 cycles
 SCF Done:  E(RB3LYP) =  -1037.66254288     A.U. after    7 cycles
 Optimization completed.
    -- Stationary point found.
 Normal termination of Gaussian 09 at Fri Oct  1 01:40:37 2021.

 ----------------------------------------------------------------------
 #p freq b3lyp/6-31G* volume NMR pop=NPA density=current Geom=AllCheck
 Guess=Read
 ----------------------------------------------------------------------

 O=C(C(C)(C)C)Oc1ccc(cc1)Cl_conf_0
 ---------------------------------
 Redundant internal coordinates taken from checkpoint file:
 C11H13ClO2_5025_conf_0.chk
 Charge =  0 Multiplicity = 1

 SCF Done:  E(RB3LYP) =  -1037.66254288     A.U. after    1 cycles

  1  O    Isotropic =   -63.2867   Anisotropy =   577.1977

  2  C    Isotropic =    22.8321   Anisotropy =    75.8382

  3  C    Isotropic =   148.9309   Anisotropy =    24.2063

  4  C    Isotropic =   162.2944   Anisotropy =    38.0324

  5  C    Isotropic =   162.3177   Anisotropy =    37.2766

  6  C    Isotropic =   162.9437   Anisotropy =    31.2936

  7  O    Isotropic =   110.7522   Anisotropy =   168.6595

  8  C    Isotropic =    46.7086   Anisotropy =   111.8972

  9  C    Isotropic =    72.2828   Anisotropy =   152.3358

 10  C    Isotropic =    67.0440   Anisotropy =   140.1286

 11  C    Isotropic =    57.3046   Anisotropy =   102.7339

 12  C    Isotropic =    66.9716   Anisotropy =   140.5398

 13  C    Isotropic =    75.2805   Anisotropy =   138.4036

 14  Cl   Isotropic =   729.8575   Anisotropy =   460.3383

 15  H    Isotropic =    30.4297   Anisotropy =     7.3739

 16  H    Isotropic =    30.8998   Anisotropy =     8.0233

 17  H    Isotropic =    31.1195   Anisotropy =     7.9011

 18  H    Isotropic =    30.4967   Anisotropy =     6.3051

 19  H    Isotropic =    31.1158   Anisotropy =     7.8342

 20  H    Isotropic =    30.8901   Anisotropy =     8.1036

 21  H    Isotropic =    30.6896   Anisotropy =     7.9525

 22  H    Isotropic =    30.6712   Anisotropy =     8.1535

 23  H    Isotropic =    31.4915   Anisotropy =     7.7975

 24  H    Isotropic =    24.9251   Anisotropy =     8.8322

 25  H    Isotropic =    25.1372   Anisotropy =     6.9849

 26  H    Isotropic =    25.1342   Anisotropy =     6.8999

 27  H    Isotropic =    25.4865   Anisotropy =     6.8197

  Exact polarizability: 189.382   0.655 119.956   2.492  -5.814  78.393
 Approx polarizability: 245.043   3.084 203.758   6.585  -7.564 117.819

                     1                      2                      3
                     A                      A                      A
 Frequencies --    21.6926                39.1477                43.8843
 Red. masses --     3.3970                 5.9257                 5.4485
 Frc consts  --     0.0009                 0.0054                 0.0062
 IR Inten    --     0.0948                 0.0156                 0.7907

                     4                      5                      6
                     A                      A                      A
 Frequencies --    82.6199               144.9354               192.1464
 Red. masses --     6.5033                 5.5234                 4.2266
 Frc consts  --     0.0262                 0.0684                 0.0919
 IR Inten    --     0.5938                 0.8658                 0.1115

                     7                      8                      9
                     A                      A                      A
 Frequencies --   204.2675               227.5285               256.7887
 Red. masses --     1.2777                 1.7911                 1.6925
 Frc consts  --     0.0314                 0.0546                 0.0658
 IR Inten    --     0.2463                 0.3076                 0.3329

                    10                     11                     12
                     A                      A                      A
 Frequencies --   266.8017               283.1060               301.0007
 Red. masses --     1.2362                 1.7859                 3.5286
 Frc consts  --     0.0518                 0.0843                 0.1884
 IR Inten    --     0.1252                 1.1218                 4.4651

                    13                     14                     15
                     A                      A                      A
 Frequencies --   345.9741               357.9440               374.3633
 Red. masses --     3.6696                 3.9852                 2.4329
 Frc consts  --     0.2588                 0.3008                 0.2009
 IR Inten    --     0.5349                 7.2305                 0.1593

                    16                     17                     18
                     A                      A                      A
 Frequencies --   397.0842               422.1372               426.2066
 Red. masses --     4.5245                 4.1601                 3.8657
 Frc consts  --     0.4203                 0.4368                 0.4137
 IR Inten    --     5.1865                 4.9461                 2.8878

                    19                     20                     21
                     A                      A                      A
 Frequencies --   483.1007               517.4385               587.2476
 Red. masses --     4.1836                 2.8711                 3.6687
 Frc consts  --     0.5753                 0.4529                 0.7454
 IR Inten    --     4.4769                 9.6658                 1.1447

                    22                     23                     24
                     A                      A                      A
 Frequencies --   643.8406               674.8949               704.6826
 Red. masses --     7.0104                 6.6781                 4.4472
 Frc consts  --     1.7122                 1.7921                 1.3011
 IR Inten    --     0.6301                20.3130                 2.6093

                    25                     26                     27
                     A                      A                      A
 Frequencies --   757.5479               803.2147               822.6742
 Red. masses --     6.6775                 2.9538                 1.3291
 Frc consts  --     2.2578                 1.1228                 0.5300
 IR Inten    --     2.9280                 8.1214                 1.4651

                    28                     29                     30
                     A                      A                      A
 Frequencies --   826.7183               854.1387               905.1930
 Red. masses --     2.9090                 2.4832                 3.4259
 Frc consts  --     1.1714                 1.0674                 1.6539
 IR Inten    --     8.2263                24.5340                17.9103

                    31                     32                     33
                     A                      A                      A
 Frequencies --   949.2072               950.5953               954.5715
 Red. masses --     1.7595                 1.3266                 1.3236
 Frc consts  --     0.9340                 0.7063                 0.7106
 IR Inten    --     1.4385                 0.8218                 0.3893

                    34                     35                     36
                     A                      A                      A
 Frequencies --   956.7715               981.5695              1032.6162
 Red. masses --     1.6317                 1.1979                 3.5816
 Frc consts  --     0.8800                 0.6800                 2.2501
 IR Inten    --     3.3046                 0.0081                40.7939

                    37                     38                     39
                     A                      A                      A
 Frequencies --  1058.4766              1060.9295              1107.2466
 Red. masses --     1.4849                 1.4292                 3.0516
 Frc consts  --     0.9802                 0.9478                 2.2043
 IR Inten    --    49.3615                 0.2250               158.3011

                    40                     41                     42
                     A                      A                      A
 Frequencies --  1135.0481              1144.3846              1198.5019
 Red. masses --     1.2948                 3.7466                 1.1997
 Frc consts  --     0.9828                 2.8909                 1.0153
 IR Inten    --     9.6734               415.5057                46.3873

                    43                     44                     45
                     A                      A                      A
 Frequencies --  1239.5860              1242.3878              1264.9247
 Red. masses --     3.8701                 2.7256                 2.9320
 Frc consts  --     3.5037                 2.4787                 2.7641
 IR Inten    --   261.5583                16.6654                40.3698

                    46                     47                     48
                     A                      A                      A
 Frequencies --  1307.7652              1328.9896              1341.7726
 Red. masses --     3.1354                 1.3085                 9.0111
 Frc consts  --     3.1594                 1.3616                 9.5584
 IR Inten    --    38.6975                 0.8599                 8.3455

                    49                     50                     51
                     A                      A                      A
 Frequencies --  1423.1090              1430.1869              1448.9547
 Red. masses --     1.2067                 1.2309                 3.0632
 Frc consts  --     1.4399                 1.4834                 3.7891
 IR Inten    --     3.9184                 4.3892                 2.8896

                    52                     53                     54
                     A                      A                      A
 Frequencies --  1459.0607              1507.7643              1515.4295
 Red. masses --     1.2212                 1.0483                 1.0452
 Frc consts  --     1.5318                 1.4042                 1.4142
 IR Inten    --    14.8746                 0.0448                 0.2263

                    55                     56                     57
                     A                      A                      A
 Frequencies --  1521.0170              1529.3650              1531.7846
 Red. masses --     1.0452                 1.0492                 1.0815
 Frc consts  --     1.4246                 1.4459                 1.4951
 IR Inten    --     0.0698                 5.8928                18.7584

                    58                     59                     60
                     A                      A                      A
 Frequencies --  1536.2210              1550.9999              1639.3439
 Red. masses --     2.1735                 1.0717                 7.1581
 Frc consts  --     3.0221                 1.5190                11.3341
 IR Inten    --   162.7648                13.8171                 1.6176

                    61                     62                     63
                     A                      A                      A
 Frequencies --  1651.1097              1832.8408              3051.0936
 Red. masses --     6.0367                12.6857                 1.0355
 Frc consts  --     9.6962                25.1081                 5.6797
 IR Inten    --     3.2566               179.2561                27.2039

                    64                     65                     66
                     A                      A                      A
 Frequencies --  3053.3227              3062.3173              3115.0334
 Red. masses --     1.0360                 1.0364                 1.1031
 Frc consts  --     5.6908                 5.7266                 6.3067
 IR Inten    --    10.9654                25.3446                12.1129

                    67                     68                     69
                     A                      A                      A
 Frequencies --  3117.0925              3130.2698              3139.3036
 Red. masses --     1.1025                 1.1019                 1.1026
 Frc consts  --     6.3112                 6.3613                 6.4021
 IR Inten    --    22.4002                38.9092                 4.7759

                    70                     71                     72
                     A                      A                      A
 Frequencies --  3140.4732              3143.6965              3215.1853
 Red. masses --     1.1022                 1.1011                 1.0887
 Frc consts  --     6.4047                 6.4115                 6.6311
 IR Inten    --    19.0103                43.5217                 4.0493

                    73                     74                     75
                     A                      A                      A
 Frequencies --  3223.6458              3230.5469              3254.7367
 Red. masses --     1.0908                 1.0950                 1.0934
 Frc consts  --     6.6785                 6.7333                 6.8246
 IR Inten    --     2.1736                 2.6362                 1.1785

 - Thermochemistry -
 -------------------
 Temperature   298.150 Kelvin.  Pressure   1.00000 Atm.
 Atom     1 has atomic number  8 and mass  15.99491

 Molecular mass:   212.06041 amu.
 Principal axes and moments of inertia in atomic units:
                           1         2         3
     Eigenvalues --   900.076787568.680207932.53960
           X            1.00000   0.00208   0.00130
           Y           -0.00203   0.99916  -0.04089
           Z           -0.00138   0.04089   0.99916
 This molecule is an asymmetric top.
 Rotational symmetry number  1.
 Warning -- assumption of classical behavior for rotation
           may cause significant error
 Rotational temperatures (Kelvin)      0.09623     0.01144     0.01092
 Rotational constants (GHZ):           2.00510     0.23845     0.22751
 Zero-point vibrational energy     572278.9 (Joules/Mol)
                                  136.77795 (Kcal/Mol)
 Warning -- explicit consideration of  21 degrees of freedom as
           vibrations may cause significant error
 Vibrational temperatures:     31.21    56.32    63.14   118.87   208.53
          (Kelvin)            276.46   293.90   327.36   369.46   383.87
                              407.33   433.07   497.78   515.00   538.62
                              571.31   607.36   613.22   695.07   744.48
                              844.92   926.34   971.02  1013.88  1089.94
                             1155.65  1183.64  1189.46  1228.91  1302.37
                             1365.70  1367.69  1373.41  1376.58  1412.26
                             1485.70  1522.91  1526.44  1593.08  1633.08
                             1646.51  1724.37  1783.49  1787.52  1819.94
                             1881.58  1912.12  1930.51  2047.53  2057.72
                             2084.72  2099.26  2169.33  2180.36  2188.40
                             2200.41  2203.89  2210.28  2231.54  2358.65
                             2375.58  2637.05  4389.84  4393.04  4405.99
                             4481.83  4484.80  4503.75  4516.75  4518.43
                             4523.07  4625.93  4638.10  4648.03  4682.83

 Zero-point correction=                           0.217970 (Hartree/Particle)
 Thermal correction to Energy=                    0.232151
 Thermal correction to Enthalpy=                  0.233095
 Thermal correction to Gibbs Free Energy=         0.175358
 Sum of electronic and zero-point Energies=          -1037.444573
 Sum of electronic and thermal Energies=             -1037.430392
 Sum of electronic and thermal Enthalpies=           -1037.429448
 Sum of electronic and thermal Free Energies=        -1037.487185

                     E (Thermal)             CV                S
                      KCal/Mol        Cal/Mol-Kelvin    Cal/Mol-Kelvin
 Total                  145.677             52.915            121.518
 Electronic               0.000              0.000              0.000
 Translational            0.889              2.981             41.959
 Rotational               0.889              2.981             32.358
 Vibrational            143.899             46.954             47.201
 Vibration     1          0.593              1.985              6.473
 Vibration     2          0.594              1.981              5.302
 Vibration     3          0.595              1.980              5.076
 Vibration     4          0.600              1.961              3.828
 Vibration     5          0.616              1.908              2.738
 Vibration     6          0.634              1.851              2.207
 Vibration     7          0.640              1.834              2.094
 Vibration     8          0.651              1.799              1.898
 Vibration     9          0.666              1.751              1.684
 Vibration    10          0.672              1.734              1.617
 Vibration    11          0.682              1.705              1.515
 Vibration    12          0.693              1.672              1.411
 Vibration    13          0.724              1.583              1.184
 Vibration    14          0.733              1.559              1.131
 Vibration    15          0.745              1.525              1.062
 Vibration    16          0.764              1.476              0.973
 Vibration    17          0.784              1.422              0.885
 Vibration    18          0.788              1.413              0.871
 Vibration    19          0.839              1.288              0.702
 Vibration    20          0.872              1.211              0.616
 Vibration    21          0.944              1.059              0.472

 Normal termination of Gaussian 09 at Fri Oct  1 02:28:41 2021.
 Gaussian 09:  AM64L-G09RevA.02 11-Jun-2009

 ----------------------------------------------------------------------
 #p TD(NStates=10, Root=1) b3lyp/6-31G* volume pop=NPA density=current
 Geom=AllCheck Guess=Read
 ----------------------------------------------------------------------

 O=C(C(C)(C)C)Oc1ccc(cc1)Cl_conf_0
 ---------------------------------
 Redundant internal coordinates taken from checkpoint file:
 C11H13ClO2_5025_conf_0.chk
 Charge =  0 Multiplicity = 1

                         Standard orientation:
 ---------------------------------------------------------------------
 Center     Atomic      Atomic             Coordinates (Angstroms)
 Number     Number       Type             X           Y           Z
 ---------------------------------------------------------------------
      1          8           0        1.575857   -1.387560   -0.883515
      2          6           0        1.884594   -0.403792   -0.257081
      3          6           0        3.311612    0.072241    0.030457
      4          6           0        3.509220    1.478751   -0.578992
      5          6           0        3.525121    0.130792    1.559975
      6          6           0        4.294678   -0.923337   -0.605478
      7          8           0        0.968087    0.456617    0.303284
      8          6           0       -0.401502    0.240316    0.167804
      9          6           0       -1.001814   -0.997621    0.400069
     10          6           0       -2.389738   -1.107601    0.320457
     11          6           0       -3.156966    0.016395    0.016928
     12          6           0       -2.558520    1.254996   -0.208981
     13          6           0       -1.170984    1.362772   -0.133362
     14         17           0       -4.907241   -0.130051   -0.079377
     15          1           0        2.823300    2.206299   -0.136386
     16          1           0        3.349010    1.467625   -1.663251
     17          1           0        4.535351    1.816684   -0.394887
     18          1           0        2.836802    0.836106    2.033717
     19          1           0        4.550601    0.452927    1.774052
     20          1           0        3.380327   -0.853854    2.019473
     21          1           0        4.148735   -0.989043   -1.687775
     22          1           0        4.164575   -1.928384   -0.192914
     23          1           0        5.323797   -0.600319   -0.412986
     24          1           0       -0.398837   -1.866443    0.629675
     25          1           0       -2.871699   -2.063399    0.495215
     26          1           0       -3.167002    2.122243   -0.441166
     27          1           0       -0.677626    2.314488   -0.302289
 ---------------------------------------------------------------------

 SCF Done:  E(RB3LYP) =  -1037.66254288     A.U. after    1 cycles

 Excitation energies and oscillator strengths:

 Excited State   1:      Singlet-A      5.1641 eV  240.09 nm  f=0.0072  <S**2>=0.000
      55 -> 57         0.37296
      56 -> 58         0.58109
 This state for optimization and/or second-order correction.
 Total Energy, E(TD-HF/TD-KS) =  -1037.47276445
 Copying the excited state density for this state as the 1-particle RhoCI density.

 Excited State   2:      Singlet-A      5.4404 eV  227.90 nm  f=0.1714  <S**2>=0.000
      54 -> 57         0.28599
      54 -> 59        -0.17001
      55 -> 57         0.11024
      55 -> 58        -0.11690
      55 -> 59        -0.13169
      56 -> 57         0.54849
      56 -> 58        -0.11919
      56 -> 59        -0.16305

 Excited State   3:      Singlet-A      5.5191 eV  224.65 nm  f=0.0730  <S**2>=0.000
      54 -> 57         0.42323
      54 -> 59        -0.23539
      55 -> 57         0.26328
      55 -> 59        -0.18707
      56 -> 57        -0.36913

 Excited State   4:      Singlet-A      6.1478 eV  201.67 nm  f=0.0005  <S**2>=0.000
      56 -> 60         0.70178

 Excited State   5:      Singlet-A      6.1760 eV  200.75 nm  f=0.0012  <S**2>=0.000
      55 -> 58        -0.36346
      56 -> 59         0.58412

 Excited State   6:      Singlet-A      6.3394 eV  195.58 nm  f=0.1050  <S**2>=0.000
      54 -> 58         0.59213
      55 -> 58         0.26933
      56 -> 57         0.12337
      56 -> 59         0.23470

 Excited State   7:      Singlet-A      6.4618 eV  191.87 nm  f=0.0666  <S**2>=0.000
      54 -> 57        -0.36072
      54 -> 59         0.13949
      55 -> 57         0.41469
      55 -> 59        -0.33736
      56 -> 58        -0.23451

 Excited State   8:      Singlet-A      6.6054 eV  187.70 nm  f=0.0305  <S**2>=0.000
      54 -> 57         0.25733
      54 -> 59         0.48749
      55 -> 57         0.24035
      55 -> 59         0.31951
      56 -> 58        -0.11750

 Excited State   9:      Singlet-A      6.9217 eV  179.12 nm  f=0.0271  <S**2>=0.000
      54 -> 60        -0.16997
      55 -> 58         0.11731
      55 -> 60         0.66548

 Excited State  10:      Singlet-A      6.9915 eV  177.34 nm  f=0.5516  <S**2>=0.000
      49 -> 57         0.11418
      51 -> 57         0.11499
      52 -> 57        -0.15420
      53 -> 57        -0.12945
      54 -> 58        -0.32858
      55 -> 58         0.46861
      55 -> 60        -0.14879
      56 -> 57         0.14819
      56 -> 59         0.20598

 The electronic state is 1-A.
 Alpha  occ. eigenvalues -- -101.54890 -19.20857 -19.14860 -10.32433 -10.26327
 Alpha  occ. eigenvalues --  -10.25530 -10.22035 -10.21065 -10.20969 -10.20771
 Alpha  occ. eigenvalues --  -10.20659 -10.18807 -10.18795 -10.17946  -9.46517
 Alpha  occ. eigenvalues --   -7.22914  -7.21942  -7.21914  -1.11486  -1.03243
 Alpha  occ. eigenvalues --   -0.89319  -0.84405  -0.82619  -0.76718  -0.74603
 Alpha  occ. eigenvalues --   -0.69758  -0.69246  -0.66202  -0.63425  -0.59714
 Alpha  occ. eigenvalues --   -0.56520  -0.50703  -0.49598  -0.48883  -0.48519
 Alpha  occ. eigenvalues --   -0.46231  -0.45682  -0.44207  -0.43907  -0.43441
 Alpha  occ. eigenvalues --   -0.41674  -0.39929  -0.39429  -0.38946  -0.38900
 Alpha  occ. eigenvalues --   -0.37567  -0.37366  -0.36156  -0.34600  -0.34018
 Alpha  occ. eigenvalues --   -0.33612  -0.31606  -0.31346  -0.28031  -0.26569
 Alpha  occ. eigenvalues --   -0.24008
 Alpha virt. eigenvalues --   -0.02109  -0.01719   0.00993   0.02776   0.07798
 Alpha virt. eigenvalues --    0.10274   0.12147   0.12725   0.14413   0.14564
 Alpha virt. eigenvalues --    0.14653   0.15062   0.15472   0.16462   0.17382

 Mulliken atomic charges:
              1
     1  O   -0.449634
     2  C    0.627910
     3  C   -0.010348
     4  C   -0.451457
     5  C   -0.452566
     6  C   -0.434939
     7  O   -0.511194
     8  C    0.347997
     9  C   -0.152679
    10  C   -0.159308
    11  C   -0.063776
    12  C   -0.158160
    13  C   -0.173321
    14  Cl   0.041267
    15  H    0.162179
    16  H    0.154035
    17  H    0.150715
    18  H    0.165201
    19  H    0.150943
    20  H    0.152260
    21  H    0.158563
    22  H    0.156433
    23  H    0.139536
    24  H    0.157073
    25  H    0.155401
    26  H    0.152939
    27  H    0.144931
 Sum of Mulliken atomic charges =  -0.00000

 Dipole moment (field-independent basis, Debye):
    X=              1.7243    Y=              1.3654    Z=              0.9377  Tot=              2.3910
 Quadrupole moment (field-independent basis, Debye-Ang):
   XX=            -83.9383   YY=            -87.3842   ZZ=            -91.5903
   XY=              2.1928   XZ=              1.6839   YZ=             -4.0516

 Summary of Natural Population Analysis:

                                       Natural Population
                Natural  -----------------------------------------------
    Atom  No    Charge         Core      Valence    Rydberg      Total
 -----------------------------------------------------------------------
      O    1   -0.55897      1.99977     6.53911    0.02009     8.55897
      C    2    0.82957      1.99927     3.12243    0.04873     5.17043
      C    3   -0.15062      1.99905     4.13924    0.01233     6.15062
      C    4   -0.66959      1.99938     4.66039    0.00982     6.66959
      C    5   -0.67044      1.99938     4.66127    0.00978     6.67044
      C    6   -0.67041      1.99940     4.65993    0.01109     6.67041
      O    7   -0.51778      1.99969     6.50679    0.01130     8.51778
      C    8    0.33180      1.99873     3.64609    0.02338     5.66820
      C    9   -0.29612      1.99903     4.27909    0.01800     6.29612
      C   10   -0.26273      1.99897     4.24374    0.02002     6.26273
      C   11   -0.02802      1.99857     4.00743    0.02203     6.02802
      C   12   -0.27889      1.99897     4.25961    0.02032     6.27889
      C   13   -0.27679      1.99904     4.25919    0.01856     6.27679
     Cl   14    0.07039      9.99964     6.91040    0.01957    16.92961
      H   15    0.24271      0.00000     0.75618    0.00111     0.75729
      H   16    0.23752      0.00000     0.76158    0.00090     0.76248
      H   17    0.23616      0.00000     0.76281    0.00103     0.76384
      H   18    0.24441      0.00000     0.75456    0.00103     0.75559
      H   19    0.23643      0.00000     0.76245    0.00111     0.76357
      H   20    0.23666      0.00000     0.76242    0.00092     0.76334
      H   21    0.24411      0.00000     0.75486    0.00103     0.75589
      H   22    0.24289      0.00000     0.75609    0.00102     0.75711
      H   23    0.23142      0.00000     0.76769    0.00089     0.76858
      H   24    0.25476      0.00000     0.74418    0.00106     0.74524
      H   25    0.24843      0.00000     0.75057    0.00100     0.75157
      H   26    0.24789      0.00000     0.75112    0.00099     0.75211
      H   27    0.24521      0.00000     0.75363    0.00115     0.75479
 =======================================================================
   * Total *    0.00000     35.98888    75.73286    0.27826   112.00000

 Normal termination of Gaussian 09 at Fri Oct  1 05:07:40 2021.
