 Gaussian 09, Revision A.02,

 -----------------------------------
 #p opt b3lyp/6-31G* scf=(xqc,tight)
 -----------------------------------

 -----------------------------
 O=C(C(C)(C)C)Oc1ccccc1_conf_0
 -----------------------------
 Symbolic Z-matrix:
 Charge =  0 Multiplicity = 1

 SCF Done:  E(RB3LYP) =  -578.063587326     A.U. after   15 cycles
 SCF Done:  E(RB3LYP) =  -578.065873225     A.U. after   13 cycles
 SCF Done:  E(RB3LYP) =  -578.066158812     A.U. after   13 cycles
 SCF Done:  E(RB3LYP) =  -578.066087757     A.U. after   12 cycles
 SCF Done:  E(RB3LYP) =  -578.066445951     A.U. after   11 cycles
 SCF Done:  E(RB3LYP) =  -578.066826139     A.U. after   11 cycles
 SCF Done:  E(RB3LYP) =  -578.066983310     A.U. after   11 cycles
 SCF Done:  E(RB3LYP) =  -578.067090345     A.U. after   16 cycles
 SCF Done:  E(RB3LYP) =  -578.067135258     A.U. after   12 cycles
 SCF Done:  E(RB3LYP) =  -578.067180404     A.U. after   11 cycles
 SCF Done:  E(RB3LYP) =  -578.067205236     A.U. after   12 cycles
 SCF Done:  E(RB3LYP) =  -578.067222671     A.U. after   11 cycles
 SCF Done:  E(RB3LYP) =  -578.067230969     A.U. after   11 cycles
 SCF Done:  E(RB3LYP) =  -578.067231013     A.U. after    7 cycles
 Optimization completed.
    -- Stationary point found.
 Normal termination of Gaussian 09 at Wed Sep 29 04:05:09 2021.

 ----------------------------------------------------------------------
 #p freq b3lyp/6-31G* volume NMR pop=NPA density=current Geom=AllCheck
 Guess=Read
 ----------------------------------------------------------------------

 O=C(C(C)(C)C)Oc1ccccc1_conf_0
 -----------------------------
 Redundant internal coordinates taken from checkpoint file:
 C11H14O2_0f9c_conf_0.chk
 Charge =  0 Multiplicity = 1

 SCF Done:  E(RB3LYP) =  -578.067231013     A.U. after    1 cycles

  1  O    Isotropic =   -62.3224   Anisotropy =   576.1731

  2  C    Isotropic =    22.8727   Anisotropy =    76.8812

  3  C    Isotropic =   148.9643   Anisotropy =    23.8188

  4  C    Isotropic =   162.1359   Anisotropy =    38.0981

  5  C    Isotropic =   162.1743   Anisotropy =    37.1933

  6  C    Isotropic =   162.8673   Anisotropy =    31.1941

  7  O    Isotropic =   108.2624   Anisotropy =   160.6555

  8  C    Isotropic =    45.1716   Anisotropy =   111.5429

  9  C    Isotropic =    73.1195   Anisotropy =   153.7428

 10  C    Isotropic =    67.7642   Anisotropy =   164.1115

 11  C    Isotropic =    71.9083   Anisotropy =   164.0492

 12  C    Isotropic =    67.6720   Anisotropy =   164.5627

 13  C    Isotropic =    76.2767   Anisotropy =   141.2448

 14  H    Isotropic =    30.3812   Anisotropy =     7.4033

 15  H    Isotropic =    30.8815   Anisotropy =     8.0726

 16  H    Isotropic =    31.1132   Anisotropy =     7.8373

 17  H    Isotropic =    30.4480   Anisotropy =     6.2656

 18  H    Isotropic =    31.1133   Anisotropy =     7.7754

 19  H    Isotropic =    30.8668   Anisotropy =     8.1534

 20  H    Isotropic =    30.6761   Anisotropy =     7.9467

 21  H    Isotropic =    30.6596   Anisotropy =     8.1686

 22  H    Isotropic =    31.4888   Anisotropy =     7.7217

 23  H    Isotropic =    24.9336   Anisotropy =     8.8545

 24  H    Isotropic =    24.9501   Anisotropy =     4.7428

 25  H    Isotropic =    25.1394   Anisotropy =     3.8626

 26  H    Isotropic =    24.9477   Anisotropy =     4.6856

 27  H    Isotropic =    25.4128   Anisotropy =     7.0606

  Exact polarizability: 157.265  -0.113 116.372   2.763  -6.099  74.232
 Approx polarizability: 207.930   1.340 195.288   6.915  -7.243 111.565

                     1                      2                      3
                     A                      A                      A
 Frequencies --    21.9868                44.6483                52.8748
 Red. masses --     3.2500                 5.0566                 5.2286
 Frc consts  --     0.0009                 0.0059                 0.0086
 IR Inten    --     0.0908                 1.0099                 0.2027

                     4                      5                      6
                     A                      A                      A
 Frequencies --   104.4444               195.8067               202.8253
 Red. masses --     4.4544                 1.5684                 2.0393
 Frc consts  --     0.0286                 0.0354                 0.0494
 IR Inten    --     1.5238                 0.2789                 0.2271

                     7                      8                      9
                     A                      A                      A
 Frequencies --   222.9737               253.1946               266.4493
 Red. masses --     1.6031                 1.3922                 1.4245
 Frc consts  --     0.0470                 0.0526                 0.0596
 IR Inten    --     0.6218                 0.0795                 0.2014

                    10                     11                     12
                     A                      A                      A
 Frequencies --   277.3747               313.3066               354.6529
 Red. masses --     1.8748                 2.9504                 3.1530
 Frc consts  --     0.0850                 0.1706                 0.2337
 IR Inten    --     0.5275                 3.7785                 6.1698

                    13                     14                     15
                     A                      A                      A
 Frequencies --   370.8104               398.1051               422.2358
 Red. masses --     2.5365                 4.3159                 3.0550
 Frc consts  --     0.2055                 0.4030                 0.3209
 IR Inten    --     0.5184                 3.0546                 0.0853

                    16                     17                     18
                     A                      A                      A
 Frequencies --   450.9444               515.6651               569.4512
 Red. masses --     3.2637                 3.2657                 4.8422
 Frc consts  --     0.3910                 0.5116                 0.9251
 IR Inten    --     3.3645                 4.5911                 4.1717

                    19                     20                     21
                     A                      A                      A
 Frequencies --   619.1797               629.7091               700.4043
 Red. masses --     4.4413                 6.3605                 2.4345
 Frc consts  --     1.0032                 1.4860                 0.7037
 IR Inten    --     0.7608                 0.6984                13.6100

                    22                     23                     24
                     A                      A                      A
 Frequencies --   753.1278               765.0697               809.6115
 Red. masses --     2.7318                 2.7125                 3.6056
 Frc consts  --     0.9129                 0.9355                 1.3924
 IR Inten    --    11.2643                28.7001                 3.8802

                    25                     26                     27
                     A                      A                      A
 Frequencies --   834.8129               839.6929               895.5042
 Red. masses --     4.5639                 1.2725                 2.3186
 Frc consts  --     1.8740                 0.5286                 1.0955
 IR Inten    --    11.2461                 0.9394                 3.7796

                    28                     29                     30
                     A                      A                      A
 Frequencies --   925.3328               947.9290               956.4534
 Red. masses --     1.9007                 1.7562                 1.6309
 Frc consts  --     0.9589                 0.9298                 0.8790
 IR Inten    --    10.4841                 1.4446                 2.9692

                    31                     32                     33
                     A                      A                      A
 Frequencies --   960.6974               980.7345               987.8028
 Red. masses --     1.3375                 1.1979                 1.2422
 Frc consts  --     0.7273                 0.6789                 0.7141
 IR Inten    --     0.1413                 0.0078                 0.1335

                    34                     35                     36
                     A                      A                      A
 Frequencies --  1020.9651              1053.1758              1059.4975
 Red. masses --     6.1764                 2.0513                 1.4872
 Frc consts  --     3.7932                 1.3405                 0.9836
 IR Inten    --     5.4605                 0.7912                29.6338

                    37                     38                     39
                     A                      A                      A
 Frequencies --  1060.6008              1109.1758              1148.9966
 Red. masses --     1.4341                 1.4980                 3.9534
 Frc consts  --     0.9505                 1.0858                 3.0751
 IR Inten    --     4.6726                 6.8736               461.9988

                    40                     41                     42
                     A                      A                      A
 Frequencies --  1190.8420              1199.2094              1234.2812
 Red. masses --     1.1114                 1.2195                 3.4768
 Frc consts  --     0.9286                 1.0333                 3.1207
 IR Inten    --     3.8522                53.7809               265.8995

                    43                     44                     45
                     A                      A                      A
 Frequencies --  1243.1089              1264.8388              1309.0335
 Red. masses --     2.6809                 2.8906                 3.1707
 Frc consts  --     2.4409                 2.7246                 3.2012
 IR Inten    --     3.8703                29.3044                44.9807

                    46                     47                     48
                     A                      A                      A
 Frequencies --  1345.2252              1364.1576              1421.8274
 Red. masses --     1.9247                 2.7772                 1.2089
 Frc consts  --     2.0522                 3.0450                 1.4399
 IR Inten    --     2.1570                 4.5546                 3.8746

                    49                     50                     51
                     A                      A                      A
 Frequencies --  1429.9215              1458.4142              1503.3257
 Red. masses --     1.2325                 1.2219                 2.2619
 Frc consts  --     1.4848                 1.5313                 3.0118
 IR Inten    --     4.3566                14.3423                 3.0682

                    52                     53                     54
                     A                      A                      A
 Frequencies --  1507.2114              1515.3418              1520.8704
 Red. masses --     1.0493                 1.0451                 1.0454
 Frc consts  --     1.4044                 1.4140                 1.4247
 IR Inten    --     0.0373                 0.1758                 0.0720

                    55                     56                     57
                     A                      A                      A
 Frequencies --  1528.7118              1531.4437              1541.4490
 Red. masses --     1.0495                 1.0580                 2.1481
 Frc consts  --     1.4450                 1.4620                 3.0073
 IR Inten    --     5.5953                 8.9137                82.2863

                    58                     59                     60
                     A                      A                      A
 Frequencies --  1550.6767              1652.2615              1659.0074
 Red. masses --     1.0826                 5.8937                 5.9184
 Frc consts  --     1.5338                 9.4798                 9.5973
 IR Inten    --    12.7129                15.4687                19.9150

                    61                     62                     63
                     A                      A                      A
 Frequencies --  1831.4175              3049.9721              3052.2844
 Red. masses --    12.6770                 1.0357                 1.0362
 Frc consts  --    25.0519                 5.6763                 5.6878
 IR Inten    --   184.6220                28.0358                10.8643

                    64                     65                     66
                     A                      A                      A
 Frequencies --  3061.3687              3113.3094              3115.3951
 Red. masses --     1.0366                 1.1032                 1.1024
 Frc consts  --     5.7240                 6.3000                 6.3038
 IR Inten    --    26.3107                11.8035                23.4670

                    67                     68                     69
                     A                      A                      A
 Frequencies --  3128.7282              3138.8234              3140.2505
 Red. masses --     1.1017                 1.1027                 1.1018
 Frc consts  --     6.3539                 6.4008                 6.4014
 IR Inten    --    40.5494                12.7869                11.9310

                    70                     71                     72
                     A                      A                      A
 Frequencies --  3143.8161              3187.5155              3197.0665
 Red. masses --     1.1009                 1.0853                 1.0897
 Frc consts  --     6.4108                 6.4971                 6.5626
 IR Inten    --    42.2001                 0.1949                14.1619

                    73                     74                     75
                     A                      A                      A
 Frequencies --  3209.3288              3218.3304              3245.8894
 Red. masses --     1.0938                 1.0959                 1.0932
 Frc consts  --     6.6379                 6.6877                 6.7863
 IR Inten    --    29.7999                 8.4442                 2.3632

 - Thermochemistry -
 -------------------
 Temperature   298.150 Kelvin.  Pressure   1.00000 Atm.
 Atom     1 has atomic number  8 and mass  15.99491

 Molecular mass:   178.09938 amu.
 Principal axes and moments of inertia in atomic units:
                           1         2         3
     Eigenvalues --   892.907184291.296434635.80377
           X            0.99998   0.00476   0.00321
           Y           -0.00462   0.99906  -0.04314
           Z           -0.00341   0.04313   0.99906
 This molecule is an asymmetric top.
 Rotational symmetry number  1.
 Warning -- assumption of classical behavior for rotation
           may cause significant error
 Rotational temperatures (Kelvin)      0.09700     0.02018     0.01868
 Rotational constants (GHZ):           2.02120     0.42056     0.38930
 Zero-point vibrational energy     597539.9 (Joules/Mol)
                                  142.81547 (Kcal/Mol)
 Warning -- explicit consideration of  19 degrees of freedom as
           vibrations may cause significant error
 Vibrational temperatures:     31.63    64.24    76.07   150.27   281.72
          (Kelvin)            291.82   320.81   364.29   383.36   399.08
                              450.78   510.27   533.51   572.78   607.50
                              648.81   741.93   819.31   890.86   906.01
                             1007.72  1083.58  1100.76  1164.85  1201.11
                             1208.13  1288.43  1331.35  1363.86  1376.12
                             1382.23  1411.06  1421.23  1468.94  1515.28
                             1524.38  1525.97  1595.85  1653.15  1713.35
                             1725.39  1775.85  1788.55  1819.82  1883.40
                             1935.48  1962.72  2045.69  2057.34  2098.33
                             2162.95  2168.54  2180.24  2188.19  2199.47
                             2203.40  2217.80  2231.08  2377.23  2386.94
                             2635.00  4388.22  4391.55  4404.62  4479.35
                             4482.35  4501.54  4516.06  4518.11  4523.24
                             4586.12  4599.86  4617.50  4630.45  4670.11

 Zero-point correction=                           0.227591 (Hartree/Particle)
 Thermal correction to Energy=                    0.240563
 Thermal correction to Enthalpy=                  0.241507
 Thermal correction to Gibbs Free Energy=         0.187114
 Sum of electronic and zero-point Energies=           -577.839640
 Sum of electronic and thermal Energies=              -577.826668
 Sum of electronic and thermal Enthalpies=            -577.825724
 Sum of electronic and thermal Free Energies=         -577.880117

                     E (Thermal)             CV                S
                      KCal/Mol        Cal/Mol-Kelvin    Cal/Mol-Kelvin
 Total                  150.955             49.053            114.480
 Electronic               0.000              0.000              0.000
 Translational            0.889              2.981             41.438
 Rotational               0.889              2.981             31.252
 Vibrational            149.178             43.091             41.789
 Vibration     1          0.593              1.985              6.446
 Vibration     2          0.595              1.980              5.041
 Vibration     3          0.596              1.976              4.707
 Vibration     4          0.605              1.946              3.370
 Vibration     5          0.636              1.846              2.172
 Vibration     6          0.639              1.836              2.107
 Vibration     7          0.649              1.806              1.935
 Vibration     8          0.664              1.757              1.708
 Vibration     9          0.672              1.735              1.619
 Vibration    10          0.678              1.715              1.550
 Vibration    11          0.701              1.648              1.345
 Vibration    12          0.731              1.566              1.145
 Vibration    13          0.743              1.532              1.076
 Vibration    14          0.764              1.474              0.970
 Vibration    15          0.785              1.422              0.884
 Vibration    16          0.810              1.359              0.793
 Vibration    17          0.871              1.215              0.620
 Vibration    18          0.926              1.097              0.505
 Vibration    19          0.979              0.991              0.418

 Optimization completed.
    -- Stationary point found.
 Normal termination of Gaussian 09 at Wed Sep 29 04:51:49 2021.
 Gaussian 09:  AM64L-G09RevA.02 11-Jun-2009

 ----------------------------------------------------------------------
 #p TD(NStates=10, Root=1) b3lyp/6-31G* volume pop=NPA density=current
 Geom=AllCheck Guess=Read
 ----------------------------------------------------------------------

 O=C(C(C)(C)C)Oc1ccccc1_conf_0
 -----------------------------
 Redundant internal coordinates taken from checkpoint file:
 C11H14O2_0f9c_conf_0.chk
 Charge =  0 Multiplicity = 1

                         Standard orientation:
 ---------------------------------------------------------------------
 Center     Atomic      Atomic             Coordinates (Angstroms)
 Number     Number       Type             X           Y           Z
 ---------------------------------------------------------------------
      1          8           0        0.791636   -1.346987   -0.951776
      2          6           0        1.069780   -0.387018   -0.275183
      3          6           0        2.484570    0.102794    0.052479
      4          6           0        2.662248    1.537778   -0.492915
      5          6           0        2.677635    0.099211    1.585604
      6          6           0        3.495575   -0.845071   -0.611711
      7          8           0        0.132000    0.427563    0.310822
      8          6           0       -1.234232    0.186679    0.148122
      9          6           0       -1.807723   -1.064757    0.372726
     10          6           0       -3.192891   -1.197611    0.267134
     11          6           0       -3.993081   -0.098403   -0.051111
     12          6           0       -3.402238    1.147900   -0.266417
     13          6           0       -2.018456    1.294234   -0.168543
     14          1           0        1.955869    2.231480   -0.028726
     15          1           0        2.515356    1.570693   -1.578687
     16          1           0        3.679070    1.887982   -0.281125
     17          1           0        1.968384    0.769092    2.079377
     18          1           0        3.693491    0.431773    1.828082
     19          1           0        2.546529   -0.907368    1.999565
     20          1           0        3.364998   -0.867053   -1.697737
     21          1           0        3.379412   -1.869332   -0.244636
     22          1           0        4.515768   -0.511477   -0.391094
     23          1           0       -1.184137   -1.916184    0.614866
     24          1           0       -3.646677   -2.170180    0.436874
     25          1           0       -5.070493   -0.212727   -0.129533
     26          1           0       -4.016193    2.010217   -0.511418
     27          1           0       -1.537590    2.254068   -0.329293
 ---------------------------------------------------------------------

 SCF Done:  E(RB3LYP) =  -578.067231013     A.U. after    1 cycles

 Excitation energies and oscillator strengths:

 Excited State   1:      Singlet-A      5.3502 eV  231.74 nm  f=0.0010  <S**2>=0.000
      46 -> 49        -0.10889
      46 -> 51         0.12590
      47 -> 49         0.48474
      48 -> 50        -0.47432
 This state for optimization and/or second-order correction.
 Total Energy, E(TD-HF/TD-KS) =  -577.870615178
 Copying the excited state density for this state as the 1-particle RhoCI density.

 Excited State   2:      Singlet-A      5.5251 eV  224.40 nm  f=0.0196  <S**2>=0.000
      46 -> 49         0.51986
      46 -> 51        -0.26071
      47 -> 51         0.21124
      48 -> 49         0.19786
      48 -> 50        -0.24711

 Excited State   3:      Singlet-A      5.6955 eV  217.69 nm  f=0.1206  <S**2>=0.000
      46 -> 49        -0.17672
      47 -> 50         0.16251
      48 -> 49         0.62097
      48 -> 51        -0.17568

 Excited State   4:      Singlet-A      6.3238 eV  196.06 nm  f=0.0176  <S**2>=0.000
      46 -> 50        -0.14674
      47 -> 49        -0.13546
      47 -> 50         0.44211
      47 -> 51         0.12521
      48 -> 51         0.47589

 Excited State   5:      Singlet-A      6.3776 eV  194.41 nm  f=0.0325  <S**2>=0.000
      46 -> 49        -0.28914
      46 -> 51         0.10148
      47 -> 49        -0.36917
      47 -> 50        -0.12224
      47 -> 51         0.42076
      48 -> 50        -0.21486
      48 -> 51        -0.16724

 Excited State   6:      Singlet-A      6.5553 eV  189.13 nm  f=0.0528  <S**2>=0.000
      46 -> 50         0.64004
      48 -> 49         0.12048
      48 -> 51         0.25169

 Excited State   7:      Singlet-A      6.7316 eV  184.18 nm  f=0.0375  <S**2>=0.000
      46 -> 49         0.26767
      46 -> 51         0.55488
      47 -> 49        -0.18329
      47 -> 51        -0.21288
      48 -> 50        -0.14130

 Excited State   8:      Singlet-A      7.0812 eV  175.09 nm  f=0.4954  <S**2>=0.000
      45 -> 49        -0.35987
      46 -> 50         0.21491
      47 -> 50         0.43968
      48 -> 49        -0.17205
      48 -> 51        -0.28617

 Excited State   9:      Singlet-A      7.2039 eV  172.11 nm  f=0.2198  <S**2>=0.000
      45 -> 50         0.33628
      46 -> 49         0.13810
      46 -> 51         0.24738
      47 -> 49         0.19988
      47 -> 51         0.39293
      48 -> 50         0.31535

 Excited State  10:      Singlet-A      7.5828 eV  163.51 nm  f=0.1538  <S**2>=0.000
      42 -> 49         0.18808
      44 -> 49         0.14113
      45 -> 49         0.51431
      45 -> 51         0.13437
      46 -> 50         0.10681
      47 -> 50         0.21477
      48 -> 49        -0.12565
      48 -> 51        -0.21681

 The electronic state is 1-A.
 Alpha  occ. eigenvalues --  -19.19965 -19.14063 -10.31677 -10.25155 -10.21475
 Alpha  occ. eigenvalues --  -10.19477 -10.19392 -10.19309 -10.19218 -10.19056
 Alpha  occ. eigenvalues --  -10.18329 -10.18315 -10.17493  -1.10621  -1.02385
 Alpha  occ. eigenvalues --   -0.85605  -0.82379  -0.75251  -0.74907  -0.69277
 Alpha  occ. eigenvalues --   -0.68812  -0.66011  -0.61531  -0.59068  -0.55405
 Alpha  occ. eigenvalues --   -0.50484  -0.48960  -0.47987  -0.47371  -0.45015
 Alpha  occ. eigenvalues --   -0.44420  -0.43362  -0.42746  -0.42512  -0.40699
 Alpha  occ. eigenvalues --   -0.39196  -0.38461  -0.37049  -0.36955  -0.36584
 Alpha  occ. eigenvalues --   -0.35660  -0.34722  -0.33591  -0.33485  -0.31660
 Alpha  occ. eigenvalues --   -0.27182  -0.25168  -0.23967
 Alpha virt. eigenvalues --   -0.00941  -0.00267   0.01946   0.08216   0.08787
 Alpha virt. eigenvalues --    0.12594   0.13479   0.14574   0.15042   0.15137
 Alpha virt. eigenvalues --    0.15676   0.15989   0.16126   0.17978   0.18354

 Mulliken atomic charges:
              1
     1  O   -0.444652
     2  C    0.602056
     3  C   -0.002255
     4  C   -0.448996
     5  C   -0.449575
     6  C   -0.436575
     7  O   -0.514308
     8  C    0.337654
     9  C   -0.146755
    10  C   -0.146891
    11  C   -0.122101
    12  C   -0.146589
    13  C   -0.161803
    14  H    0.159472
    15  H    0.151215
    16  H    0.146256
    17  H    0.162702
    18  H    0.145801
    19  H    0.149099
    20  H    0.156759
    21  H    0.154548
    22  H    0.137309
    23  H    0.156278
    24  H    0.140821
    25  H    0.136725
    26  H    0.138348
    27  H    0.145458
 Sum of Mulliken atomic charges =  -0.00000

 Dipole moment (field-independent basis, Debye):
    X=             -0.1180    Y=              1.2525    Z=              0.9454  Tot=              1.5737
 Quadrupole moment (field-independent basis, Debye-Ang):
   XX=            -67.1137   YY=            -75.6007   ZZ=            -80.4521
   XY=              1.3740   XZ=              1.3082   YZ=             -4.0880

 Summary of Natural Population Analysis:

                                       Natural Population
                Natural  -----------------------------------------------
    Atom  No    Charge         Core      Valence    Rydberg      Total
 -----------------------------------------------------------------------
      O    1   -0.53664      1.99978     6.51669    0.02018     8.53664
      C    2    0.77512      1.99927     3.17706    0.04854     5.22488
      C    3   -0.14327      1.99906     4.13146    0.01274     6.14327
      C    4   -0.66922      1.99938     4.65997    0.00988     6.66922
      C    5   -0.66963      1.99938     4.66042    0.00983     6.66963
      C    6   -0.67012      1.99939     4.65977    0.01096     6.67012
      O    7   -0.51932      1.99970     6.50838    0.01125     8.51932
      C    8    0.29765      1.99874     3.67963    0.02398     5.70235
      C    9   -0.27438      1.99903     4.25795    0.01740     6.27438
      C   10   -0.21460      1.99914     4.19810    0.01736     6.21460
      C   11   -0.23011      1.99913     4.21435    0.01663     6.23011
      C   12   -0.23181      1.99914     4.21522    0.01745     6.23181
      C   13   -0.24859      1.99904     4.23183    0.01772     6.24859
      H   14    0.24125      0.00000     0.75759    0.00116     0.75875
      H   15    0.23635      0.00000     0.76270    0.00094     0.76365
      H   16    0.23348      0.00000     0.76535    0.00117     0.76652
      H   17    0.24316      0.00000     0.75580    0.00105     0.75684
      H   18    0.23318      0.00000     0.76548    0.00134     0.76682
      H   19    0.23529      0.00000     0.76375    0.00097     0.76471
      H   20    0.24284      0.00000     0.75612    0.00104     0.75716
      H   21    0.24160      0.00000     0.75737    0.00103     0.75840
      H   22    0.22996      0.00000     0.76912    0.00092     0.77004
      H   23    0.25139      0.00000     0.74750    0.00111     0.74861
      H   24    0.23521      0.00000     0.76395    0.00084     0.76479
      H   25    0.23434      0.00000     0.76485    0.00081     0.76566
      H   26    0.23473      0.00000     0.76444    0.00083     0.76527
      H   27    0.24216      0.00000     0.75665    0.00119     0.75784
 =======================================================================
   * Total *    0.00000     25.99019    69.76151    0.24830    96.00000

 Normal termination of Gaussian 09 at Wed Sep 29 08:51:56 2021.
