 Gaussian 09, Revision A.02,

 -----------------------------------
 #p opt b3lyp/6-31G* scf=(xqc,tight)
 -----------------------------------

 -------------------------
 COc1ccc2c(c1)cccc2_conf_0
 -------------------------
 Symbolic Z-matrix:
 Charge =  0 Multiplicity = 1

 SCF Done:  E(RB3LYP) =  -500.411772402     A.U. after   14 cycles
 SCF Done:  E(RB3LYP) =  -500.415763908     A.U. after   12 cycles
 SCF Done:  E(RB3LYP) =  -500.416170501     A.U. after   12 cycles
 SCF Done:  E(RB3LYP) =  -500.416284436     A.U. after   11 cycles
 SCF Done:  E(RB3LYP) =  -500.416337295     A.U. after   11 cycles
 SCF Done:  E(RB3LYP) =  -500.416349096     A.U. after   10 cycles
 SCF Done:  E(RB3LYP) =  -500.416350527     A.U. after   16 cycles
 Optimization completed.
    -- Stationary point found.
 Normal termination of Gaussian 09 at Tue Sep 28 14:20:59 2021.

 ----------------------------------------------------------------------
 #p freq b3lyp/6-31G* volume NMR pop=NPA density=current Geom=AllCheck
 Guess=Read
 ----------------------------------------------------------------------

 COc1ccc2c(c1)cccc2_conf_0
 -------------------------
 Redundant internal coordinates taken from checkpoint file:
 C11H10O_b7a8_conf_0.chk
 Charge =  0 Multiplicity = 1

 SCF Done:  E(RB3LYP) =  -500.416350527     A.U. after    1 cycles

  1  C    Isotropic =   137.3398   Anisotropy =    65.4780

  2  O    Isotropic =   235.0403   Anisotropy =    81.1209

  3  C    Isotropic =    40.2664   Anisotropy =   123.1532

  4  C    Isotropic =    76.5992   Anisotropy =   134.7254

  5  C    Isotropic =    66.3077   Anisotropy =   142.9307

  6  C    Isotropic =    67.9401   Anisotropy =   191.7145

  7  C    Isotropic =    62.0796   Anisotropy =   195.3873

  8  C    Isotropic =    89.9507   Anisotropy =   118.0927

  9  C    Isotropic =    69.3126   Anisotropy =   141.6668

 10  C    Isotropic =    69.9518   Anisotropy =   162.0556

 11  C    Isotropic =    72.9506   Anisotropy =   157.7279

 12  C    Isotropic =    67.8785   Anisotropy =   146.1095

 13  H    Isotropic =    28.2084   Anisotropy =     8.1406

 14  H    Isotropic =    28.5107   Anisotropy =     7.9987

 15  H    Isotropic =    28.5115   Anisotropy =     7.9969

 16  H    Isotropic =    25.2285   Anisotropy =     6.2903

 17  H    Isotropic =    24.6741   Anisotropy =     6.5495

 18  H    Isotropic =    25.6359   Anisotropy =     9.2265

 19  H    Isotropic =    24.7304   Anisotropy =     7.5014

 20  H    Isotropic =    24.8671   Anisotropy =     5.1570

 21  H    Isotropic =    24.9773   Anisotropy =     4.8389

 22  H    Isotropic =    24.6836   Anisotropy =     6.6657

  Exact polarizability: 184.006   6.114 125.240  -0.002   0.003  44.490
 Approx polarizability: 297.309  20.455 220.710  -0.007   0.004  67.906

                     1                      2                      3
                     A                      A                      A
 Frequencies --    80.4743               137.8127               190.0690
 Red. masses --     3.2194                 4.4058                 3.4731
 Frc consts  --     0.0123                 0.0493                 0.0739
 IR Inten    --     2.7755                 0.9074                 1.7540

                     4                      5                      6
                     A                      A                      A
 Frequencies --   198.3311               244.1318               321.2789
 Red. masses --     3.4216                 1.1925                 3.4792
 Frc consts  --     0.0793                 0.0419                 0.2116
 IR Inten    --     1.7604                 0.2395                 1.2217

                     7                      8                      9
                     A                      A                      A
 Frequencies --   347.1100               411.9881               439.6407
 Red. masses --     4.1084                 3.3998                 5.9891
 Frc consts  --     0.2916                 0.3400                 0.6820
 IR Inten    --     2.1948                 0.1419                 4.1463

                    10                     11                     12
                     A                      A                      A
 Frequencies --   489.3050               513.8308               530.7474
 Red. masses --     2.5692                 4.9026                 5.1724
 Frc consts  --     0.3624                 0.7626                 0.8585
 IR Inten    --     8.8142                 2.4069                 0.1259

                    13                     14                     15
                     A                      A                      A
 Frequencies --   547.7384               638.2053               655.0123
 Red. masses --     3.6505                 6.5941                 2.9948
 Frc consts  --     0.6453                 1.5824                 0.7570
 IR Inten    --     0.2779                 8.4771                 0.0015

                    16                     17                     18
                     A                      A                      A
 Frequencies --   711.8707               763.6355               770.4490
 Red. masses --     5.9734                 1.3316                 2.8659
 Frc consts  --     1.7835                 0.4575                 1.0023
 IR Inten    --     7.0733                21.2664                 0.0116

                    19                     20                     21
                     A                      A                      A
 Frequencies --   785.8531               829.4016               855.9742
 Red. masses --     4.8660                 1.3486                 1.5220
 Frc consts  --     1.7705                 0.5466                 0.6570
 IR Inten    --     0.1722                12.8083                57.0796

                    22                     23                     24
                     A                      A                      A
 Frequencies --   886.8095               915.1240               948.7589
 Red. masses --     1.6700                 4.8415                 1.3178
 Frc consts  --     0.7738                 2.3888                 0.6989
 IR Inten    --     1.5993                 6.0984                 2.4786

                    25                     26                     27
                     A                      A                      A
 Frequencies --   966.4101               974.0035               985.3851
 Red. masses --     1.2886                 4.0418                 1.2641
 Frc consts  --     0.7091                 2.2592                 0.7232
 IR Inten    --     0.4366                 6.0702                 0.0087

                    28                     29                     30
                     A                      A                      A
 Frequencies --  1053.1675              1075.6198              1151.4597
 Red. masses --     2.3352                 4.4669                 1.6554
 Frc consts  --     1.5261                 3.0449                 1.2932
 IR Inten    --     3.3150                43.3058                14.1618

                    31                     32                     33
                     A                      A                      A
 Frequencies --  1176.6741              1185.5262              1188.2316
 Red. masses --     1.2302                 1.2730                 1.1715
 Frc consts  --     1.0035                 1.0542                 0.9746
 IR Inten    --     3.3364                 0.8006                 1.7909

                    34                     35                     36
                     A                      A                      A
 Frequencies --  1212.4282              1234.4568              1260.4558
 Red. masses --     1.4085                 1.6972                 2.1392
 Frc consts  --     1.2199                 1.5238                 2.0024
 IR Inten    --    30.4058                28.0069                90.2755

                    37                     38                     39
                     A                      A                      A
 Frequencies --  1299.0265              1303.7717              1398.8859
 Red. masses --     1.8397                 2.5596                 1.9687
 Frc consts  --     1.8290                 2.5635                 2.2699
 IR Inten    --    14.6267               142.4159                 7.3766

                    40                     41                     42
                     A                      A                      A
 Frequencies --  1412.0804              1436.2194              1488.3792
 Red. masses --     5.6556                 3.8573                 1.9386
 Frc consts  --     6.6443                 4.6878                 2.5303
 IR Inten    --     0.3810                60.0226                 2.8399

                    43                     44                     45
                     A                      A                      A
 Frequencies --  1495.0148              1518.7668              1528.6371
 Red. masses --     1.5056                 1.0482                 1.9558
 Frc consts  --     1.9826                 1.4245                 2.6927
 IR Inten    --    30.1893                 5.5998                49.6147

                    46                     47                     48
                     A                      A                      A
 Frequencies --  1536.1358              1566.2512              1631.7993
 Red. masses --     1.1073                 3.3149                 7.0503
 Frc consts  --     1.5394                 4.7912                11.0609
 IR Inten    --    15.2802                23.7325                 7.3882

                    49                     50                     51
                     A                      A                      A
 Frequencies --  1663.7755              1687.1837              3025.5685
 Red. masses --     5.2146                 6.0280                 1.0346
 Frc consts  --     8.5047                10.1100                 5.5799
 IR Inten    --    49.4522                90.7795                49.9407

                    52                     53                     54
                     A                      A                      A
 Frequencies --  3084.0168              3158.0105              3174.6382
 Red. masses --     1.1066                 1.0999                 1.0857
 Frc consts  --     6.2009                 6.4628                 6.4466
 IR Inten    --    43.4477                29.2637                 6.0804

                    55                     56                     57
                     A                      A                      A
 Frequencies --  3178.7477              3184.8372              3193.5296
 Red. masses --     1.0884                 1.0884                 1.0929
 Frc consts  --     6.4794                 6.5046                 6.5672
 IR Inten    --     0.3301                10.0948                35.6531

                    58                     59                     60
                     A                      A                      A
 Frequencies --  3207.6282              3215.9337              3216.8238
 Red. masses --     1.0970                 1.0894                 1.0937
 Frc consts  --     6.6498                 6.6385                 6.6681
 IR Inten    --    34.7311                11.3356                 9.4377

 - Thermochemistry -
 -------------------
 Temperature   298.150 Kelvin.  Pressure   1.00000 Atm.
 Atom     1 has atomic number  6 and mass  12.00000

 Molecular mass:   158.07317 amu.
 Principal axes and moments of inertia in atomic units:
                           1         2         3
     Eigenvalues --   772.013032919.844623680.34035
           X            0.99986  -0.01701   0.00000
           Y            0.01701   0.99986   0.00000
           Z           -0.00000  -0.00000   1.00000
 This molecule is an asymmetric top.
 Rotational symmetry number  1.
 Warning -- assumption of classical behavior for rotation
           may cause significant error
 Rotational temperatures (Kelvin)      0.11219     0.02966     0.02353
 Rotational constants (GHZ):           2.33771     0.61809     0.49037
 Zero-point vibrational energy     474217.8 (Joules/Mol)
                                  113.34078 (Kcal/Mol)
 Warning -- explicit consideration of  13 degrees of freedom as
           vibrations may cause significant error
 Vibrational temperatures:    115.78   198.28   273.47   285.35   351.25
          (Kelvin)            462.25   499.41   592.76   632.54   704.00
                              739.29   763.63   788.07   918.23   942.42
                             1024.22  1098.70  1108.50  1130.67  1193.32
                             1231.55  1275.92  1316.66  1365.05  1390.45
                             1401.37  1417.75  1515.27  1547.57  1656.69
                             1692.97  1705.71  1709.60  1744.41  1776.11
                             1813.51  1869.01  1875.83  2012.68  2031.67
                             2066.40  2141.44  2150.99  2185.16  2199.37
                             2210.15  2253.48  2347.79  2393.80  2427.48
                             4353.11  4437.21  4543.67  4567.59  4573.50
                             4582.26  4594.77  4615.06  4627.01  4628.29

 Zero-point correction=                           0.180620 (Hartree/Particle)
 Thermal correction to Energy=                    0.189995
 Thermal correction to Enthalpy=                  0.190939
 Thermal correction to Gibbs Free Energy=         0.146026
 Sum of electronic and zero-point Energies=           -500.235730
 Sum of electronic and thermal Energies=              -500.226356
 Sum of electronic and thermal Enthalpies=            -500.225412
 Sum of electronic and thermal Free Energies=         -500.270325

                     E (Thermal)             CV                S
                      KCal/Mol        Cal/Mol-Kelvin    Cal/Mol-Kelvin
 Total                  119.223             37.951             94.528
 Electronic               0.000              0.000              0.000
 Translational            0.889              2.981             41.083
 Rotational               0.889              2.981             30.496
 Vibrational            117.446             31.990             22.949
 Vibration     1          0.600              1.962              3.879
 Vibration     2          0.614              1.916              2.834
 Vibration     3          0.633              1.854              2.227
 Vibration     4          0.637              1.842              2.149
 Vibration     5          0.659              1.772              1.773
 Vibration     6          0.707              1.633              1.304
 Vibration     7          0.725              1.581              1.179
 Vibration     8          0.776              1.444              0.920
 Vibration     9          0.800              1.384              0.828
 Vibration    10          0.845              1.274              0.685
 Vibration    11          0.869              1.219              0.624
 Vibration    12          0.886              1.182              0.586
 Vibration    13          0.903              1.145              0.549

 Optimization completed.
    -- Stationary point found.
 Normal termination of Gaussian 09 at Tue Sep 28 14:28:24 2021.
 Gaussian 09:  AM64L-G09RevA.02 11-Jun-2009

 ----------------------------------------------------------------------
 #p TD(NStates=10, Root=1) b3lyp/6-31G* volume pop=NPA density=current
 Geom=AllCheck Guess=Read
 ----------------------------------------------------------------------

 COc1ccc2c(c1)cccc2_conf_0
 -------------------------
 Redundant internal coordinates taken from checkpoint file:
 C11H10O_b7a8_conf_0.chk
 Charge =  0 Multiplicity = 1

                         Standard orientation:
 ---------------------------------------------------------------------
 Center     Atomic      Atomic             Coordinates (Angstroms)
 Number     Number       Type             X           Y           Z
 ---------------------------------------------------------------------
      1          6           0        3.650363   -1.100519    0.000249
      2          8           0        3.080406    0.198110   -0.000161
      3          6           0        1.719518    0.300694   -0.000236
      4          6           0        1.230082    1.636878    0.000004
      5          6           0       -0.118936    1.879266    0.000076
      6          6           0       -1.060416    0.811485    0.000023
      7          6           0       -0.564995   -0.531581   -0.000019
      8          6           0        0.839358   -0.762596   -0.000165
      9          6           0       -1.501529   -1.599762   -0.000001
     10          6           0       -2.857310   -1.352955    0.000007
     11          6           0       -3.345059   -0.024562    0.000026
     12          6           0       -2.461505    1.032868    0.000042
     13          1           0        4.732074   -0.954282    0.000618
     14          1           0        3.359864   -1.667557   -0.894236
     15          1           0        3.359219   -1.667320    0.894653
     16          1           0        1.955084    2.444834    0.000114
     17          1           0       -0.486611    2.902731    0.000177
     18          1           0        1.193123   -1.787898   -0.000219
     19          1           0       -1.129811   -2.622049   -0.000007
     20          1           0       -3.559286   -2.182781    0.000011
     21          1           0       -4.416300    0.157078    0.000051
     22          1           0       -2.828039    2.057070    0.000085
 ---------------------------------------------------------------------

 SCF Done:  E(RB3LYP) =  -500.416350527     A.U. after    1 cycles

 Excitation energies and oscillator strengths:

 Excited State   1:      Singlet-A      4.2196 eV  293.83 nm  f=0.0384  <S**2>=0.000
      41 -> 43         0.18998
      41 -> 44         0.18445
      42 -> 43         0.62197
      42 -> 44        -0.19851
 This state for optimization and/or second-order correction.
 Total Energy, E(TD-HF/TD-KS) =  -500.261283074
 Copying the excited state density for this state as the 1-particle RhoCI density.

 Excited State   2:      Singlet-A      4.5891 eV  270.17 nm  f=0.0111  <S**2>=0.000
      41 -> 43         0.49830
      42 -> 43        -0.27987
      42 -> 44        -0.40833

 Excited State   3:      Singlet-A      5.6713 eV  218.62 nm  f=0.4211  <S**2>=0.000
      40 -> 43         0.37555
      41 -> 43         0.31166
      42 -> 44         0.34643
      42 -> 45        -0.36596

 Excited State   4:      Singlet-A      5.8301 eV  212.66 nm  f=0.2546  <S**2>=0.000
      40 -> 43        -0.24302
      40 -> 44         0.11634
      40 -> 45         0.10322
      41 -> 43         0.12327
      41 -> 44         0.54209
      41 -> 45        -0.12810
      42 -> 43        -0.10861
      42 -> 44         0.25640

 Excited State   5:      Singlet-A      5.9336 eV  208.95 nm  f=0.5812  <S**2>=0.000
      39 -> 43        -0.16329
      40 -> 44        -0.12597
      41 -> 43         0.29274
      41 -> 44        -0.20762
      42 -> 44         0.29579
      42 -> 45         0.46051

 Excited State   6:      Singlet-A      6.2268 eV  199.11 nm  f=0.1217  <S**2>=0.000
      40 -> 43         0.31404
      40 -> 44        -0.23431
      41 -> 44         0.28649
      41 -> 45         0.42488
      42 -> 45         0.19978

 Excited State   7:      Singlet-A      6.5492 eV  189.31 nm  f=0.1225  <S**2>=0.000
      39 -> 43         0.36224
      40 -> 43        -0.36255
      41 -> 44        -0.14178
      41 -> 45         0.40040
      42 -> 44         0.10443
      42 -> 45        -0.17269

 Excited State   8:      Singlet-A      6.7102 eV  184.77 nm  f=0.0217  <S**2>=0.000
      39 -> 43         0.47696
      40 -> 43         0.22656
      40 -> 44         0.33968
      41 -> 45        -0.12032
      42 -> 45         0.26187

 Excited State   9:      Singlet-A      6.8453 eV  181.12 nm  f=0.0000  <S**2>=0.000
      37 -> 43        -0.11940
      38 -> 43         0.68878

 Excited State  10:      Singlet-A      7.1751 eV  172.80 nm  f=0.0002  <S**2>=0.000
      35 -> 43        -0.16885
      37 -> 43         0.67276

 The electronic state is 1-A.
 Alpha  occ. eigenvalues --  -19.17862 -10.24656 -10.24113 -10.19552 -10.19047
 Alpha  occ. eigenvalues --  -10.19002 -10.18632 -10.18623 -10.18583 -10.18443
 Alpha  occ. eigenvalues --  -10.18368 -10.18301  -1.06430  -0.86608  -0.81435
 Alpha  occ. eigenvalues --   -0.76736  -0.74687  -0.71593  -0.69601  -0.61798
 Alpha  occ. eigenvalues --   -0.59981  -0.59184  -0.52841  -0.51110  -0.50462
 Alpha  occ. eigenvalues --   -0.46838  -0.46084  -0.44838  -0.43819  -0.42337
 Alpha  occ. eigenvalues --   -0.40878  -0.40331  -0.38754  -0.37161  -0.35151
 Alpha  occ. eigenvalues --   -0.34954  -0.33522  -0.32219  -0.29636  -0.27571
 Alpha  occ. eigenvalues --   -0.22564  -0.20373
 Alpha virt. eigenvalues --   -0.02992   0.00163   0.03898   0.09501   0.10253
 Alpha virt. eigenvalues --    0.11007   0.11824   0.12437   0.14607   0.15542
 Alpha virt. eigenvalues --    0.16715   0.17414   0.17482   0.19118   0.20412

 Mulliken atomic charges:
              1
     1  C   -0.228060
     2  O   -0.462030
     3  C    0.380801
     4  C   -0.197960
     5  C   -0.209889
     6  C    0.149956
     7  C    0.134498
     8  C   -0.263741
     9  C   -0.205277
    10  C   -0.159462
    11  C   -0.112439
    12  C   -0.216482
    13  H    0.180797
    14  H    0.169285
    15  H    0.169293
    16  H    0.125739
    17  H    0.125013
    18  H    0.135662
    19  H    0.114482
    20  H    0.115371
    21  H    0.131243
    22  H    0.123200
 Sum of Mulliken atomic charges =  -0.00000

 Dipole moment (field-independent basis, Debye):
    X=              2.1391    Y=             -1.6035    Z=              0.0005  Tot=              2.6734
 Quadrupole moment (field-independent basis, Debye-Ang):
   XX=            -58.3441   YY=            -63.9320   ZZ=            -73.6558
   XY=             -7.4484   XZ=              0.0015   YZ=              0.0002

 Summary of Natural Population Analysis:

                                       Natural Population
                Natural  -----------------------------------------------
    Atom  No    Charge         Core      Valence    Rydberg      Total
 -----------------------------------------------------------------------
      C    1   -0.32579      1.99943     4.31217    0.01419     6.32579
      O    2   -0.45251      1.99975     6.44099    0.01178     8.45251
      C    3    0.37079      1.99880     3.60782    0.02259     5.62921
      C    4   -0.34724      1.99905     4.33062    0.01756     6.34724
      C    5   -0.21840      1.99907     4.20396    0.01537     6.21840
      C    6   -0.04603      1.99902     4.03192    0.01509     6.04603
      C    7   -0.05086      1.99904     4.03604    0.01578     6.05086
      C    8   -0.27295      1.99899     4.26092    0.01304     6.27295
      C    9   -0.22702      1.99906     4.21269    0.01526     6.22702
      C   10   -0.30008      1.99912     4.28447    0.01649     6.30008
      C   11   -0.16422      1.99911     4.15049    0.01462     6.16422
      C   12   -0.25165      1.99907     4.23722    0.01536     6.25165
      H   13    0.23391      0.00000     0.76559    0.00050     0.76609
      H   14    0.21414      0.00000     0.78418    0.00169     0.78586
      H   15    0.21414      0.00000     0.78417    0.00169     0.78586
      H   16    0.24160      0.00000     0.75737    0.00103     0.75840
      H   17    0.23251      0.00000     0.76642    0.00107     0.76749
      H   18    0.23302      0.00000     0.76575    0.00123     0.76698
      H   19    0.22430      0.00000     0.77454    0.00115     0.77570
      H   20    0.23056      0.00000     0.76863    0.00081     0.76944
      H   21    0.23231      0.00000     0.76683    0.00086     0.76769
      H   22    0.22948      0.00000     0.76941    0.00111     0.77052
 =======================================================================
   * Total *   -0.00000     23.98951    59.81221    0.19828    84.00000

 Normal termination of Gaussian 09 at Tue Sep 28 14:40:53 2021.
