 Gaussian 09, Revision A.02,

 -----------------------------------
 #p opt b3lyp/6-31G* scf=(xqc,tight)
 -----------------------------------

 --------------------------------
 O=C(N(C)C)Oc1ccc(c(c1)C)C_conf_0
 --------------------------------
 Symbolic Z-matrix:
 Charge =  0 Multiplicity = 1

 SCF Done:  E(RB3LYP) =  -633.422847000     A.U. after   15 cycles
 SCF Done:  E(RB3LYP) =  -633.428044778     A.U. after   16 cycles
 SCF Done:  E(RB3LYP) =  -633.427973376     A.U. after   12 cycles
 SCF Done:  E(RB3LYP) =  -633.428750749     A.U. after   12 cycles
 SCF Done:  E(RB3LYP) =  -633.429013720     A.U. after   12 cycles
 SCF Done:  E(RB3LYP) =  -633.429265088     A.U. after   12 cycles
 SCF Done:  E(RB3LYP) =  -633.429385637     A.U. after   11 cycles
 SCF Done:  E(RB3LYP) =  -633.429464887     A.U. after   12 cycles
 SCF Done:  E(RB3LYP) =  -633.429496896     A.U. after   10 cycles
 SCF Done:  E(RB3LYP) =  -633.429507947     A.U. after   10 cycles
 SCF Done:  E(RB3LYP) =  -633.429510453     A.U. after    8 cycles
 SCF Done:  E(RB3LYP) =  -633.429515043     A.U. after    9 cycles
 SCF Done:  E(RB3LYP) =  -633.429518250     A.U. after    9 cycles
 SCF Done:  E(RB3LYP) =  -633.429521222     A.U. after    9 cycles
 SCF Done:  E(RB3LYP) =  -633.429525415     A.U. after   10 cycles
 SCF Done:  E(RB3LYP) =  -633.429528244     A.U. after   10 cycles
 SCF Done:  E(RB3LYP) =  -633.429528915     A.U. after    9 cycles
 SCF Done:  E(RB3LYP) =  -633.429528979     A.U. after    7 cycles
 Optimization completed.
    -- Stationary point found.
 Normal termination of Gaussian 09 at Thu Sep 30 18:35:54 2021.

 ----------------------------------------------------------------------
 #p freq b3lyp/6-31G* volume NMR pop=NPA density=current Geom=AllCheck
 Guess=Read
 ----------------------------------------------------------------------

 O=C(N(C)C)Oc1ccc(c(c1)C)C_conf_0
 --------------------------------
 Redundant internal coordinates taken from checkpoint file:
 C11H15NO2_9d06_conf_0.chk
 Charge =  0 Multiplicity = 1

 SCF Done:  E(RB3LYP) =  -633.429528979     A.U. after    1 cycles

  1  O    Isotropic =    67.8613   Anisotropy =   388.6448

  2  C    Isotropic =    46.7716   Anisotropy =    76.3868

  3  N    Isotropic =   180.8418   Anisotropy =    84.1526

  4  C    Isotropic =   155.3069   Anisotropy =    51.0936

  5  C    Isotropic =   155.6594   Anisotropy =    49.5052

  6  O    Isotropic =   147.1217   Anisotropy =   129.8118

  7  C    Isotropic =    46.3836   Anisotropy =   106.4510

  8  C    Isotropic =    78.5442   Anisotropy =   134.5522

  9  C    Isotropic =    66.3826   Anisotropy =   138.6896

 10  C    Isotropic =    63.5649   Anisotropy =   168.8400

 11  C    Isotropic =    58.7385   Anisotropy =   170.1955

 12  C    Isotropic =    70.9257   Anisotropy =   131.2686

 13  C    Isotropic =   168.0444   Anisotropy =    26.8459

 14  C    Isotropic =   168.7031   Anisotropy =    26.5897

 15  H    Isotropic =    28.1701   Anisotropy =     6.8271

 16  H    Isotropic =    29.9803   Anisotropy =     9.1089

 17  H    Isotropic =    29.8952   Anisotropy =     9.4184

 18  H    Isotropic =    28.3068   Anisotropy =     5.2388

 19  H    Isotropic =    29.6556   Anisotropy =     9.2418

 20  H    Isotropic =    29.8257   Anisotropy =     8.8667

 21  H    Isotropic =    25.6891   Anisotropy =     6.2941

 22  H    Isotropic =    25.2435   Anisotropy =     6.4307

 23  H    Isotropic =    25.1024   Anisotropy =    10.7051

 24  H    Isotropic =    30.0205   Anisotropy =     7.6469

 25  H    Isotropic =    30.2332   Anisotropy =     6.9972

 26  H    Isotropic =    29.9505   Anisotropy =     7.5317

 27  H    Isotropic =    30.2874   Anisotropy =     7.5768

 28  H    Isotropic =    30.0359   Anisotropy =     7.5745

 29  H    Isotropic =    29.9975   Anisotropy =     7.6050

  Exact polarizability: 185.305   4.255 125.728  -5.378   6.334  77.006
 Approx polarizability: 236.577   9.810 202.252 -11.804   9.965 117.467

                     1                      2                      3
                     A                      A                      A
 Frequencies --    28.5337                37.8171                46.7208
 Red. masses --     3.1949                 1.7991                 2.3623
 Frc consts  --     0.0015                 0.0015                 0.0030
 IR Inten    --     1.9802                 0.8343                 0.8203

                     4                      5                      6
                     A                      A                      A
 Frequencies --    78.3268               110.5990               140.2814
 Red. masses --     3.6861                 2.2100                 1.5324
 Frc consts  --     0.0133                 0.0159                 0.0178
 IR Inten    --     2.0830                 1.1175                 0.3299

                     7                      8                      9
                     A                      A                      A
 Frequencies --   143.7401               157.3157               169.7656
 Red. masses --     1.2571                 1.7969                 1.1940
 Frc consts  --     0.0153                 0.0262                 0.0203
 IR Inten    --     0.1013                 0.1585                 0.4847

                    10                     11                     12
                     A                      A                      A
 Frequencies --   218.2998               223.7580               242.9389
 Red. masses --     2.3367                 2.5289                 3.8162
 Frc consts  --     0.0656                 0.0746                 0.1327
 IR Inten    --     1.5520                 2.5548                 1.9893

                    13                     14                     15
                     A                      A                      A
 Frequencies --   302.2849               307.8188               347.2072
 Red. masses --     2.5704                 4.4934                 3.9868
 Frc consts  --     0.1384                 0.2508                 0.2832
 IR Inten    --     0.0646                 0.3428                 1.3362

                    16                     17                     18
                     A                      A                      A
 Frequencies --   383.0655               437.3049               457.1116
 Red. masses --     3.6156                 3.2598                 2.9456
 Frc consts  --     0.3126                 0.3673                 0.3626
 IR Inten    --    17.9914                 5.4399                 1.3210

                    19                     20                     21
                     A                      A                      A
 Frequencies --   469.6005               534.3212               576.9948
 Red. masses --     3.5575                 4.2307                 3.6931
 Frc consts  --     0.4622                 0.7117                 0.7244
 IR Inten    --     2.2787                 1.5026                 3.1705

                    22                     23                     24
                     A                      A                      A
 Frequencies --   590.1785               640.2226               713.3342
 Red. masses --     6.0827                 4.7853                 3.3700
 Frc consts  --     1.2483                 1.1556                 1.0103
 IR Inten    --     2.2338                 4.6498                 0.8550

                    25                     26                     27
                     A                      A                      A
 Frequencies --   739.8104               758.5593               772.7049
 Red. masses --    11.8958                 5.1754                 4.2940
 Frc consts  --     3.8360                 1.7546                 1.5106
 IR Inten    --    17.3597                 0.9892                 1.2281

                    28                     29                     30
                     A                      A                      A
 Frequencies --   824.8078               855.4392               888.7311
 Red. masses --     1.6241                 2.3214                 1.8493
 Frc consts  --     0.6510                 1.0009                 0.8606
 IR Inten    --    17.1150                13.8456                18.5244

                    31                     32                     33
                     A                      A                      A
 Frequencies --   941.6330               965.7340              1024.7392
 Red. masses --     1.2950                 3.6155                 1.5696
 Frc consts  --     0.6765                 1.9867                 0.9711
 IR Inten    --     0.7242                14.9212                22.5925

                    34                     35                     36
                     A                      A                      A
 Frequencies --  1030.5143              1052.3463              1059.7058
 Red. masses --     1.6568                 2.2118                 1.4262
 Frc consts  --     1.0366                 1.4431                 0.9436
 IR Inten    --     6.0576                10.4300                 6.2778

                    37                     38                     39
                     A                      A                      A
 Frequencies --  1084.7217              1093.4677              1143.0996
 Red. masses --     1.5801                 1.3631                 1.2160
 Frc consts  --     1.0954                 0.9603                 0.9362
 IR Inten    --     0.0336                 7.4088                 0.4008

                    40                     41                     42
                     A                      A                      A
 Frequencies --  1143.4542              1182.4992              1190.1682
 Red. masses --     1.7112                 1.7574                 1.3799
 Frc consts  --     1.3182                 1.4478                 1.1517
 IR Inten    --     2.8683               132.3561                14.0173

                    43                     44                     45
                     A                      A                      A
 Frequencies --  1200.5106              1226.6871              1281.7205
 Red. masses --     2.6794                 2.3262                 5.2907
 Frc consts  --     2.2752                 2.0623                 5.1209
 IR Inten    --   528.4589               156.6922               229.2572

                    46                     47                     48
                     A                      A                      A
 Frequencies --  1300.8868              1319.9492              1349.6865
 Red. masses --     5.0968                 1.4564                 6.9634
 Frc consts  --     5.0819                 1.4950                 7.4737
 IR Inten    --    11.1224                33.0803                 5.3806

                    49                     50                     51
                     A                      A                      A
 Frequencies --  1437.8591              1439.6099              1451.3593
 Red. masses --     2.4804                 1.3075                 1.2620
 Frc consts  --     3.0214                 1.5966                 1.5662
 IR Inten    --   280.9743                24.1473                 3.0396

                    52                     53                     54
                     A                      A                      A
 Frequencies --  1456.8579              1459.1639              1488.8332
 Red. masses --     2.8143                 1.1848                 1.2198
 Frc consts  --     3.5193                 1.4863                 1.5930
 IR Inten    --     1.9146                29.7643                63.5401

                    55                     56                     57
                     A                      A                      A
 Frequencies --  1508.3885              1518.8449              1522.0584
 Red. masses --     1.0455                 1.0436                 1.2275
 Frc consts  --     1.4015                 1.4185                 1.6754
 IR Inten    --     0.0205                 2.3854                10.0203

                    58                     59                     60
                     A                      A                      A
 Frequencies --  1522.6511              1525.2123              1530.5342
 Red. masses --     1.0505                 1.1293                 1.0475
 Frc consts  --     1.4351                 1.5478                 1.4457
 IR Inten    --    13.8751                 9.5959                13.8078

                    61                     62                     63
                     A                      A                      A
 Frequencies --  1531.0040              1548.8918              1565.8344
 Red. masses --     1.0483                 2.0996                 1.2486
 Frc consts  --     1.4477                 2.9678                 1.8037
 IR Inten    --    17.6747                77.1898                34.2830

                    64                     65                     66
                     A                      A                      A
 Frequencies --  1642.1648              1668.5254              1816.1204
 Red. masses --     6.6270                 5.9681                10.9154
 Frc consts  --    10.5294                 9.7893                21.2118
 IR Inten    --    10.3058                16.6397               380.5044

                    67                     68                     69
                     A                      A                      A
 Frequencies --  3025.3464              3033.3737              3035.4679
 Red. masses --     1.0418                 1.0427                 1.0389
 Frc consts  --     5.6183                 5.6528                 5.6400
 IR Inten    --    30.0519               134.0678                16.5922

                    70                     71                     72
                     A                      A                      A
 Frequencies --  3037.8393              3073.7481              3077.6521
 Red. masses --     1.0387                 1.1015                 1.1038
 Frc consts  --     5.6476                 6.1315                 6.1602
 IR Inten    --    37.7208                58.1118                19.2629

                    73                     74                     75
                     A                      A                      A
 Frequencies --  3081.6383              3084.6725              3123.8654
 Red. masses --     1.1003                 1.1001                 1.0996
 Frc consts  --     6.1566                 6.1676                 6.3222
 IR Inten    --    32.5240                10.8323                23.9112

                    76                     77                     78
                     A                      A                      A
 Frequencies --  3130.2061              3182.0438              3193.8537
 Red. masses --     1.0995                 1.0888                 1.0959
 Frc consts  --     6.3471                 6.4953                 6.5867
 IR Inten    --    15.0491                20.2845                 0.9650

                    79                     80                     81
                     A                      A                      A
 Frequencies --  3210.4006              3215.7617              3234.2692
 Red. masses --     1.0942                 1.0935                 1.0913
 Frc consts  --     6.6447                 6.6624                 6.7256
 IR Inten    --     3.3235                 9.7186                 3.7745

 - Thermochemistry -
 -------------------
 Temperature   298.150 Kelvin.  Pressure   1.00000 Atm.
 Atom     1 has atomic number  8 and mass  15.99491

 Molecular mass:   193.11028 amu.
 Principal axes and moments of inertia in atomic units:
                           1         2         3
     Eigenvalues --  1014.549415521.935486186.65767
           X            0.99996   0.00876  -0.00255
           Y           -0.00872   0.99983   0.01611
           Z            0.00269  -0.01609   0.99987
 This molecule is an asymmetric top.
 Rotational symmetry number  1.
 Warning -- assumption of classical behavior for rotation
           may cause significant error
 Rotational temperatures (Kelvin)      0.08537     0.01569     0.01400
 Rotational constants (GHZ):           1.77886     0.32683     0.29172
 Zero-point vibrational energy     640978.1 (Joules/Mol)
                                  153.19744 (Kcal/Mol)
 Warning -- explicit consideration of  22 degrees of freedom as
           vibrations may cause significant error
 Vibrational temperatures:     41.05    54.41    67.22   112.69   159.13
          (Kelvin)            201.83   206.81   226.34   244.25   314.08
                              321.94   349.53   434.92   442.88   499.55
                              551.15   629.18   657.68   675.65   768.77
                              830.17   849.13   921.14  1026.33  1064.42
                             1091.40  1111.75  1186.71  1230.78  1278.68
                             1354.80  1389.47  1474.37  1482.68  1514.09
                             1524.68  1560.67  1573.25  1644.66  1645.17
                             1701.35  1712.38  1727.26  1764.93  1844.11
                             1871.68  1899.11  1941.90  2068.76  2071.27
                             2088.18  2096.09  2099.41  2142.10  2170.23
                             2185.28  2189.90  2190.75  2194.44  2202.09
                             2202.77  2228.51  2252.88  2362.71  2400.63
                             2612.99  4352.79  4364.34  4367.36  4370.77
                             4422.43  4428.05  4433.78  4438.15  4494.54
                             4503.66  4578.25  4595.24  4619.04  4626.76
                             4653.39

 Zero-point correction=                           0.244136 (Hartree/Particle)
 Thermal correction to Energy=                    0.259201
 Thermal correction to Enthalpy=                  0.260145
 Thermal correction to Gibbs Free Energy=         0.200603
 Sum of electronic and zero-point Energies=           -633.185393
 Sum of electronic and thermal Energies=              -633.170328
 Sum of electronic and thermal Enthalpies=            -633.169384
 Sum of electronic and thermal Free Energies=         -633.228926

                     E (Thermal)             CV                S
                      KCal/Mol        Cal/Mol-Kelvin    Cal/Mol-Kelvin
 Total                  162.651             54.090            125.316
 Electronic               0.000              0.000              0.000
 Translational            0.889              2.981             41.680
 Rotational               0.889              2.981             31.917
 Vibrational            160.873             48.128             51.720
 Vibration     1          0.593              1.984              5.929
 Vibration     2          0.594              1.982              5.370
 Vibration     3          0.595              1.979              4.952
 Vibration     4          0.600              1.964              3.932
 Vibration     5          0.606              1.941              3.258
 Vibration     6          0.615              1.913              2.800
 Vibration     7          0.616              1.909              2.753
 Vibration     8          0.621              1.894              2.582
 Vibration     9          0.625              1.880              2.438
 Vibration    10          0.646              1.813              1.973
 Vibration    11          0.649              1.805              1.928
 Vibration    12          0.659              1.774              1.781
 Vibration    13          0.694              1.669              1.404
 Vibration    14          0.698              1.659              1.374
 Vibration    15          0.725              1.581              1.179
 Vibration    16          0.752              1.506              1.027
 Vibration    17          0.798              1.389              0.835
 Vibration    18          0.815              1.345              0.775
 Vibration    19          0.827              1.317              0.739
 Vibration    20          0.889              1.174              0.578
 Vibration    21          0.933              1.081              0.491
 Vibration    22          0.948              1.053              0.467

 Normal termination of Gaussian 09 at Thu Sep 30 19:31:37 2021.
 Gaussian 09:  AM64L-G09RevA.02 11-Jun-2009

 ----------------------------------------------------------------------
 #p TD(NStates=10, Root=1) b3lyp/6-31G* volume pop=NPA density=current
 Geom=AllCheck Guess=Read
 ----------------------------------------------------------------------

 O=C(N(C)C)Oc1ccc(c(c1)C)C_conf_0
 --------------------------------
 Redundant internal coordinates taken from checkpoint file:
 C11H15NO2_9d06_conf_0.chk
 Charge =  0 Multiplicity = 1

                         Standard orientation:
 ---------------------------------------------------------------------
 Center     Atomic      Atomic             Coordinates (Angstroms)
 Number     Number       Type             X           Y           Z
 ---------------------------------------------------------------------
      1          8           0       -1.638765    1.251297   -0.917658
      2          6           0       -2.002914    0.305326   -0.245347
      3          7           0       -3.299817    0.019307    0.077023
      4          6           0       -4.351379    0.866172   -0.462379
      5          6           0       -3.730781   -1.144728    0.835361
      6          8           0       -1.149501   -0.627472    0.301729
      7          6           0        0.226601   -0.499215    0.115396
      8          6           0        0.912046   -1.646874   -0.264055
      9          6           0        2.301364   -1.595738   -0.375262
     10          6           0        3.015867   -0.421306   -0.120621
     11          6           0        2.303894    0.735979    0.264462
     12          6           0        0.912356    0.683991    0.385284
     13          6           0        3.029599    2.029923    0.550703
     14          6           0        4.520003   -0.398383   -0.257793
     15          1           0       -3.894624    1.706229   -0.983279
     16          1           0       -4.989186    1.240171    0.348825
     17          1           0       -4.982012    0.303897   -1.164930
     18          1           0       -2.870426   -1.662955    1.251321
     19          1           0       -4.293179   -1.839975    0.195996
     20          1           0       -4.388729   -0.829802    1.655552
     21          1           0        0.360924   -2.560344   -0.463909
     22          1           0        2.841913   -2.492148   -0.670121
     23          1           0        0.359195    1.570393    0.671895
     24          1           0        3.755743    1.917034    1.366488
     25          1           0        2.329016    2.821000    0.833360
     26          1           0        3.591562    2.380195   -0.324833
     27          1           0        4.903167   -1.379759   -0.553932
     28          1           0        5.011914   -0.119061    0.683188
     29          1           0        4.849636    0.328502   -1.011851
 ---------------------------------------------------------------------

 SCF Done:  E(RB3LYP) =  -633.429528979     A.U. after    2 cycles

 Excitation energies and oscillator strengths:

 Excited State   1:      Singlet-A      5.2589 eV  235.76 nm  f=0.0042  <S**2>=0.000
      51 -> 53         0.34650
      51 -> 54         0.25920
      52 -> 53        -0.35646
      52 -> 54         0.42439
 This state for optimization and/or second-order correction.
 Total Energy, E(TD-HF/TD-KS) =  -633.236266151
 Copying the excited state density for this state as the 1-particle RhoCI density.

 Excited State   2:      Singlet-A      5.8193 eV  213.06 nm  f=0.1867  <S**2>=0.000
      51 -> 53         0.18771
      51 -> 54        -0.22327
      52 -> 53         0.49413
      52 -> 54         0.39482

 Excited State   3:      Singlet-A      6.1779 eV  200.69 nm  f=0.0030  <S**2>=0.000
      50 -> 53         0.68248
      51 -> 54        -0.12526

 Excited State   4:      Singlet-A      6.2407 eV  198.67 nm  f=0.0538  <S**2>=0.000
      50 -> 54         0.67677
      51 -> 53         0.13483

 Excited State   5:      Singlet-A      6.4400 eV  192.52 nm  f=0.0294  <S**2>=0.000
      49 -> 53         0.40792
      49 -> 54         0.38130
      49 -> 55         0.25828
      51 -> 53         0.13746
      51 -> 54         0.22017
      51 -> 55         0.14081
      52 -> 53         0.10547
      52 -> 54        -0.10382

 Excited State   6:      Singlet-A      6.6121 eV  187.51 nm  f=0.5237  <S**2>=0.000
      49 -> 53         0.20131
      49 -> 54        -0.22645
      50 -> 54        -0.12408
      51 -> 53         0.39672
      51 -> 54        -0.22325
      52 -> 54        -0.21992
      52 -> 55        -0.34120

 Excited State   7:      Singlet-A      6.7587 eV  183.44 nm  f=0.0837  <S**2>=0.000
      49 -> 53         0.46496
      49 -> 54        -0.29330
      51 -> 53        -0.17395
      51 -> 54        -0.14268
      52 -> 53        -0.15062
      52 -> 55         0.29698

 Excited State   8:      Singlet-A      6.8806 eV  180.19 nm  f=0.1992  <S**2>=0.000
      49 -> 54        -0.36997
      51 -> 53         0.15030
      51 -> 54         0.39044
      52 -> 53         0.23185
      52 -> 54        -0.16441
      52 -> 55         0.24704

 Excited State   9:      Singlet-A      7.0360 eV  176.22 nm  f=0.2829  <S**2>=0.000
      48 -> 53        -0.12517
      49 -> 53        -0.24574
      49 -> 55         0.27776
      51 -> 53         0.21612
      51 -> 54        -0.25446
      51 -> 55         0.18588
      52 -> 53        -0.13645
      52 -> 54        -0.12933
      52 -> 55         0.38005

 Excited State  10:      Singlet-A      7.1288 eV  173.92 nm  f=0.0370  <S**2>=0.000
      48 -> 53         0.15062
      48 -> 54         0.17811
      49 -> 54        -0.23498
      49 -> 55         0.39246
      51 -> 53        -0.13961
      51 -> 55         0.35778
      52 -> 55        -0.25003

 The electronic state is 1-A.
 Alpha  occ. eigenvalues --  -19.18964 -19.11222 -14.36726 -10.32960 -10.24072
 Alpha  occ. eigenvalues --  -10.22054 -10.21527 -10.19132 -10.18797 -10.18299
 Alpha  occ. eigenvalues --  -10.18164 -10.18017 -10.17927 -10.17921  -1.10071
 Alpha  occ. eigenvalues --   -1.00964  -0.93878  -0.85219  -0.77533  -0.75743
 Alpha  occ. eigenvalues --   -0.72570  -0.71244  -0.68970  -0.66590  -0.60790
 Alpha  occ. eigenvalues --   -0.58839  -0.54479  -0.53021  -0.48859  -0.48314
 Alpha  occ. eigenvalues --   -0.47196  -0.46728  -0.44308  -0.43017  -0.42532
 Alpha  occ. eigenvalues --   -0.41759  -0.40709  -0.40570  -0.40492  -0.40035
 Alpha  occ. eigenvalues --   -0.39482  -0.38273  -0.38202  -0.37678  -0.34663
 Alpha  occ. eigenvalues --   -0.34120  -0.33170  -0.30288  -0.26844  -0.24222
 Alpha  occ. eigenvalues --   -0.23706  -0.22069
 Alpha virt. eigenvalues --    0.00697   0.01012   0.05862   0.09268   0.09579
 Alpha virt. eigenvalues --    0.10586   0.13224   0.13444   0.14153   0.14470
 Alpha virt. eigenvalues --    0.15202   0.15537   0.15826   0.16315   0.17294

 Mulliken atomic charges:
              1
     1  O   -0.504031
     2  C    0.782499
     3  N   -0.433413
     4  C   -0.318193
     5  C   -0.316571
     6  O   -0.541401
     7  C    0.355998
     8  C   -0.171002
     9  C   -0.212553
    10  C    0.147053
    11  C    0.105342
    12  C   -0.204987
    13  C   -0.530218
    14  C   -0.534517
    15  H    0.206336
    16  H    0.154536
    17  H    0.155503
    18  H    0.199692
    19  H    0.156696
    20  H    0.156934
    21  H    0.130095
    22  H    0.120857
    23  H    0.141084
    24  H    0.154338
    25  H    0.158038
    26  H    0.158198
    27  H    0.156209
    28  H    0.162611
    29  H    0.164868
 Sum of Mulliken atomic charges =  -0.00000

 Dipole moment (field-independent basis, Debye):
    X=             -1.4845    Y=             -1.2163    Z=              1.2511  Tot=              2.2909
 Quadrupole moment (field-independent basis, Debye-Ang):
   XX=            -62.4710   YY=            -81.6201   ZZ=            -85.5639
   XY=              2.9881   XZ=             -2.5135   YZ=              2.8102

 Summary of Natural Population Analysis:

                                       Natural Population
                Natural  -----------------------------------------------
    Atom  No    Charge         Core      Valence    Rydberg      Total
 -----------------------------------------------------------------------
      O    1   -0.63855      1.99978     6.61966    0.01912     8.63855
      C    2    0.93786      1.99937     3.01773    0.04504     5.06214
      N    3   -0.48343      1.99932     5.47314    0.01097     7.48343
      C    4   -0.46932      1.99947     4.45796    0.01190     6.46932
      C    5   -0.47086      1.99946     4.45988    0.01151     6.47086
      O    6   -0.53466      1.99969     6.52456    0.01041     8.53466
      C    7    0.31818      1.99872     3.65960    0.02351     5.68182
      C    8   -0.27498      1.99903     4.25715    0.01879     6.27498
      C    9   -0.24396      1.99908     4.22721    0.01767     6.24396
      C   10    0.00382      1.99901     3.98186    0.01531     5.99618
      C   11   -0.03809      1.99902     4.02285    0.01622     6.03809
      C   12   -0.27205      1.99897     4.25590    0.01718     6.27205
      C   13   -0.69133      1.99941     4.68421    0.00772     6.69133
      C   14   -0.69588      1.99940     4.68881    0.00767     6.69588
      H   15    0.26371      0.00000     0.73476    0.00153     0.73629
      H   16    0.22081      0.00000     0.77789    0.00130     0.77919
      H   17    0.21932      0.00000     0.77924    0.00145     0.78068
      H   18    0.25729      0.00000     0.74181    0.00089     0.74271
      H   19    0.21995      0.00000     0.77840    0.00165     0.78005
      H   20    0.22323      0.00000     0.77532    0.00145     0.77677
      H   21    0.23709      0.00000     0.76174    0.00118     0.76291
      H   22    0.22636      0.00000     0.77261    0.00104     0.77364
      H   23    0.24410      0.00000     0.75457    0.00132     0.75590
      H   24    0.23579      0.00000     0.76269    0.00152     0.76421
      H   25    0.24042      0.00000     0.75878    0.00081     0.75958
      H   26    0.23851      0.00000     0.75996    0.00153     0.76149
      H   27    0.23933      0.00000     0.75982    0.00085     0.76067
      H   28    0.24300      0.00000     0.75564    0.00136     0.75700
      H   29    0.24437      0.00000     0.75426    0.00137     0.75563
 =======================================================================
   * Total *   -0.00000     27.98973    75.75800    0.25227   104.00000

 Normal termination of Gaussian 09 at Thu Sep 30 23:43:27 2021.
