 Gaussian 09, Revision A.02,

 -----------------------------------
 #p opt b3lyp/6-31G* scf=(xqc,tight)
 -----------------------------------

 ---------------------------------
 COc1ccc(cc1)[C@@H](N(C)C)C_conf_0
 ---------------------------------
 Symbolic Z-matrix:
 Charge =  0 Multiplicity = 1

 SCF Done:  E(RB3LYP) =  -559.356268254     A.U. after   14 cycles
 SCF Done:  E(RB3LYP) =  -559.359080957     A.U. after   15 cycles
 SCF Done:  E(RB3LYP) =  -559.359648569     A.U. after   15 cycles
 SCF Done:  E(RB3LYP) =  -559.359666098     A.U. after   15 cycles
 SCF Done:  E(RB3LYP) =  -559.359793578     A.U. after   11 cycles
 SCF Done:  E(RB3LYP) =  -559.359815201     A.U. after   11 cycles
 SCF Done:  E(RB3LYP) =  -559.359821629     A.U. after   10 cycles
 SCF Done:  E(RB3LYP) =  -559.359832462     A.U. after   10 cycles
 SCF Done:  E(RB3LYP) =  -559.359853382     A.U. after   11 cycles
 SCF Done:  E(RB3LYP) =  -559.359844674     A.U. after    9 cycles
 SCF Done:  E(RB3LYP) =  -559.359846790     A.U. after    8 cycles
 Optimization completed.
    -- Stationary point found.
 Normal termination of Gaussian 09 at Tue Sep 28 14:26:13 2021.

 ----------------------------------------------------------------------
 #p freq b3lyp/6-31G* volume NMR pop=NPA density=current Geom=AllCheck
 Guess=Read
 ----------------------------------------------------------------------

 COc1ccc(cc1)[C@@H](N(C)C)C_conf_0
 ---------------------------------
 Redundant internal coordinates taken from checkpoint file:
 C11H17NO_d167_conf_0.chk
 Charge =  0 Multiplicity = 1

 SCF Done:  E(RB3LYP) =  -559.359846790     A.U. after    1 cycles

  1  C    Isotropic =   137.5826   Anisotropy =    64.7884

  2  O    Isotropic =   238.8173   Anisotropy =    76.1355

  3  C    Isotropic =    39.7766   Anisotropy =   125.4311

  4  C    Isotropic =    87.2853   Anisotropy =   140.6766

  5  C    Isotropic =    67.7508   Anisotropy =   145.4481

  6  C    Isotropic =    57.8953   Anisotropy =   171.1841

  7  C    Isotropic =    68.6153   Anisotropy =   166.9118

  8  C    Isotropic =    77.7756   Anisotropy =   135.2055

  9  C    Isotropic =   123.6454   Anisotropy =    36.2295

 10  N    Isotropic =   211.7784   Anisotropy =    46.8234

 11  C    Isotropic =   147.9844   Anisotropy =    54.4410

 12  C    Isotropic =   145.9305   Anisotropy =    57.4971

 13  C    Isotropic =   164.6520   Anisotropy =    26.6188

 14  H    Isotropic =    28.3320   Anisotropy =     8.2119

 15  H    Isotropic =    28.6763   Anisotropy =     8.0625

 16  H    Isotropic =    28.6721   Anisotropy =     8.0318

 17  H    Isotropic =    25.9235   Anisotropy =     7.1790

 18  H    Isotropic =    25.2818   Anisotropy =     7.7299

 19  H    Isotropic =    24.5898   Anisotropy =     9.5958

 20  H    Isotropic =    25.4804   Anisotropy =     5.9372

 21  H    Isotropic =    29.2093   Anisotropy =     5.0805

 22  H    Isotropic =    29.4492   Anisotropy =     8.3058

 23  H    Isotropic =    30.0178   Anisotropy =     9.4834

 24  H    Isotropic =    30.2953   Anisotropy =     9.0263

 25  H    Isotropic =    29.9759   Anisotropy =     4.9977

 26  H    Isotropic =    30.5618   Anisotropy =     8.3791

 27  H    Isotropic =    30.2281   Anisotropy =     9.6016

 28  H    Isotropic =    30.9731   Anisotropy =     6.7426

 29  H    Isotropic =    30.6750   Anisotropy =     8.5820

 30  H    Isotropic =    31.2454   Anisotropy =     7.2047

  Exact polarizability: 177.644  -4.192  92.735  -2.989 -11.472 109.851
 Approx polarizability: 229.631  -9.244 133.845  -2.086 -31.103 186.378

                     1                      2                      3
                     A                      A                      A
 Frequencies --    38.9301                67.7502                73.4893
 Red. masses --     3.2436                 3.3060                 2.6940
 Frc consts  --     0.0029                 0.0089                 0.0086
 IR Inten    --     0.6884                 0.4968                 0.5932

                     4                      5                      6
                     A                      A                      A
 Frequencies --   104.6964               156.8486               197.4573
 Red. masses --     3.6229                 3.5190                 2.6895
 Frc consts  --     0.0234                 0.0510                 0.0618
 IR Inten    --     2.7072                 0.9867                 0.8288

                     7                      8                      9
                     A                      A                      A
 Frequencies --   226.5127               236.4969               246.8067
 Red. masses --     2.0795                 1.1044                 1.1618
 Frc consts  --     0.0629                 0.0364                 0.0417
 IR Inten    --     0.6492                 0.5269                 0.0848

                    10                     11                     12
                     A                      A                      A
 Frequencies --   262.1672               263.3510               308.3136
 Red. masses --     1.4691                 1.3733                 2.4655
 Frc consts  --     0.0595                 0.0561                 0.1381
 IR Inten    --     1.1895                 0.6200                 0.6844

                    13                     14                     15
                     A                      A                      A
 Frequencies --   355.4308               375.7988               417.6823
 Red. masses --     2.6374                 2.7467                 2.5655
 Frc consts  --     0.1963                 0.2285                 0.2637
 IR Inten    --     5.3515                 1.7978                 0.7058

                    16                     17                     18
                     A                      A                      A
 Frequencies --   429.0086               462.4806               473.8261
 Red. masses --     3.0404                 3.5735                 2.9525
 Frc consts  --     0.3297                 0.4503                 0.3906
 IR Inten    --     0.4203                 0.7423                 0.0591

                    19                     20                     21
                     A                      A                      A
 Frequencies --   510.5837               567.2660               589.1899
 Red. masses --     2.8209                 2.3372                 4.0430
 Frc consts  --     0.4333                 0.4431                 0.8269
 IR Inten    --     0.9352                 9.5217                11.7724

                    22                     23                     24
                     A                      A                      A
 Frequencies --   651.9513               732.8971               743.3640
 Red. masses --     6.8650                 3.0810                 4.2779
 Frc consts  --     1.7192                 0.9750                 1.3928
 IR Inten    --     1.0223                 1.3494                 3.8085

                    25                     26                     27
                     A                      A                      A
 Frequencies --   812.2112               825.7566               845.3204
 Red. masses --     2.8779                 1.3988                 3.1699
 Frc consts  --     1.1186                 0.5620                 1.3346
 IR Inten    --    17.6012                10.7108                 4.3576

                    28                     29                     30
                     A                      A                      A
 Frequencies --   854.8328               938.9513               970.2824
 Red. masses --     1.6957                 1.3216                 1.6076
 Frc consts  --     0.7301                 0.6865                 0.8917
 IR Inten    --    32.4345                 0.0224                 8.9079

                    31                     32                     33
                     A                      A                      A
 Frequencies --   976.7275              1030.9358              1037.5748
 Red. masses --     1.7606                 2.8096                 1.8049
 Frc consts  --     0.9896                 1.7594                 1.1449
 IR Inten    --    24.9529                 0.8141                10.7384

                    34                     35                     36
                     A                      A                      A
 Frequencies --  1070.3580              1081.0403              1095.8973
 Red. masses --     1.6436                 5.7844                 1.9346
 Frc consts  --     1.1094                 3.9828                 1.3689
 IR Inten    --    10.1646                66.4615                 1.7268

                    37                     38                     39
                     A                      A                      A
 Frequencies --  1109.6776              1133.3790              1142.6014
 Red. masses --     1.7761                 1.3090                 1.3135
 Frc consts  --     1.2886                 0.9907                 1.0104
 IR Inten    --    22.4794                11.5048                 9.1837

                    40                     41                     42
                     A                      A                      A
 Frequencies --  1185.3454              1193.7399              1206.7229
 Red. masses --     1.2710                 1.4875                 1.1903
 Frc consts  --     1.0522                 1.2489                 1.0212
 IR Inten    --     0.7823                18.6188                23.6073

                    43                     44                     45
                     A                      A                      A
 Frequencies --  1217.5721              1224.1727              1258.9711
 Red. masses --     1.4120                 2.6373                 2.2606
 Frc consts  --     1.2333                 2.3286                 2.1111
 IR Inten    --     8.2971                 5.6600                 7.5741

                    46                     47                     48
                     A                      A                      A
 Frequencies --  1293.2081              1305.7474              1329.7933
 Red. masses --     5.1339                 2.3483                 1.6943
 Frc consts  --     5.0587                 2.3590                 1.7652
 IR Inten    --   289.7370                17.7275                 7.1429

                    49                     50                     51
                     A                      A                      A
 Frequencies --  1351.8337              1371.7213              1398.5646
 Red. masses --     2.7954                 1.3035                 1.8299
 Frc consts  --     3.0098                 1.4451                 2.1088
 IR Inten    --    29.7565                17.4584                56.5032

                    52                     53                     54
                     A                      A                      A
 Frequencies --  1431.5016              1464.8689              1468.9053
 Red. masses --     1.2322                 1.2629                 2.2668
 Frc consts  --     1.4877                 1.5967                 2.8817
 IR Inten    --     7.4816                 4.8626                 1.8880

                    55                     56                     57
                     A                      A                      A
 Frequencies --  1499.0214              1499.1980              1514.7895
 Red. masses --     1.1989                 1.1884                 1.0457
 Frc consts  --     1.5873                 1.5737                 1.4137
 IR Inten    --    15.4115                 4.5345                 7.7780

                    58                     59                     60
                     A                      A                      A
 Frequencies --  1519.8273              1521.1014              1527.8619
 Red. masses --     1.0484                 1.0530                 1.0492
 Frc consts  --     1.4269                 1.4355                 1.4431
 IR Inten    --     5.2493                 1.8734                12.0882

                    61                     62                     63
                     A                      A                      A
 Frequencies --  1529.5740              1534.8687              1537.9039
 Red. masses --     1.0673                 1.0637                 1.0474
 Frc consts  --     1.4712                 1.4764                 1.4596
 IR Inten    --     8.9867                42.4282                 2.7690

                    64                     65                     66
                     A                      A                      A
 Frequencies --  1547.2529              1563.6758              1634.5897
 Red. masses --     1.0514                 2.3946                 6.3876
 Frc consts  --     1.4829                 3.4496                10.0555
 IR Inten    --     4.1381                96.2724                12.0815

                    67                     68                     69
                     A                      A                      A
 Frequencies --  1673.8841              2891.5897              2925.8120
 Red. masses --     5.8003                 1.0811                 1.0626
 Frc consts  --     9.5753                 5.3258                 5.3593
 IR Inten    --    58.0583                43.9512                46.2499

                    70                     71                     72
                     A                      A                      A
 Frequencies --  2938.2794              3022.1532              3057.5309
 Red. masses --     1.0636                 1.0350                 1.0356
 Frc consts  --     5.4101                 5.5694                 5.7039
 IR Inten    --   158.6007                60.1424                19.3551

                    73                     74                     75
                     A                      A                      A
 Frequencies --  3079.6355              3086.6862              3092.0425
 Red. masses --     1.1066                 1.0739                 1.0715
 Frc consts  --     6.1836                 6.0284                 6.0356
 IR Inten    --    45.7319                14.8348                59.3446

                    76                     77                     78
                     A                      A                      A
 Frequencies --  3127.7678              3132.7468              3143.7369
 Red. masses --     1.1032                 1.1019                 1.0991
 Frc consts  --     6.3588                 6.3716                 6.4001
 IR Inten    --    35.9401                24.2401                33.7470

                    79                     80                     81
                     A                      A                      A
 Frequencies --  3147.4378              3154.7132              3173.6855
 Red. masses --     1.0994                 1.0994                 1.0888
 Frc consts  --     6.4170                 6.4463                 6.4616
 IR Inten    --    25.9509                29.7193                15.7355

                    82                     83                     84
                     A                      A                      A
 Frequencies --  3200.2230              3215.2512              3222.0766
 Red. masses --     1.0871                 1.0944                 1.0912
 Frc consts  --     6.5597                 6.6657                 6.6746
 IR Inten    --     5.5226                 9.5074                13.6443

 - Thermochemistry -
 -------------------
 Temperature   298.150 Kelvin.  Pressure   1.00000 Atm.
 Atom     1 has atomic number  6 and mass  12.00000

 Molecular mass:   179.13101 amu.
 Principal axes and moments of inertia in atomic units:
                           1         2         3
     Eigenvalues --   861.774414962.636765070.43311
           X            0.99998   0.00212  -0.00652
           Y           -0.00172   0.99822   0.05967
           Z            0.00663  -0.05966   0.99820
 This molecule is an asymmetric top.
 Rotational symmetry number  1.
 Warning -- assumption of classical behavior for rotation
           may cause significant error
 Rotational temperatures (Kelvin)      0.10051     0.01745     0.01708
 Rotational constants (GHZ):           2.09422     0.36367     0.35593
 Zero-point vibrational energy     692849.7 (Joules/Mol)
                                  165.59506 (Kcal/Mol)
 Warning -- explicit consideration of  21 degrees of freedom as
           vibrations may cause significant error
 Vibrational temperatures:     56.01    97.48   105.73   150.63   225.67
          (Kelvin)            284.10   325.90   340.27   355.10   377.20
                              378.90   443.59   511.39   540.69   600.95
                              617.25   665.41   681.73   734.62   816.17
                              847.71   938.01  1054.47  1069.53  1168.59
                             1188.08  1216.23  1229.91  1350.94  1396.02
                             1405.29  1483.28  1492.84  1540.00  1555.37
                             1576.75  1596.58  1630.68  1643.95  1705.45
                             1717.52  1736.20  1751.81  1761.31  1811.38
                             1860.64  1878.68  1913.27  1944.98  1973.60
                             2012.22  2059.61  2107.62  2113.42  2156.75
                             2157.01  2179.44  2186.69  2188.52  2198.25
                             2200.71  2208.33  2212.70  2226.15  2249.78
                             2351.81  2408.34  4160.35  4209.59  4227.52
                             4348.20  4399.10  4430.90  4441.05  4448.75
                             4500.15  4507.32  4523.13  4528.46  4538.92
                             4566.22  4604.40  4626.02  4635.84

 Zero-point correction=                           0.263893 (Hartree/Particle)
 Thermal correction to Energy=                    0.277448
 Thermal correction to Enthalpy=                  0.278392
 Thermal correction to Gibbs Free Energy=         0.223832
 Sum of electronic and zero-point Energies=           -559.095954
 Sum of electronic and thermal Energies=              -559.082399
 Sum of electronic and thermal Enthalpies=            -559.081455
 Sum of electronic and thermal Free Energies=         -559.136015

                     E (Thermal)             CV                S
                      KCal/Mol        Cal/Mol-Kelvin    Cal/Mol-Kelvin
 Total                  174.101             51.491            114.832
 Electronic               0.000              0.000              0.000
 Translational            0.889              2.981             41.456
 Rotational               0.889              2.981             31.451
 Vibrational            172.324             45.529             41.926
 Vibration     1          0.594              1.981              5.313
 Vibration     2          0.598              1.970              4.218
 Vibration     3          0.599              1.967              4.058
 Vibration     4          0.605              1.945              3.365
 Vibration     5          0.621              1.895              2.587
 Vibration     6          0.637              1.843              2.157
 Vibration     7          0.650              1.801              1.906
 Vibration     8          0.655              1.785              1.829
 Vibration     9          0.661              1.768              1.753
 Vibration    10          0.669              1.742              1.647
 Vibration    11          0.670              1.740              1.639
 Vibration    12          0.698              1.658              1.371
 Vibration    13          0.731              1.564              1.142
 Vibration    14          0.747              1.522              1.056
 Vibration    15          0.781              1.432              0.900
 Vibration    16          0.790              1.407              0.862
 Vibration    17          0.820              1.333              0.759
 Vibration    18          0.831              1.308              0.727
 Vibration    19          0.866              1.227              0.632
 Vibration    20          0.923              1.102              0.510
 Vibration    21          0.946              1.055              0.469

 Optimization completed.
    -- Stationary point found.
 Normal termination of Gaussian 09 at Tue Sep 28 14:34:18 2021.
 Gaussian 09:  AM64L-G09RevA.02 11-Jun-2009

 ----------------------------------------------------------------------
 #p TD(NStates=10, Root=1) b3lyp/6-31G* volume pop=NPA density=current
 Geom=AllCheck Guess=Read
 ----------------------------------------------------------------------

 COc1ccc(cc1)[C@@H](N(C)C)C_conf_0
 ---------------------------------
 Redundant internal coordinates taken from checkpoint file:
 C11H17NO_d167_conf_0.chk
 Charge =  0 Multiplicity = 1

                         Standard orientation:
 ---------------------------------------------------------------------
 Center     Atomic      Atomic             Coordinates (Angstroms)
 Number     Number       Type             X           Y           Z
 ---------------------------------------------------------------------
      1          6           0        4.660500   -0.047214   -0.423283
      2          8           0        3.689302   -0.386601    0.551404
      3          6           0        2.376332   -0.128355    0.269793
      4          6           0        1.912893    0.447993   -0.916580
      5          6           0        0.539887    0.657242   -1.089361
      6          6           0       -0.385716    0.311204   -0.105191
      7          6           0        0.099538   -0.268361    1.079270
      8          6           0        1.457040   -0.488679    1.267320
      9          6           0       -1.870349    0.612059   -0.278961
     10          7           0       -2.686912   -0.557205    0.098064
     11          6           0       -4.119896   -0.286901    0.139971
     12          6           0       -2.424340   -1.695048   -0.779777
     13          6           0       -2.234931    1.862883    0.543334
     14          1           0        5.624985   -0.332671    0.001234
     15          1           0        4.663118    1.030663   -0.634848
     16          1           0        4.501774   -0.595707   -1.361669
     17          1           0        2.598125    0.728917   -1.708457
     18          1           0        0.191013    1.101166   -2.019757
     19          1           0       -0.608832   -0.564821    1.847441
     20          1           0        1.834390   -0.941573    2.179277
     21          1           0       -2.039394    0.861716   -1.347707
     22          1           0       -4.358783    0.447104    0.912813
     23          1           0       -4.645850   -1.213697    0.392300
     24          1           0       -4.526949    0.078157   -0.824658
     25          1           0       -1.360687   -1.943116   -0.768223
     26          1           0       -2.721591   -1.504810   -1.830587
     27          1           0       -2.983601   -2.566652   -0.423073
     28          1           0       -2.183679    1.647616    1.616654
     29          1           0       -3.235816    2.238477    0.308726
     30          1           0       -1.519997    2.661529    0.323663
 ---------------------------------------------------------------------

 SCF Done:  E(RB3LYP) =  -559.359846790     A.U. after    1 cycles

 Excitation energies and oscillator strengths:

 Excited State   1:      Singlet-A      5.0147 eV  247.24 nm  f=0.0128  <S**2>=0.000
      47 -> 51        -0.18270
      49 -> 50         0.67923
 This state for optimization and/or second-order correction.
 Total Energy, E(TD-HF/TD-KS) =  -559.175560344
 Copying the excited state density for this state as the 1-particle RhoCI density.

 Excited State   2:      Singlet-A      5.1410 eV  241.17 nm  f=0.0140  <S**2>=0.000
      47 -> 51         0.24218
      48 -> 50         0.65673

 Excited State   3:      Singlet-A      5.3433 eV  232.04 nm  f=0.0037  <S**2>=0.000
      48 -> 51         0.38430
      49 -> 51         0.58642

 Excited State   4:      Singlet-A      5.8366 eV  212.43 nm  f=0.2076  <S**2>=0.000
      47 -> 50        -0.29491
      48 -> 51         0.53371
      49 -> 51        -0.34226

 Excited State   5:      Singlet-A      6.8855 eV  180.07 nm  f=0.3048  <S**2>=0.000
      46 -> 50         0.20216
      47 -> 50        -0.27171
      47 -> 51         0.52702
      48 -> 50        -0.21403
      48 -> 51        -0.11648
      49 -> 50         0.15189
      49 -> 51         0.10536

 Excited State   6:      Singlet-A      6.9271 eV  178.98 nm  f=0.7297  <S**2>=0.000
      46 -> 50         0.10422
      47 -> 50         0.56742
      47 -> 51         0.27367
      48 -> 51         0.19702
      49 -> 51        -0.14632

 Excited State   7:      Singlet-A      7.1810 eV  172.66 nm  f=0.0409  <S**2>=0.000
      48 -> 52         0.30469
      48 -> 53        -0.16546
      49 -> 52         0.57997
      49 -> 53        -0.16781

 Excited State   8:      Singlet-A      7.3182 eV  169.42 nm  f=0.0032  <S**2>=0.000
      48 -> 52         0.43310
      48 -> 53         0.27156
      49 -> 52        -0.25542
      49 -> 53        -0.37635
      49 -> 54         0.12771

 Excited State   9:      Singlet-A      7.6103 eV  162.92 nm  f=0.0029  <S**2>=0.000
      45 -> 50         0.65460
      48 -> 52         0.12685
      48 -> 53        -0.10431
      49 -> 53         0.11883

 Excited State  10:      Singlet-A      7.6329 eV  162.43 nm  f=0.0062  <S**2>=0.000
      45 -> 50        -0.20764
      48 -> 52         0.40661
      48 -> 53        -0.30981
      49 -> 52        -0.18755
      49 -> 53         0.38382

 The electronic state is 1-A.
 Alpha  occ. eigenvalues --  -19.17295 -14.32004 -10.24031 -10.23825 -10.21322
 Alpha  occ. eigenvalues --  -10.19617 -10.19148 -10.18393 -10.18218 -10.17974
 Alpha  occ. eigenvalues --  -10.17915 -10.17762 -10.17201  -1.05852  -0.91468
 Alpha  occ. eigenvalues --   -0.84359  -0.77151  -0.74180  -0.72800  -0.70015
 Alpha  occ. eigenvalues --   -0.68120  -0.64252  -0.60478  -0.59024  -0.55232
 Alpha  occ. eigenvalues --   -0.52660  -0.48656  -0.47895  -0.46448  -0.45887
 Alpha  occ. eigenvalues --   -0.44698  -0.44133  -0.42185  -0.42000  -0.41136
 Alpha  occ. eigenvalues --   -0.39730  -0.38780  -0.38315  -0.37022  -0.36178
 Alpha  occ. eigenvalues --   -0.35653  -0.34693  -0.34261  -0.32670  -0.31909
 Alpha  occ. eigenvalues --   -0.30529  -0.24368  -0.21124  -0.20674
 Alpha virt. eigenvalues --    0.00513   0.01784   0.09186   0.09893   0.11178
 Alpha virt. eigenvalues --    0.12646   0.13412   0.14164   0.14774   0.15507
 Alpha virt. eigenvalues --    0.15798   0.16273   0.16757   0.16875   0.17084

 Mulliken atomic charges:
              1
     1  C   -0.204307
     2  O   -0.490786
     3  C    0.368771
     4  C   -0.232710
     5  C   -0.268167
     6  C    0.153309
     7  C   -0.234902
     8  C   -0.233428
     9  C   -0.051331
    10  N   -0.259753
    11  C   -0.328159
    12  C   -0.334521
    13  C   -0.464576
    14  H    0.154872
    15  H    0.149287
    16  H    0.147325
    17  H    0.088751
    18  H    0.068505
    19  H    0.076456
    20  H    0.088238
    21  H    0.164461
    22  H    0.199293
    23  H    0.179285
    24  H    0.181824
    25  H    0.238490
    26  H    0.174393
    27  H    0.172659
    28  H    0.174363
    29  H    0.132708
    30  H    0.189653
 Sum of Mulliken atomic charges =  -0.00000

 Dipole moment (field-independent basis, Debye):
    X=             -7.2048    Y=             -0.5622    Z=             -2.1693  Tot=              7.5452
 Quadrupole moment (field-independent basis, Debye-Ang):
   XX=            -53.8916   YY=            -78.3063   ZZ=            -80.4452
   XY=              3.7733   XZ=             -2.7240   YZ=              1.1981

 Summary of Natural Population Analysis:

                                       Natural Population
                Natural  -----------------------------------------------
    Atom  No    Charge         Core      Valence    Rydberg      Total
 -----------------------------------------------------------------------
      C    1   -0.31428      1.99943     4.30104    0.01381     6.31428
      O    2   -0.49253      1.99975     6.48113    0.01166     8.49253
      C    3    0.34471      1.99878     3.63335    0.02316     5.65529
      C    4   -0.39506      1.99904     4.37849    0.01753     6.39506
      C    5   -0.34117      1.99904     4.32274    0.01939     6.34117
      C    6   -0.07652      1.99900     4.05885    0.01867     6.07652
      C    7   -0.33192      1.99904     4.31541    0.01747     6.33192
      C    8   -0.39160      1.99905     4.37148    0.02108     6.39160
      C    9   -0.08454      1.99911     4.06684    0.01859     6.08454
      N   10   -0.20819      1.99932     5.19715    0.01172     7.20819
      C   11   -0.50224      1.99945     4.48997    0.01282     6.50224
      C   12   -0.50359      1.99944     4.49046    0.01369     6.50359
      C   13   -0.68229      1.99940     4.67411    0.00878     6.68229
      H   14    0.21857      0.00000     0.78083    0.00060     0.78143
      H   15    0.20288      0.00000     0.79459    0.00253     0.79712
      H   16    0.20161      0.00000     0.79588    0.00251     0.79839
      H   17    0.21652      0.00000     0.78260    0.00088     0.78348
      H   18    0.20341      0.00000     0.79578    0.00082     0.79659
      H   19    0.20913      0.00000     0.79059    0.00028     0.79087
      H   20    0.22343      0.00000     0.77544    0.00112     0.77657
      H   21    0.26669      0.00000     0.73118    0.00213     0.73331
      H   22    0.25416      0.00000     0.74536    0.00048     0.74584
      H   23    0.24448      0.00000     0.75477    0.00075     0.75552
      H   24    0.24385      0.00000     0.75480    0.00135     0.75615
      H   25    0.28277      0.00000     0.71695    0.00028     0.71723
      H   26    0.23883      0.00000     0.75998    0.00118     0.76117
      H   27    0.23990      0.00000     0.75938    0.00072     0.76010
      H   28    0.24712      0.00000     0.75180    0.00108     0.75288
      H   29    0.21805      0.00000     0.78041    0.00154     0.78195
      H   30    0.26781      0.00000     0.73135    0.00084     0.73219
 =======================================================================
   * Total *   -0.00000     25.98985    71.78271    0.22744    98.00000

 Normal termination of Gaussian 09 at Tue Sep 28 14:49:04 2021.
