 Gaussian 09, Revision A.02,

 -----------------------------------
 #p opt b3lyp/6-31G* scf=(xqc,tight)
 -----------------------------------

 --------------------------------
 CC(N1CCN(C1)C(C)(C)C)(C)C_conf_0
 --------------------------------
 Symbolic Z-matrix:
 Charge =  0 Multiplicity = 1

 SCF Done:  E(RB3LYP) =  -543.109000568     A.U. after   13 cycles
 SCF Done:  E(RB3LYP) =  -543.110881472     A.U. after   14 cycles
 SCF Done:  E(RB3LYP) =  -543.111047686     A.U. after   10 cycles
 SCF Done:  E(RB3LYP) =  -543.111070057     A.U. after    9 cycles
 SCF Done:  E(RB3LYP) =  -543.111073486     A.U. after    7 cycles
 SCF Done:  E(RB3LYP) =  -543.111074283     A.U. after    7 cycles
 SCF Done:  E(RB3LYP) =  -543.111074584     A.U. after    7 cycles
 SCF Done:  E(RB3LYP) =  -543.111074803     A.U. after    7 cycles
 SCF Done:  E(RB3LYP) =  -543.111074944     A.U. after    7 cycles
 SCF Done:  E(RB3LYP) =  -543.111074983     A.U. after    6 cycles
 Optimization completed.
    -- Stationary point found.
 Normal termination of Gaussian 09 at Fri Oct  1 20:38:06 2021.

 ----------------------------------------------------------------------
 #p freq b3lyp/6-31G* volume NMR pop=NPA density=current Geom=AllCheck
 Guess=Read
 ----------------------------------------------------------------------

 CC(N1CCN(C1)C(C)(C)C)(C)C_conf_0
 --------------------------------
 Redundant internal coordinates taken from checkpoint file:
 C11H24N2_03dc_conf_0.chk
 Charge =  0 Multiplicity = 1

 SCF Done:  E(RB3LYP) =  -543.111074983     A.U. after    1 cycles

  1  C    Isotropic =   159.4112   Anisotropy =    40.2004

  2  C    Isotropic =   137.0818   Anisotropy =    35.7884

  3  N    Isotropic =   200.0937   Anisotropy =    81.2861

  4  C    Isotropic =   143.5807   Anisotropy =    35.3428

  5  C    Isotropic =   143.5807   Anisotropy =    35.3424

  6  N    Isotropic =   200.0969   Anisotropy =    81.2873

  7  C    Isotropic =   127.8070   Anisotropy =    36.5041

  8  C    Isotropic =   137.0821   Anisotropy =    35.7878

  9  C    Isotropic =   159.4112   Anisotropy =    40.1997

 10  C    Isotropic =   159.6270   Anisotropy =    40.1394

 11  C    Isotropic =   174.4001   Anisotropy =    24.8352

 12  C    Isotropic =   174.4000   Anisotropy =    24.8353

 13  C    Isotropic =   159.6269   Anisotropy =    40.1390

 14  H    Isotropic =    30.8512   Anisotropy =     7.1117

 15  H    Isotropic =    31.2810   Anisotropy =     8.7312

 16  H    Isotropic =    31.0008   Anisotropy =     7.9128

 17  H    Isotropic =    29.2013   Anisotropy =     7.6878

 18  H    Isotropic =    29.4608   Anisotropy =     7.9513

 19  H    Isotropic =    29.4607   Anisotropy =     7.9513

 20  H    Isotropic =    29.2013   Anisotropy =     7.6879

 21  H    Isotropic =    28.3390   Anisotropy =     6.3939

 22  H    Isotropic =    28.3390   Anisotropy =     6.3939

 23  H    Isotropic =    31.0008   Anisotropy =     7.9128

 24  H    Isotropic =    30.8512   Anisotropy =     7.1116

 25  H    Isotropic =    31.2810   Anisotropy =     8.7312

 26  H    Isotropic =    30.8952   Anisotropy =     7.6090

 27  H    Isotropic =    31.2971   Anisotropy =     8.9455

 28  H    Isotropic =    30.9712   Anisotropy =     6.5602

 29  H    Isotropic =    30.9653   Anisotropy =     7.6357

 30  H    Isotropic =    30.9166   Anisotropy =     7.3104

 31  H    Isotropic =    31.7099   Anisotropy =     8.9117

 32  H    Isotropic =    30.9653   Anisotropy =     7.6357

 33  H    Isotropic =    30.9167   Anisotropy =     7.3105

 34  H    Isotropic =    31.7099   Anisotropy =     8.9117

 35  H    Isotropic =    30.8952   Anisotropy =     7.6090

 36  H    Isotropic =    31.2971   Anisotropy =     8.9456

 37  H    Isotropic =    30.9712   Anisotropy =     6.5601

  Exact polarizability: 150.402  -0.000 123.633  -0.877   0.000 111.990
 Approx polarizability: 181.414  -0.000 179.164  -1.731   0.000 167.489

                     1                      2                      3
                     A                      A                      A
 Frequencies --    28.0120                56.7212               122.8096
 Red. masses --     3.0295                 2.5690                 2.2216
 Frc consts  --     0.0014                 0.0049                 0.0197
 IR Inten    --     0.3708                 0.0290                 0.9071

                     4                      5                      6
                     A                      A                      A
 Frequencies --   134.1628               157.4283               215.3304
 Red. masses --     3.0234                 2.6728                 1.2063
 Frc consts  --     0.0321                 0.0390                 0.0330
 IR Inten    --     0.0325                 0.1661                 0.3551

                     7                      8                      9
                     A                      A                      A
 Frequencies --   216.2903               262.5726               263.0184
 Red. masses --     1.0823                 2.2078                 1.4976
 Frc consts  --     0.0298                 0.0897                 0.0610
 IR Inten    --     0.0022                 1.1018                 0.0000

                    10                     11                     12
                     A                      A                      A
 Frequencies --   265.3746               266.9593               276.3017
 Red. masses --     1.0593                 1.2625                 1.5859
 Frc consts  --     0.0440                 0.0530                 0.0713
 IR Inten    --     0.3960                 0.2173                 0.0856

                    13                     14                     15
                     A                      A                      A
 Frequencies --   281.0719               294.7997               310.2249
 Red. masses --     1.2264                 1.7458                 1.5523
 Frc consts  --     0.0571                 0.0894                 0.0880
 IR Inten    --     0.4947                 3.0764                 0.1711

                    16                     17                     18
                     A                      A                      A
 Frequencies --   341.5081               354.9433               370.8445
 Red. masses --     2.3600                 2.2462                 2.3059
 Frc consts  --     0.1622                 0.1667                 0.1868
 IR Inten    --     0.0909                 3.3491                 0.1045

                    19                     20                     21
                     A                      A                      A
 Frequencies --   375.3057               400.1345               463.1553
 Red. masses --     2.3705                 2.4395                 2.7053
 Frc consts  --     0.1967                 0.2301                 0.3419
 IR Inten    --     0.5148                 0.1183                 0.0437

                    22                     23                     24
                     A                      A                      A
 Frequencies --   469.8063               487.2588               506.4678
 Red. masses --     2.6654                 2.8255                 2.8683
 Frc consts  --     0.3466                 0.3952                 0.4335
 IR Inten    --     9.2269                 0.0009                 1.3726

                    25                     26                     27
                     A                      A                      A
 Frequencies --   553.6875               584.7348               752.0561
 Red. masses --     2.7468                 2.7360                 2.8023
 Frc consts  --     0.4961                 0.5512                 0.9338
 IR Inten    --     0.5573                 2.2955                 2.3047

                    28                     29                     30
                     A                      A                      A
 Frequencies --   784.9822               829.1940               873.0143
 Red. masses --     3.2853                 2.2388                 3.8891
 Frc consts  --     1.1927                 0.9069                 1.7464
 IR Inten    --     1.1615                10.2903                 3.3374

                    31                     32                     33
                     A                      A                      A
 Frequencies --   918.2133               918.3735               935.7936
 Red. masses --     1.7521                 1.7592                 1.6523
 Frc consts  --     0.8704                 0.8742                 0.8525
 IR Inten    --     1.7614                 0.2141                 0.0310

                    34                     35                     36
                     A                      A                      A
 Frequencies --   936.0889               952.9777               968.1686
 Red. masses --     1.6681                 1.8540                 1.2051
 Frc consts  --     0.8612                 0.9921                 0.6655
 IR Inten    --     0.7581                 8.9161                 0.0727

                    37                     38                     39
                     A                      A                      A
 Frequencies --   968.2517              1007.1903              1048.2321
 Red. masses --     1.2052                 1.9716                 1.6056
 Frc consts  --     0.6657                 1.1784                 1.0395
 IR Inten    --     0.0303                 0.0733                 2.1785

                    40                     41                     42
                     A                      A                      A
 Frequencies --  1048.3142              1053.7426              1054.1438
 Red. masses --     1.4971                 1.3956                 1.3884
 Frc consts  --     0.9694                 0.9130                 0.9090
 IR Inten    --     0.8422                 0.2307                 3.4196

                    43                     44                     45
                     A                      A                      A
 Frequencies --  1074.5824              1089.7097              1128.3595
 Red. masses --     2.3279                 2.6155                 1.6356
 Frc consts  --     1.5838                 1.8299                 1.2270
 IR Inten    --    36.3480                 0.3331                 3.4350

                    46                     47                     48
                     A                      A                      A
 Frequencies --  1139.6953              1193.5366              1197.9848
 Red. masses --     1.7349                 2.4919                 3.6696
 Frc consts  --     1.3277                 2.0914                 3.1030
 IR Inten    --     5.2875                12.1336                 6.0525

                    49                     50                     51
                     A                      A                      A
 Frequencies --  1223.7724              1243.9192              1245.2011
 Red. masses --     1.1845                 1.1983                 2.0578
 Frc consts  --     1.0452                 1.0924                 1.8799
 IR Inten    --    14.2457                 0.0000                 1.9432

                    52                     53                     54
                     A                      A                      A
 Frequencies --  1249.7917              1261.7664              1270.1571
 Red. masses --     2.6377                 1.9240                 2.7031
 Frc consts  --     2.4274                 1.8047                 2.5693
 IR Inten    --    42.2932                 0.0058               134.7756

                    55                     56                     57
                     A                      A                      A
 Frequencies --  1287.7246              1287.8875              1318.7347
 Red. masses --     2.6317                 3.1638                 2.5735
 Frc consts  --     2.5712                 3.0919                 2.6369
 IR Inten    --    17.9673                50.4466                62.4962

                    58                     59                     60
                     A                      A                      A
 Frequencies --  1362.4908              1397.4157              1419.9324
 Red. masses --     1.3176                 1.4951                 1.2529
 Frc consts  --     1.4411                 1.7202                 1.4884
 IR Inten    --     0.4225                 1.3716                17.9793

                    61                     62                     63
                     A                      A                      A
 Frequencies --  1423.2782              1423.5116              1426.4892
 Red. masses --     1.2488                 1.2560                 1.2924
 Frc consts  --     1.4905                 1.4995                 1.5494
 IR Inten    --    10.3713                 8.8333                 4.8834

                    64                     65                     66
                     A                      A                      A
 Frequencies --  1444.3450              1452.8682              1454.6228
 Red. masses --     1.3698                 1.2258                 1.2374
 Frc consts  --     1.6836                 1.5245                 1.5426
 IR Inten    --     6.4082                 1.8471                37.6670

                    67                     68                     69
                     A                      A                      A
 Frequencies --  1509.1391              1509.5589              1515.3259
 Red. masses --     1.0510                 1.0508                 1.0473
 Frc consts  --     1.4103                 1.4108                 1.4169
 IR Inten    --     0.1898                 0.2364                 0.0134

                    70                     71                     72
                     A                      A                      A
 Frequencies --  1515.6251              1522.2404              1522.2589
 Red. masses --     1.0473                 1.0461                 1.0456
 Frc consts  --     1.4174                 1.4282                 1.4276
 IR Inten    --     0.8497                 0.1313                 0.0259

                    73                     74                     75
                     A                      A                      A
 Frequencies --  1533.0562              1533.5669              1535.0195
 Red. masses --     1.0552                 1.0571                 1.0595
 Frc consts  --     1.4612                 1.4647                 1.4709
 IR Inten    --     4.8694                 4.7413                 6.0326

                    76                     77                     78
                     A                      A                      A
 Frequencies --  1535.0317              1542.5297              1548.7952
 Red. masses --     1.0555                 1.0795                 1.0758
 Frc consts  --     1.4653                 1.5134                 1.5205
 IR Inten    --     1.5820                 0.1621                 0.6351

                    79                     80                     81
                     A                      A                      A
 Frequencies --  1552.1216              1552.8022              1591.8264
 Red. masses --     1.0630                 1.0808                 1.0890
 Frc consts  --     1.5089                 1.5354                 1.6259
 IR Inten    --    12.0022                 5.5705                 1.6300

                    82                     83                     84
                     A                      A                      A
 Frequencies --  2952.2677              2962.7931              2963.3718
 Red. masses --     1.0699                 1.0563                 1.0968
 Frc consts  --     5.4940                 5.4630                 5.6748
 IR Inten    --    75.8105                26.4284                 3.2081

                    85                     86                     87
                     A                      A                      A
 Frequencies --  2968.2259              3048.7602              3048.7998
 Red. masses --     1.0814                 1.0350                 1.0351
 Frc consts  --     5.6135                 5.6681                 5.6688
 IR Inten    --   140.6149                 0.8880                36.2324

                    88                     89                     90
                     A                      A                      A
 Frequencies --  3049.5697              3049.6001              3057.1646
 Red. masses --     1.0346                 1.0346                 1.0361
 Frc consts  --     5.6691                 5.6689                 5.7054
 IR Inten    --    17.6829                39.7241                20.7599

                    91                     92                     93
                     A                      A                      A
 Frequencies --  3057.4089              3089.4299              3089.7530
 Red. masses --     1.0363                 1.0868                 1.0920
 Frc consts  --     5.7075                 6.1118                 6.1421
 IR Inten    --     4.6645                40.0843                48.3132

                    94                     95                     96
                     A                      A                      A
 Frequencies --  3112.1024              3112.2116              3116.2474
 Red. masses --     1.1018                 1.1018                 1.1023
 Frc consts  --     6.2870                 6.2874                 6.3070
 IR Inten    --     1.0942                14.9198                 3.5365

                    97                     98                     99
                     A                      A                      A
 Frequencies --  3116.2606              3120.7844              3121.3102
 Red. masses --     1.1023                 1.1023                 1.1024
 Frc consts  --     6.3072                 6.3251                 6.3277
 IR Inten    --     3.5342                 9.6489                56.4610

                   100                    101                    102
                     A                      A                      A
 Frequencies --  3122.2263              3122.6953              3124.0439
 Red. masses --     1.1011                 1.1010                 1.1029
 Frc consts  --     6.3241                 6.3256                 6.3420
 IR Inten    --   134.5098                 2.4083                 0.1168

                   103                    104                    105
                     A                      A                      A
 Frequencies --  3124.1598              3129.0839              3129.0962
 Red. masses --     1.1027                 1.1025                 1.1026
 Frc consts  --     6.3412                 6.3603                 6.3608
 IR Inten    --    48.8371                 4.1596               104.8633

 - Thermochemistry -
 -------------------
 Temperature   298.150 Kelvin.  Pressure   1.00000 Atm.
 Atom     1 has atomic number  6 and mass  12.00000

 Molecular mass:   184.19395 amu.
 Principal axes and moments of inertia in atomic units:
                           1         2         3
     Eigenvalues --  1154.474154127.133834434.93765
           X            1.00000   0.00000  -0.00275
           Y           -0.00000   1.00000   0.00000
           Z            0.00275  -0.00000   1.00000
 This molecule is an asymmetric top.
 Rotational symmetry number  1.
 Warning -- assumption of classical behavior for rotation
           may cause significant error
 Rotational temperatures (Kelvin)      0.07502     0.02099     0.01953
 Rotational constants (GHZ):           1.56326     0.43729     0.40694
 Zero-point vibrational energy     902772.1 (Joules/Mol)
                                  215.76770 (Kcal/Mol)
 Warning -- explicit consideration of  26 degrees of freedom as
           vibrations may cause significant error
 Vibrational temperatures:     40.30    81.61   176.70   193.03   226.50
          (Kelvin)            309.81   311.19   377.78   378.42   381.81
                              384.09   397.54   404.40   424.15   446.34
                              491.35   510.68   533.56   539.98   575.70
                              666.38   675.95   701.06   728.69   796.63
                              841.30  1082.04  1129.41  1193.02  1256.07
                             1321.10  1321.33  1346.40  1346.82  1371.12
                             1392.98  1393.10  1449.12  1508.17  1508.29
                             1516.10  1516.68  1546.08  1567.85  1623.46
                             1639.77  1717.23  1723.63  1760.73  1789.72
                             1791.56  1798.17  1815.40  1827.47  1852.75
                             1852.98  1897.36  1960.32  2010.57  2042.96
                             2047.78  2048.11  2052.40  2078.09  2090.35
                             2092.88  2171.31  2171.92  2180.21  2180.64
                             2190.16  2190.19  2205.72  2206.46  2208.55
                             2208.57  2219.35  2228.37  2233.15  2234.13
                             2290.28  4247.65  4262.79  4263.63  4270.61
                             4386.48  4386.54  4387.65  4387.69  4398.57
                             4398.92  4444.99  4445.46  4477.62  4477.77
                             4483.58  4483.60  4490.11  4490.86  4492.18
                             4492.86  4494.80  4494.96  4502.05  4502.07

 Zero-point correction=                           0.343848 (Hartree/Particle)
 Thermal correction to Energy=                    0.359221
 Thermal correction to Enthalpy=                  0.360165
 Thermal correction to Gibbs Free Energy=         0.302836
 Sum of electronic and zero-point Energies=           -542.767227
 Sum of electronic and thermal Energies=              -542.751854
 Sum of electronic and thermal Enthalpies=            -542.750910
 Sum of electronic and thermal Free Energies=         -542.808239

                     E (Thermal)             CV                S
                      KCal/Mol        Cal/Mol-Kelvin    Cal/Mol-Kelvin
 Total                  225.415             60.283            120.659
 Electronic               0.000              0.000              0.000
 Translational            0.889              2.981             41.539
 Rotational               0.889              2.981             31.425
 Vibrational            223.637             54.321             47.696
 Vibration     1          0.593              1.984              5.965
 Vibration     2          0.596              1.975              4.568
 Vibration     3          0.610              1.930              3.056
 Vibration     4          0.613              1.919              2.885
 Vibration     5          0.621              1.894              2.580
 Vibration     6          0.645              1.818              1.998
 Vibration     7          0.645              1.816              1.990
 Vibration     8          0.670              1.741              1.645
 Vibration     9          0.670              1.741              1.642
 Vibration    10          0.671              1.737              1.626
 Vibration    11          0.672              1.734              1.616
 Vibration    12          0.678              1.717              1.556
 Vibration    13          0.681              1.709              1.527
 Vibration    14          0.689              1.683              1.446
 Vibration    15          0.699              1.654              1.361
 Vibration    16          0.721              1.593              1.205
 Vibration    17          0.731              1.565              1.144
 Vibration    18          0.743              1.532              1.076
 Vibration    19          0.746              1.523              1.058
 Vibration    20          0.766              1.470              0.962
 Vibration    21          0.821              1.332              0.757
 Vibration    22          0.827              1.317              0.738
 Vibration    23          0.843              1.278              0.691
 Vibration    24          0.862              1.236              0.642
 Vibration    25          0.909              1.132              0.537
 Vibration    26          0.942              1.064              0.477

 Optimization completed.
    -- Stationary point found.
 Normal termination of Gaussian 09 at Fri Oct  1 22:19:28 2021.
 Gaussian 09:  AM64L-G09RevA.02 11-Jun-2009

 ----------------------------------------------------------------------
 #p TD(NStates=10, Root=1) b3lyp/6-31G* volume pop=NPA density=current
 Geom=AllCheck Guess=Read
 ----------------------------------------------------------------------

 CC(N1CCN(C1)C(C)(C)C)(C)C_conf_0
 --------------------------------
 Redundant internal coordinates taken from checkpoint file:
 C11H24N2_03dc_conf_0.chk
 Charge =  0 Multiplicity = 1

                         Standard orientation:
 ---------------------------------------------------------------------
 Center     Atomic      Atomic             Coordinates (Angstroms)
 Number     Number       Type             X           Y           Z
 ---------------------------------------------------------------------
      1          6           0        3.502530    0.772845    0.595484
      2          6           0        2.485220   -0.224982    0.010639
      3          7           0        1.124394    0.268103    0.315636
      4          6           0        0.750650    1.609697   -0.129300
      5          6           0       -0.750651    1.609698    0.129293
      6          7           0       -1.124398    0.268105   -0.315634
      7          6           0       -0.000002   -0.621802   -0.000015
      8          6           0       -2.485219   -0.224982   -0.010638
      9          6           0       -3.502532    0.772865   -0.595439
     10          6           0       -2.674118   -1.579707   -0.720216
     11          6           0       -2.752903   -0.393255    1.504952
     12          6           0        2.752933   -0.393217   -1.504948
     13          6           0        2.674093   -1.579726    0.720186
     14          1           0        3.472533    1.738154    0.078705
     15          1           0        4.519681    0.378471    0.494207
     16          1           0        3.300742    0.945231    1.658235
     17          1           0        0.947325    1.797561   -1.200356
     18          1           0        1.268815    2.378843    0.452673
     19          1           0       -1.268813    2.378844   -0.452682
     20          1           0       -0.947326    1.797569    1.200349
     21          1           0        0.199323   -1.279633   -0.863561
     22          1           0       -0.199320   -1.279659    0.863512
     23          1           0       -3.300777    0.945259   -1.658195
     24          1           0       -3.472501    1.738170   -0.078654
     25          1           0       -4.519686    0.378509   -0.494130
     26          1           0       -2.472972   -1.480047   -1.792379
     27          1           0       -3.702106   -1.936140   -0.591333
     28          1           0       -2.006872   -2.349013   -0.316305
     29          1           0       -2.651266    0.558380    2.038042
     30          1           0       -2.063187   -1.111062    1.962167
     31          1           0       -3.771768   -0.759838    1.675955
     32          1           0        2.651281    0.558425   -2.038022
     33          1           0        2.063253   -1.111038   -1.962195
     34          1           0        3.771813   -0.759766   -1.675936
     35          1           0        2.472939   -1.480088    1.792349
     36          1           0        3.702075   -1.936176    0.591300
     37          1           0        2.006835   -2.349009    0.316250
 ---------------------------------------------------------------------

 SCF Done:  E(RB3LYP) =  -543.111074983     A.U. after    1 cycles

 Excitation energies and oscillator strengths:

 Excited State   1:      Singlet-A      6.3163 eV  196.29 nm  f=0.0109  <S**2>=0.000
      52 -> 53         0.69985
 This state for optimization and/or second-order correction.
 Total Energy, E(TD-HF/TD-KS) =  -542.878954760
 Copying the excited state density for this state as the 1-particle RhoCI density.

 Excited State   2:      Singlet-A      6.6081 eV  187.63 nm  f=0.0001  <S**2>=0.000
      51 -> 53        -0.28594
      52 -> 54         0.64412

 Excited State   3:      Singlet-A      6.8509 eV  180.98 nm  f=0.0001  <S**2>=0.000
      51 -> 53         0.64127
      52 -> 54         0.28030

 Excited State   4:      Singlet-A      7.1313 eV  173.86 nm  f=0.0028  <S**2>=0.000
      51 -> 54         0.68266
      52 -> 55         0.14376

 Excited State   5:      Singlet-A      7.3266 eV  169.22 nm  f=0.0122  <S**2>=0.000
      51 -> 54        -0.12716
      52 -> 55         0.67280
      52 -> 56        -0.14933

 Excited State   6:      Singlet-A      7.5897 eV  163.36 nm  f=0.0034  <S**2>=0.000
      52 -> 57         0.68633

 Excited State   7:      Singlet-A      7.6060 eV  163.01 nm  f=0.0060  <S**2>=0.000
      51 -> 58         0.13610
      52 -> 55         0.13026
      52 -> 56         0.67114

 Excited State   8:      Singlet-A      7.6292 eV  162.51 nm  f=0.0039  <S**2>=0.000
      51 -> 56         0.14010
      52 -> 58         0.67555

 Excited State   9:      Singlet-A      7.7565 eV  159.85 nm  f=0.0190  <S**2>=0.000
      51 -> 55         0.47706
      52 -> 59         0.49583

 Excited State  10:      Singlet-A      7.8445 eV  158.05 nm  f=0.0039  <S**2>=0.000
      51 -> 55        -0.46516
      51 -> 56         0.12225
      52 -> 59         0.48844
      52 -> 62        -0.14490

 The electronic state is 1-A.
 Alpha  occ. eigenvalues --  -14.31078 -14.31078 -10.22025 -10.21844 -10.21844
 Alpha  occ. eigenvalues --  -10.19880 -10.19857 -10.16843 -10.16843 -10.16810
 Alpha  occ. eigenvalues --  -10.16810 -10.16648 -10.16648  -0.94997  -0.87712
 Alpha  occ. eigenvalues --   -0.79774  -0.75384  -0.73455  -0.68291  -0.68019
 Alpha  occ. eigenvalues --   -0.67985  -0.67707  -0.61927  -0.59697  -0.54331
 Alpha  occ. eigenvalues --   -0.52762  -0.48480  -0.48292  -0.44850  -0.43928
 Alpha  occ. eigenvalues --   -0.43670  -0.43235  -0.42679  -0.42350  -0.40218
 Alpha  occ. eigenvalues --   -0.39110  -0.38724  -0.38183  -0.37583  -0.37398
 Alpha  occ. eigenvalues --   -0.36605  -0.36257  -0.35822  -0.35362  -0.34114
 Alpha  occ. eigenvalues --   -0.33382  -0.32585  -0.32422  -0.31604  -0.31582
 Alpha  occ. eigenvalues --   -0.20642  -0.18831
 Alpha virt. eigenvalues --    0.07620   0.08625   0.11448   0.12373   0.12392
 Alpha virt. eigenvalues --    0.12496   0.13262   0.14175   0.14557   0.14846
 Alpha virt. eigenvalues --    0.15547   0.15660   0.16965   0.17363   0.17896

 Mulliken atomic charges:
              1
     1  C   -0.427415
     2  C    0.201817
     3  N   -0.366957
     4  C   -0.116661
     5  C   -0.116661
     6  N   -0.366945
     7  C    0.105836
     8  C    0.201813
     9  C   -0.427413
    10  C   -0.416449
    11  C   -0.397203
    12  C   -0.397206
    13  C   -0.416450
    14  H    0.120324
    15  H    0.134828
    16  H    0.128895
    17  H    0.142968
    18  H    0.137437
    19  H    0.137438
    20  H    0.142972
    21  H    0.122591
    22  H    0.122593
    23  H    0.128893
    24  H    0.120323
    25  H    0.134828
    26  H    0.122871
    27  H    0.128132
    28  H    0.103998
    29  H    0.114876
    30  H    0.100029
    31  H    0.112996
    32  H    0.114877
    33  H    0.100030
    34  H    0.112995
    35  H    0.122872
    36  H    0.128132
    37  H    0.103997
 Sum of Mulliken atomic charges =  -0.00000

 Dipole moment (field-independent basis, Debye):
    X=             -0.0001    Y=              1.6982    Z=             -0.0000  Tot=              1.6982
 Quadrupole moment (field-independent basis, Debye-Ang):
   XX=            -92.3776   YY=            -87.5920   ZZ=            -90.9837
   XY=             -0.0000   XZ=              0.6262   YZ=              0.0000

 Summary of Natural Population Analysis:

                                       Natural Population
                Natural  -----------------------------------------------
    Atom  No    Charge         Core      Valence    Rydberg      Total
 -----------------------------------------------------------------------
      C    1   -0.68325      1.99936     4.67305    0.01084     6.68325
      C    2    0.12728      1.99915     3.85741    0.01617     5.87272
      N    3   -0.30712      1.99935     5.29254    0.01523     7.30712
      C    4   -0.28151      1.99932     4.26624    0.01596     6.28151
      C    5   -0.28151      1.99932     4.26624    0.01596     6.28151
      N    6   -0.30709      1.99935     5.29251    0.01523     7.30709
      C    7   -0.11263      1.99933     4.09189    0.02141     6.11263
      C    8    0.12728      1.99915     3.85741    0.01617     5.87272
      C    9   -0.68325      1.99936     4.67305    0.01084     6.68325
      C   10   -0.68781      1.99936     4.67710    0.01135     6.68781
      C   11   -0.68653      1.99933     4.67657    0.01063     6.68653
      C   12   -0.68653      1.99933     4.67657    0.01063     6.68653
      C   13   -0.68781      1.99936     4.67710    0.01135     6.68781
      H   14    0.21089      0.00000     0.77952    0.00959     0.78911
      H   15    0.23043      0.00000     0.76030    0.00927     0.76957
      H   16    0.22151      0.00000     0.76957    0.00891     0.77849
      H   17    0.21911      0.00000     0.76536    0.01553     0.78089
      H   18    0.22471      0.00000     0.75914    0.01616     0.77529
      H   19    0.22471      0.00000     0.75914    0.01616     0.77529
      H   20    0.21912      0.00000     0.76535    0.01553     0.78088
      H   21    0.20837      0.00000     0.75253    0.03911     0.79163
      H   22    0.20837      0.00000     0.75252    0.03911     0.79163
      H   23    0.22151      0.00000     0.76957    0.00891     0.77849
      H   24    0.21088      0.00000     0.77952    0.00959     0.78912
      H   25    0.23043      0.00000     0.76030    0.00927     0.76957
      H   26    0.21782      0.00000     0.77178    0.01041     0.78218
      H   27    0.22654      0.00000     0.76370    0.00976     0.77346
      H   28    0.19778      0.00000     0.78505    0.01717     0.80222
      H   29    0.20904      0.00000     0.78104    0.00991     0.79096
      H   30    0.19569      0.00000     0.78540    0.01891     0.80431
      H   31    0.21335      0.00000     0.77171    0.01495     0.78665
      H   32    0.20904      0.00000     0.78104    0.00991     0.79096
      H   33    0.19569      0.00000     0.78540    0.01891     0.80431
      H   34    0.21334      0.00000     0.77171    0.01495     0.78666
      H   35    0.21782      0.00000     0.77177    0.01041     0.78218
      H   36    0.22654      0.00000     0.76370    0.00976     0.77346
      H   37    0.19778      0.00000     0.78505    0.01717     0.80222
 =======================================================================
   * Total *   -0.00000     25.99105    77.46784    0.54112   104.00000

 Normal termination of Gaussian 09 at Sat Oct  2 05:45:15 2021.
