 Gaussian 09, Revision A.02,

 -----------------------------------
 #p opt b3lyp/6-31G* scf=(xqc,tight)
 -----------------------------------

 -------------------------------
 CCN(C(=O)Oc1cccc(c1)F)CC_conf_0
 -------------------------------
 Symbolic Z-matrix:
 Charge =  0 Multiplicity = 1

 SCF Done:  E(RB3LYP) =  -732.655367658     A.U. after   15 cycles
 SCF Done:  E(RB3LYP) =  -732.658900418     A.U. after   12 cycles
 SCF Done:  E(RB3LYP) =  -732.659377923     A.U. after   12 cycles
 SCF Done:  E(RB3LYP) =  -732.659627044     A.U. after   11 cycles
 SCF Done:  E(RB3LYP) =  -732.659600362     A.U. after   11 cycles
 SCF Done:  E(RB3LYP) =  -732.659732978     A.U. after   10 cycles
 SCF Done:  E(RB3LYP) =  -732.659757623     A.U. after   10 cycles
 SCF Done:  E(RB3LYP) =  -732.659769023     A.U. after   10 cycles
 SCF Done:  E(RB3LYP) =  -732.659774679     A.U. after   10 cycles
 SCF Done:  E(RB3LYP) =  -732.659780519     A.U. after   11 cycles
 SCF Done:  E(RB3LYP) =  -732.659783643     A.U. after   10 cycles
 SCF Done:  E(RB3LYP) =  -732.659784678     A.U. after    8 cycles
 SCF Done:  E(RB3LYP) =  -732.659784824     A.U. after    7 cycles
 SCF Done:  E(RB3LYP) =  -732.659784846     A.U. after    6 cycles
 Optimization completed on the basis of negligible forces.
    -- Stationary point found.
 Normal termination of Gaussian 09 at Wed Sep 29 20:32:43 2021.

 ----------------------------------------------------------------------
 #p freq b3lyp/6-31G* volume NMR pop=NPA density=current Geom=AllCheck
 Guess=Read
 ----------------------------------------------------------------------

 CCN(C(=O)Oc1cccc(c1)F)CC_conf_0
 -------------------------------
 Redundant internal coordinates taken from checkpoint file:
 C11H14FNO2_bf92_conf_0.chk
 Charge =  0 Multiplicity = 1

 SCF Done:  E(RB3LYP) =  -732.659784846     A.U. after    1 cycles

  1  C    Isotropic =   175.7954   Anisotropy =    21.0782

  2  C    Isotropic =   146.4242   Anisotropy =    43.1073

  3  N    Isotropic =   157.7581   Anisotropy =    67.3877

  4  C    Isotropic =    47.1405   Anisotropy =    80.6886

  5  O    Isotropic =    63.6312   Anisotropy =   383.4674

  6  O    Isotropic =   142.1320   Anisotropy =   136.8436

  7  C    Isotropic =    43.3872   Anisotropy =   111.6471

  8  C    Isotropic =    81.3284   Anisotropy =   133.3366

  9  C    Isotropic =    67.2828   Anisotropy =   166.7035

 10  C    Isotropic =    84.2893   Anisotropy =   133.7590

 11  C    Isotropic =    33.1588   Anisotropy =    95.8020

 12  C    Isotropic =    84.4709   Anisotropy =   127.2400

 13  F    Isotropic =   295.8976   Anisotropy =   104.1878

 14  C    Isotropic =   147.5158   Anisotropy =    41.1486

 15  C    Isotropic =   174.8539   Anisotropy =    22.3911

 16  H    Isotropic =    31.3796   Anisotropy =    10.6031

 17  H    Isotropic =    30.6198   Anisotropy =     7.0905

 18  H    Isotropic =    31.0779   Anisotropy =     6.8639

 19  H    Isotropic =    28.3607   Anisotropy =     5.8874

 20  H    Isotropic =    29.5445   Anisotropy =     6.5131

 21  H    Isotropic =    25.7080   Anisotropy =     6.6997

 22  H    Isotropic =    25.0448   Anisotropy =     4.2888

 23  H    Isotropic =    25.6653   Anisotropy =     3.9433

 24  H    Isotropic =    25.1426   Anisotropy =     9.5418

 25  H    Isotropic =    29.3751   Anisotropy =     6.3567

 26  H    Isotropic =    28.4558   Anisotropy =     4.3914

 27  H    Isotropic =    30.9607   Anisotropy =     7.1409

 28  H    Isotropic =    31.3325   Anisotropy =    10.3943

 29  H    Isotropic =    30.6858   Anisotropy =     6.9550

  Exact polarizability: 173.348  -2.745 131.107   4.003  -1.994  74.137
 Approx polarizability: 229.861   6.392 208.065   7.826  -1.336 113.682

                     1                      2                      3
                     A                      A                      A
 Frequencies --    18.0223                37.0160                51.5313
 Red. masses --     4.6195                 3.9085                 3.6448
 Frc consts  --     0.0009                 0.0032                 0.0057
 IR Inten    --     0.2890                 0.7630                 0.8819

                     4                      5                      6
                     A                      A                      A
 Frequencies --    66.2639                87.2667               114.4912
 Red. masses --     2.7427                 4.2315                 3.8636
 Frc consts  --     0.0071                 0.0190                 0.0298
 IR Inten    --     0.0646                 1.4458                 0.1370

                     7                      8                      9
                     A                      A                      A
 Frequencies --   118.2052               205.1613               228.1092
 Red. masses --     6.2024                 1.8615                 1.1000
 Frc consts  --     0.0511                 0.0462                 0.0337
 IR Inten    --     1.1389                 0.0628                 0.2627

                    10                     11                     12
                     A                      A                      A
 Frequencies --   245.5644               260.8050               264.1552
 Red. masses --     5.1915                 1.6059                 4.6196
 Frc consts  --     0.1844                 0.0644                 0.1899
 IR Inten    --     0.4176                 0.7495                 0.4224

                    13                     14                     15
                     A                      A                      A
 Frequencies --   326.2368               329.7358               371.5212
 Red. masses --     3.6304                 4.0143                 3.4349
 Frc consts  --     0.2277                 0.2572                 0.2793
 IR Inten    --     0.0356                 3.3995                18.1012

                    16                     17                     18
                     A                      A                      A
 Frequencies --   433.5235               463.5395               466.1306
 Red. masses --     2.9382                 3.4152                 4.0561
 Frc consts  --     0.3254                 0.4324                 0.5193
 IR Inten    --     5.1207                 1.2128                 1.6892

                    19                     20                     21
                     A                      A                      A
 Frequencies --   504.1293               524.6023               597.5158
 Red. masses --     3.2995                 8.5653                 5.1303
 Frc consts  --     0.4941                 1.3888                 1.0792
 IR Inten    --     3.4934                 4.7731                 0.5144

                    22                     23                     24
                     A                      A                      A
 Frequencies --   611.9199               642.7096               683.6431
 Red. masses --     5.1562                 4.3381                 2.9385
 Frc consts  --     1.1375                 1.0558                 0.8092
 IR Inten    --     3.6655                 2.3109                 5.2564

                    25                     26                     27
                     A                      A                      A
 Frequencies --   742.5456               767.3788               781.3469
 Red. masses --     9.0812                 4.8147                 1.5059
 Frc consts  --     2.9501                 1.6705                 0.5417
 IR Inten    --    19.2304                10.9661                30.5079

                    28                     29                     30
                     A                      A                      A
 Frequencies --   790.5440               794.2865               827.6834
 Red. masses --     1.3612                 1.2048                 2.1449
 Frc consts  --     0.5012                 0.4478                 0.8658
 IR Inten    --    22.1698                 3.9176                 2.2285

                    31                     32                     33
                     A                      A                      A
 Frequencies --   860.6007               888.3582               940.2681
 Red. masses --     1.5790                 1.4687                 2.7337
 Frc consts  --     0.6890                 0.6829                 1.4240
 IR Inten    --    24.9985                 0.7981                14.3653

                    34                     35                     36
                     A                      A                      A
 Frequencies --   962.5103               963.6508               994.3750
 Red. masses --     1.2484                 2.5454                 2.7503
 Frc consts  --     0.6814                 1.3927                 1.6022
 IR Inten    --     0.1190                 3.9462                87.7765

                    37                     38                     39
                     A                      A                      A
 Frequencies --  1022.5519              1063.5046              1102.4259
 Red. masses --     6.0694                 2.7365                 1.9375
 Frc consts  --     3.7391                 1.8236                 1.3874
 IR Inten    --     0.3773                28.1152                18.6583

                    40                     41                     42
                     A                      A                      A
 Frequencies --  1105.1652              1115.9557              1127.2104
 Red. masses --     1.4937                 1.7702                 1.7114
 Frc consts  --     1.0749                 1.2988                 1.2812
 IR Inten    --     7.8096                10.8110                32.5193

                    43                     44                     45
                     A                      A                      A
 Frequencies --  1166.0216              1186.4291              1199.2121
 Red. masses --     1.4628                 1.7109                 1.9535
 Frc consts  --     1.1718                 1.4189                 1.6552
 IR Inten    --    57.7805               140.4475               377.4557

                    46                     47                     48
                     A                      A                      A
 Frequencies --  1261.4334              1299.3210              1312.2257
 Red. masses --     2.7847                 2.0261                 1.8040
 Frc consts  --     2.6107                 2.0153                 1.8302
 IR Inten    --    50.6124               388.3107                69.0676

                    49                     50                     51
                     A                      A                      A
 Frequencies --  1319.2336              1357.9112              1366.9022
 Red. masses --     2.3362                 1.3240                 5.2270
 Frc consts  --     2.3955                 1.4385                 5.7541
 IR Inten    --    31.3843                16.9144                 7.7598

                    52                     53                     54
                     A                      A                      A
 Frequencies --  1400.5883              1420.7896              1437.1501
 Red. masses --     1.2765                 1.2772                 1.3016
 Frc consts  --     1.4753                 1.5190                 1.5839
 IR Inten    --    18.5809                11.0223                13.8393

                    55                     56                     57
                     A                      A                      A
 Frequencies --  1438.9303              1462.4124              1494.5424
 Red. masses --     1.2591                 2.0715                 3.3651
 Frc consts  --     1.5359                 2.6102                 4.4286
 IR Inten    --    24.3804               279.0793                18.5200

                    58                     59                     60
                     A                      A                      A
 Frequencies --  1506.1469              1520.0706              1521.5249
 Red. masses --     1.0709                 1.0450                 1.0746
 Frc consts  --     1.4313                 1.4227                 1.4658
 IR Inten    --     6.6634                 2.2557                 4.6879

                    61                     62                     63
                     A                      A                      A
 Frequencies --  1526.6637              1533.7613              1535.9222
 Red. masses --     1.1016                 1.0602                 1.3171
 Frc consts  --     1.5128                 1.4695                 1.8306
 IR Inten    --    54.8772                 8.3958                60.7582

                    64                     65                     66
                     A                      A                      A
 Frequencies --  1541.0104              1657.3672              1665.4641
 Red. masses --     1.8866                 6.5038                 6.8995
 Frc consts  --     2.6396                10.5259                11.2756
 IR Inten    --    28.0550                85.2795                67.7040

                    67                     68                     69
                     A                      A                      A
 Frequencies --  1813.5883              3052.9951              3053.5841
 Red. masses --    11.2458                 1.0362                 1.0358
 Frc consts  --    21.7931                 5.6902                 5.6907
 IR Inten    --   383.5762                17.8700                18.9512

                    70                     71                     72
                     A                      A                      A
 Frequencies --  3064.7237              3074.1361              3114.1679
 Red. masses --     1.0680                 1.0681                 1.1020
 Frc consts  --     5.9100                 5.9474                 6.2968
 IR Inten    --    28.5203                34.0083                15.4996

                    73                     74                     75
                     A                      A                      A
 Frequencies --  3115.7954              3132.9601              3134.2210
 Red. masses --     1.1021                 1.0984                 1.0981
 Frc consts  --     6.3041                 6.3524                 6.3554
 IR Inten    --    22.5058                24.4033                20.3996

                    76                     77                     78
                     A                      A                      A
 Frequencies --  3146.5026              3148.0737              3201.4631
 Red. masses --     1.1022                 1.1020                 1.0878
 Frc consts  --     6.4293                 6.4347                 6.5691
 IR Inten    --    18.0639                36.2470                 9.2036

                    79                     80                     81
                     A                      A                      A
 Frequencies --  3223.6588              3230.8374              3274.2171
 Red. masses --     1.0924                 1.0953                 1.0926
 Frc consts  --     6.6885                 6.7362                 6.9010
 IR Inten    --     7.8886                 4.0561                 0.8479

 - Thermochemistry -
 -------------------
 Temperature   298.150 Kelvin.  Pressure   1.00000 Atm.
 Atom     1 has atomic number  6 and mass  12.00000

 Molecular mass:   211.10086 amu.
 Principal axes and moments of inertia in atomic units:
                           1         2         3
     Eigenvalues --  1563.811115833.101737069.01118
           X            0.99983  -0.01736   0.00581
           Y            0.01739   0.99984  -0.00500
           Z           -0.00572   0.00511   0.99997
 This molecule is an asymmetric top.
 Rotational symmetry number  1.
 Warning -- assumption of classical behavior for rotation
           may cause significant error
 Rotational temperatures (Kelvin)      0.05539     0.01485     0.01225
 Rotational constants (GHZ):           1.15407     0.30940     0.25530
 Zero-point vibrational energy     624535.1 (Joules/Mol)
                                  149.26748 (Kcal/Mol)
 Warning -- explicit consideration of  22 degrees of freedom as
           vibrations may cause significant error
 Vibrational temperatures:     25.93    53.26    74.14    95.34   125.56
          (Kelvin)            164.73   170.07   295.18   328.20   353.31
                              375.24   380.06   469.38   474.42   534.54
                              623.74   666.93   670.66   725.33   754.78
                              859.69   880.42   924.71   983.61  1068.36
                             1104.09  1124.18  1137.42  1142.80  1190.85
                             1238.21  1278.15  1352.83  1384.84  1386.48
                             1430.68  1471.22  1530.14  1586.14  1590.08
                             1605.61  1621.80  1677.64  1707.00  1725.40
                             1814.92  1869.43  1888.00  1898.08  1953.73
                             1966.66  2015.13  2044.20  2067.74  2070.30
                             2104.08  2150.31  2167.01  2187.04  2189.13
                             2196.53  2206.74  2209.85  2217.17  2384.58
                             2396.23  2609.35  4392.57  4393.42  4409.45
                             4422.99  4480.59  4482.93  4507.63  4509.44
                             4527.11  4529.37  4606.19  4638.12  4648.45
                             4710.86

 Zero-point correction=                           0.237873 (Hartree/Particle)
 Thermal correction to Energy=                    0.252802
 Thermal correction to Enthalpy=                  0.253747
 Thermal correction to Gibbs Free Energy=         0.193613
 Sum of electronic and zero-point Energies=           -732.421912
 Sum of electronic and thermal Energies=              -732.406982
 Sum of electronic and thermal Enthalpies=            -732.406038
 Sum of electronic and thermal Free Energies=         -732.466172

                     E (Thermal)             CV                S
                      KCal/Mol        Cal/Mol-Kelvin    Cal/Mol-Kelvin
 Total                  158.636             54.879            126.561
 Electronic               0.000              0.000              0.000
 Translational            0.889              2.981             41.945
 Rotational               0.889              2.981             32.533
 Vibrational            156.858             48.917             52.083
 Vibration     1          0.593              1.986              6.841
 Vibration     2          0.594              1.982              5.413
 Vibration     3          0.596              1.977              4.758
 Vibration     4          0.598              1.970              4.261
 Vibration     5          0.601              1.958              3.720
 Vibration     6          0.607              1.937              3.191
 Vibration     7          0.608              1.934              3.130
 Vibration     8          0.640              1.833              2.086
 Vibration     9          0.651              1.798              1.894
 Vibration    10          0.660              1.770              1.762
 Vibration    11          0.669              1.744              1.656
 Vibration    12          0.671              1.739              1.634
 Vibration    13          0.710              1.623              1.279
 Vibration    14          0.713              1.616              1.261
 Vibration    15          0.743              1.531              1.074
 Vibration    16          0.794              1.397              0.847
 Vibration    17          0.821              1.331              0.756
 Vibration    18          0.823              1.325              0.748
 Vibration    19          0.859              1.241              0.648
 Vibration    20          0.880              1.196              0.599
 Vibration    21          0.955              1.037              0.454
 Vibration    22          0.971              1.007              0.430

 Optimization completed on the basis of negligible forces.
    -- Stationary point found.
 Normal termination of Gaussian 09 at Wed Sep 29 21:43:30 2021.
 Gaussian 09:  AM64L-G09RevA.02 11-Jun-2009

 ----------------------------------------------------------------------
 #p TD(NStates=10, Root=1) b3lyp/6-31G* volume pop=NPA density=current
 Geom=AllCheck Guess=Read
 ----------------------------------------------------------------------

 CCN(C(=O)Oc1cccc(c1)F)CC_conf_0
 -------------------------------
 Redundant internal coordinates taken from checkpoint file:
 C11H14FNO2_bf92_conf_0.chk
 Charge =  0 Multiplicity = 1

                         Standard orientation:
 ---------------------------------------------------------------------
 Center     Atomic      Atomic             Coordinates (Angstroms)
 Number     Number       Type             X           Y           Z
 ---------------------------------------------------------------------
      1          6           0        3.699362   -2.070881    0.401859
      2          6           0        3.382803   -0.901081   -0.532932
      3          7           0        2.330982   -0.019958   -0.012736
      4          6           0        1.044138   -0.329405   -0.328587
      5          8           0        0.689520   -1.294464   -0.979009
      6          8           0        0.179821    0.622141    0.185602
      7          6           0       -1.194059    0.474997    0.056845
      8          6           0       -1.908365    1.649240   -0.187439
      9          6           0       -3.300951    1.604317   -0.244253
     10          6           0       -3.984173    0.401094   -0.064027
     11          6           0       -3.235671   -0.745201    0.177199
     12          6           0       -1.847955   -0.742777    0.249151
     13          9           0       -3.880673   -1.917279    0.357883
     14          6           0        2.717974    1.139294    0.798423
     15          6           0        2.954849    2.405488   -0.029264
     16          1           0        4.506143   -2.684329   -0.015590
     17          1           0        2.815434   -2.703705    0.525172
     18          1           0        4.017200   -1.720179    1.390602
     19          1           0        3.055662   -1.276953   -1.504710
     20          1           0        4.274059   -0.285095   -0.697036
     21          1           0       -1.365849    2.578370   -0.325743
     22          1           0       -3.859526    2.516398   -0.433093
     23          1           0       -5.066008    0.339168   -0.108137
     24          1           0       -1.308009   -1.662651    0.423607
     25          1           0        3.630747    0.861542    1.337741
     26          1           0        1.945412    1.316545    1.548600
     27          1           0        3.730630    2.247556   -0.787034
     28          1           0        3.276335    3.229685    0.618080
     29          1           0        2.034511    2.706938   -0.538849
 ---------------------------------------------------------------------

 SCF Done:  E(RB3LYP) =  -732.659784846     A.U. after    2 cycles

 Excitation energies and oscillator strengths:

 Excited State   1:      Singlet-A      5.3218 eV  232.97 nm  f=0.0236  <S**2>=0.000
      54 -> 57         0.11318
      54 -> 58         0.30292
      55 -> 57         0.22869
      55 -> 58         0.17296
      56 -> 57         0.50643
      56 -> 58        -0.23054
 This state for optimization and/or second-order correction.
 Total Energy, E(TD-HF/TD-KS) =  -732.464211810
 Copying the excited state density for this state as the 1-particle RhoCI density.

 Excited State   2:      Singlet-A      5.8355 eV  212.47 nm  f=0.1026  <S**2>=0.000
      55 -> 57         0.55369
      56 -> 57        -0.34725
      56 -> 58        -0.24379

 Excited State   3:      Singlet-A      6.0230 eV  205.85 nm  f=0.0437  <S**2>=0.000
      54 -> 57         0.51791
      55 -> 57        -0.19376
      56 -> 57        -0.13567
      56 -> 58        -0.39409

 Excited State   4:      Singlet-A      6.1939 eV  200.17 nm  f=0.0214  <S**2>=0.000
      54 -> 57        -0.15073
      54 -> 58        -0.33617
      55 -> 58         0.57500
      56 -> 58        -0.15161

 Excited State   5:      Singlet-A      6.2948 eV  196.96 nm  f=0.0375  <S**2>=0.000
      53 -> 57         0.58295
      53 -> 58         0.19596
      53 -> 59         0.21400
      54 -> 57        -0.15983
      56 -> 58        -0.15358

 Excited State   6:      Singlet-A      6.7128 eV  184.70 nm  f=0.3523  <S**2>=0.000
      53 -> 57        -0.19385
      53 -> 58         0.42698
      54 -> 58        -0.34634
      55 -> 58        -0.20215
      55 -> 59        -0.13723
      56 -> 57         0.19318
      56 -> 59         0.16594

 Excited State   7:      Singlet-A      6.8464 eV  181.09 nm  f=0.2412  <S**2>=0.000
      53 -> 57         0.29696
      53 -> 58        -0.24075
      54 -> 57         0.23156
      54 -> 58        -0.26249
      55 -> 57         0.20019
      56 -> 58         0.15391
      56 -> 59         0.36559

 Excited State   8:      Singlet-A      6.9136 eV  179.33 nm  f=0.2052  <S**2>=0.000
      52 -> 57        -0.17570
      53 -> 58         0.35996
      53 -> 59         0.13298
      54 -> 57         0.27357
      54 -> 59         0.13961
      55 -> 57         0.13253
      55 -> 58         0.25400
      56 -> 58         0.34667

 Excited State   9:      Singlet-A      7.1031 eV  174.55 nm  f=0.0836  <S**2>=0.000
      53 -> 58        -0.27663
      53 -> 59         0.44661
      55 -> 59        -0.38619
      56 -> 59        -0.14690

 Excited State  10:      Singlet-A      7.2910 eV  170.05 nm  f=0.0931  <S**2>=0.000
      52 -> 57        -0.16775
      52 -> 58        -0.17363
      53 -> 59         0.17595
      54 -> 58         0.22907
      54 -> 59        -0.12696
      55 -> 57        -0.10959
      56 -> 57        -0.13403
      56 -> 59         0.52146

 The electronic state is 1-A.
 Alpha  occ. eigenvalues --  -24.69896 -19.19982 -19.11977 -14.36793 -10.33465
 Alpha  occ. eigenvalues --  -10.27062 -10.25900 -10.23062 -10.22526 -10.20076
 Alpha  occ. eigenvalues --  -10.19215 -10.19206 -10.19201 -10.18686 -10.18190
 Alpha  occ. eigenvalues --   -1.21066  -1.10899  -1.01841  -0.94408  -0.85935
 Alpha  occ. eigenvalues --   -0.77726  -0.76597  -0.75186  -0.73784  -0.66879
 Alpha  occ. eigenvalues --   -0.64820  -0.62567  -0.60967  -0.57107  -0.53103
 Alpha  occ. eigenvalues --   -0.51996  -0.50174  -0.49207  -0.48479  -0.46839
 Alpha  occ. eigenvalues --   -0.45474  -0.45038  -0.44341  -0.43906  -0.43371
 Alpha  occ. eigenvalues --   -0.41803  -0.40620  -0.39704  -0.39196  -0.38309
 Alpha  occ. eigenvalues --   -0.37608  -0.37568  -0.36033  -0.35703  -0.35409
 Alpha  occ. eigenvalues --   -0.34792  -0.31837  -0.27565  -0.25004  -0.24456
 Alpha  occ. eigenvalues --   -0.23474
 Alpha virt. eigenvalues --   -0.00611   0.00465   0.05233   0.07839   0.08518
 Alpha virt. eigenvalues --    0.10975   0.12176   0.13582   0.13875   0.14668
 Alpha virt. eigenvalues --    0.15233   0.15376   0.16054   0.16412   0.16501

 Mulliken atomic charges:
              1
     1  C   -0.444268
     2  C   -0.146043
     3  N   -0.436358
     4  C    0.787777
     5  O   -0.508374
     6  O   -0.540091
     7  C    0.343386
     8  C   -0.156504
     9  C   -0.167818
    10  C   -0.186514
    11  C    0.362741
    12  C   -0.233325
    13  F   -0.277963
    14  C   -0.143403
    15  C   -0.443029
    16  H    0.149631
    17  H    0.174987
    18  H    0.145667
    19  H    0.184422
    20  H    0.145990
    21  H    0.144923
    22  H    0.135183
    23  H    0.147133
    24  H    0.167572
    25  H    0.151707
    26  H    0.176422
    27  H    0.151909
    28  H    0.149401
    29  H    0.164840
 Sum of Mulliken atomic charges =  -0.00000

 Dipole moment (field-independent basis, Debye):
    X=              3.0328    Y=              2.4809    Z=              1.1345  Tot=              4.0792
 Quadrupole moment (field-independent basis, Debye-Ang):
   XX=            -75.4605   YY=            -86.6895   ZZ=            -89.7887
   XY=             -3.3958   XZ=              1.7320   YZ=             -2.0434

 Summary of Natural Population Analysis:

                                       Natural Population
                Natural  -----------------------------------------------
    Atom  No    Charge         Core      Valence    Rydberg      Total
 -----------------------------------------------------------------------
      C    1   -0.68838      1.99945     4.68146    0.00747     6.68838
      C    2   -0.25547      1.99935     4.24069    0.01543     6.25547
      N    3   -0.49163      1.99930     5.47869    0.01364     7.49163
      C    4    0.93130      1.99936     3.02384    0.04550     5.06870
      O    5   -0.63778      1.99978     6.61878    0.01923     8.63778
      O    6   -0.52880      1.99969     6.51852    0.01059     8.52880
      C    7    0.29547      1.99877     3.68217    0.02359     5.70453
      C    8   -0.22404      1.99905     4.20753    0.01746     6.22404
      C    9   -0.27881      1.99916     4.26080    0.01885     6.27881
      C   10   -0.28734      1.99903     4.26987    0.01845     6.28734
      C   11    0.42892      1.99849     3.54415    0.02844     5.57108
      C   12   -0.37315      1.99894     4.35489    0.01932     6.37315
      F   13   -0.30872      1.99994     7.30316    0.00562     9.30872
      C   14   -0.25979      1.99934     4.24533    0.01512     6.25979
      C   15   -0.68756      1.99945     4.68065    0.00746     6.68756
      H   16    0.23630      0.00000     0.76282    0.00088     0.76370
      H   17    0.24370      0.00000     0.75501    0.00129     0.75630
      H   18    0.22482      0.00000     0.77425    0.00093     0.77518
      H   19    0.25871      0.00000     0.73934    0.00195     0.74129
      H   20    0.22807      0.00000     0.77062    0.00131     0.77193
      H   21    0.24045      0.00000     0.75840    0.00115     0.75955
      H   22    0.23550      0.00000     0.76376    0.00074     0.76450
      H   23    0.24463      0.00000     0.75419    0.00118     0.75537
      H   24    0.26553      0.00000     0.73295    0.00152     0.73447
      H   25    0.23270      0.00000     0.76587    0.00144     0.76730
      H   26    0.25315      0.00000     0.74529    0.00156     0.74685
      H   27    0.22874      0.00000     0.77035    0.00091     0.77126
      H   28    0.23592      0.00000     0.76315    0.00093     0.76408
      H   29    0.23758      0.00000     0.76105    0.00138     0.76242
 =======================================================================
   * Total *    0.00000     29.98911    81.72757    0.28332   112.00000

 Normal termination of Gaussian 09 at Thu Sep 30 02:22:59 2021.
