 Gaussian 09, Revision A.02,

 -----------------------------------
 #p opt b3lyp/6-31G* scf=(xqc,tight)
 -----------------------------------

 -----------------------------
 COc1ccc2c(c1)ccc(c2)Br_conf_0
 -----------------------------
 Symbolic Z-matrix:
 Charge =  0 Multiplicity = 1

 SCF Done:  E(RB3LYP) =  -3071.51696009     A.U. after   16 cycles
 SCF Done:  E(RB3LYP) =  -3071.52090385     A.U. after   13 cycles
 SCF Done:  E(RB3LYP) =  -3071.52129055     A.U. after   12 cycles
 SCF Done:  E(RB3LYP) =  -3071.52138235     A.U. after   12 cycles
 SCF Done:  E(RB3LYP) =  -3071.52142147     A.U. after   11 cycles
 SCF Done:  E(RB3LYP) =  -3071.52143350     A.U. after   10 cycles
 SCF Done:  E(RB3LYP) =  -3071.52143497     A.U. after   16 cycles
 Optimization completed.
    -- Stationary point found.
 Normal termination of Gaussian 09 at Tue Sep 28 22:56:43 2021.

 ----------------------------------------------------------------------
 #p freq b3lyp/6-31G* volume NMR pop=NPA density=current Geom=AllCheck
 Guess=Read
 ----------------------------------------------------------------------

 COc1ccc2c(c1)ccc(c2)Br_conf_0
 -----------------------------
 Redundant internal coordinates taken from checkpoint file:
 C11H9BrO_917c_conf_0.chk
 Charge =  0 Multiplicity = 1

 SCF Done:  E(RB3LYP) =  -3071.52143497     A.U. after    1 cycles

  1  C    Isotropic =   137.3020   Anisotropy =    65.7071

  2  O    Isotropic =   233.0658   Anisotropy =    84.7988

  3  C    Isotropic =    39.9494   Anisotropy =   123.7711

  4  C    Isotropic =    75.4380   Anisotropy =   136.7155

  5  C    Isotropic =    67.0038   Anisotropy =   142.5954

  6  C    Isotropic =    67.0838   Anisotropy =   183.9014

  7  C    Isotropic =    63.4347   Anisotropy =   194.5215

  8  C    Isotropic =    89.9603   Anisotropy =   119.2796

  9  C    Isotropic =    68.3005   Anisotropy =   137.1200

 10  C    Isotropic =    66.2616   Anisotropy =   135.3223

 11  C    Isotropic =    59.5792   Anisotropy =    97.5317

 12  C    Isotropic =    65.3480   Anisotropy =   122.2347

 13  Br   Isotropic =  2200.2391   Anisotropy =  1163.9099

 14  H    Isotropic =    28.1911   Anisotropy =     8.2298

 15  H    Isotropic =    28.5392   Anisotropy =     7.9730

 16  H    Isotropic =    28.5399   Anisotropy =     7.9722

 17  H    Isotropic =    25.2047   Anisotropy =     6.2411

 18  H    Isotropic =    24.7746   Anisotropy =     7.1439

 19  H    Isotropic =    25.6915   Anisotropy =     9.3166

 20  H    Isotropic =    24.8478   Anisotropy =     7.4331

 21  H    Isotropic =    24.9865   Anisotropy =     9.2024

 22  H    Isotropic =    24.7673   Anisotropy =    10.8897

  Exact polarizability: 235.598   6.065 132.652  -0.001   0.001  54.410
 Approx polarizability: 355.346  21.760 239.805  -0.004   0.001  85.352

                     1                      2                      3
                     A                      A                      A
 Frequencies --    52.3159               108.6140               140.0769
 Red. masses --     5.3983                 3.9693                 6.1506
 Frc consts  --     0.0087                 0.0276                 0.0711
 IR Inten    --     0.3131                 2.9832                 0.4365

                     4                      5                      6
                     A                      A                      A
 Frequencies --   179.1289               198.8778               203.5461
 Red. masses --     3.1363                 3.7531                 5.6010
 Frc consts  --     0.0593                 0.0875                 0.1367
 IR Inten    --     0.0778                 2.7258                 1.9400

                     7                      8                      9
                     A                      A                      A
 Frequencies --   255.5694               283.2126               365.0494
 Red. masses --     1.2779                 6.8970                 5.3351
 Frc consts  --     0.0492                 0.3259                 0.4189
 IR Inten    --     0.1140                 0.1062                 0.0217

                    10                     11                     12
                     A                      A                      A
 Frequencies --   381.2220               413.0265               477.4813
 Red. masses --     4.3229                 3.3715                 5.2974
 Frc consts  --     0.3701                 0.3389                 0.7116
 IR Inten    --     2.3346                 0.1394                13.1003

                    13                     14                     15
                     A                      A                      A
 Frequencies --   490.2762               529.3674               535.4850
 Red. masses --     2.6513                 6.7777                 4.6062
 Frc consts  --     0.3755                 1.1190                 0.7782
 IR Inten    --     8.0898                 5.7222                10.2628

                    16                     17                     18
                     A                      A                      A
 Frequencies --   565.5929               655.8904               665.4174
 Red. masses --     3.2745                 7.1533                 3.6703
 Frc consts  --     0.6172                 1.8131                 0.9575
 IR Inten    --     1.0619                 0.6447                 1.8620

                    19                     20                     21
                     A                      A                      A
 Frequencies --   735.0655               768.1449               812.3599
 Red. masses --     6.5923                 2.8256                 4.9354
 Frc consts  --     2.0986                 0.9823                 1.9190
 IR Inten    --     2.8393                 0.0829                 4.0664

                    22                     23                     24
                     A                      A                      A
 Frequencies --   817.5791               831.2525               872.9625
 Red. masses --     1.3293                 1.5052                 1.6523
 Frc consts  --     0.5235                 0.6128                 0.7419
 IR Inten    --     5.0811                16.7051                42.5269

                    25                     26                     27
                     A                      A                      A
 Frequencies --   916.8191               917.7618               969.0832
 Red. masses --     5.4634                 1.4920                 1.2923
 Frc consts  --     2.7057                 0.7404                 0.7151
 IR Inten    --    62.2324                17.2795                 0.4764

                    28                     29                     30
                     A                      A                      A
 Frequencies --   975.5540               976.5825              1073.8940
 Red. masses --     1.3227                 3.9321                 4.6581
 Frc consts  --     0.7417                 2.2095                 3.1651
 IR Inten    --     0.0015                 0.6863                46.3711

                    31                     32                     33
                     A                      A                      A
 Frequencies --  1091.6147              1158.5457              1182.1926
 Red. masses --     2.3583                 1.5041                 1.2279
 Frc consts  --     1.6557                 1.1895                 1.0111
 IR Inten    --    25.0716                 9.1923                 0.5811

                    34                     35                     36
                     A                      A                      A
 Frequencies --  1185.5608              1207.3785              1230.0037
 Red. masses --     1.2726                 1.5544                 1.7153
 Frc consts  --     1.0539                 1.3351                 1.5290
 IR Inten    --     0.8027                20.5785                 1.7494

                    37                     38                     39
                     A                      A                      A
 Frequencies --  1252.1257              1297.9252              1303.8872
 Red. masses --     1.8203                 1.8912                 2.6329
 Frc consts  --     1.6815                 1.8771                 2.6374
 IR Inten    --   163.5561                 6.3919               167.9170

                    40                     41                     42
                     A                      A                      A
 Frequencies --  1373.2405              1409.8270              1431.8020
 Red. masses --     1.8295                 5.7201                 3.6680
 Frc consts  --     2.0327                 6.6987                 4.4304
 IR Inten    --     2.6739                 8.3148                78.3085

                    43                     44                     45
                     A                      A                      A
 Frequencies --  1454.6384              1492.4032              1519.4463
 Red. masses --     4.4234                 1.3084                 1.0478
 Frc consts  --     5.5146                 1.7170                 1.4252
 IR Inten    --    16.0970                14.7402                 6.0238

                    46                     47                     48
                     A                      A                      A
 Frequencies --  1524.1873              1533.0403              1554.3845
 Red. masses --     2.0736                 1.1030                 3.0837
 Frc consts  --     2.8383                 1.5274                 4.3897
 IR Inten    --     3.2799                51.0450                42.4742

                    49                     50                     51
                     A                      A                      A
 Frequencies --  1625.7503              1647.9801              1683.2758
 Red. masses --     7.3194                 5.8503                 5.9920
 Frc consts  --    11.3981                 9.3613                10.0030
 IR Inten    --    10.8333                95.3327                93.2017

                    52                     53                     54
                     A                      A                      A
 Frequencies --  3027.5503              3087.0018              3161.0577
 Red. masses --     1.0346                 1.1067                 1.1000
 Frc consts  --     5.5874                 6.2140                 6.4758
 IR Inten    --    51.3015                41.4034                28.2196

                    55                     56                     57
                     A                      A                      A
 Frequencies --  3187.0729              3190.3492              3212.8985
 Red. masses --     1.0890                 1.0886                 1.0914
 Frc consts  --     6.5172                 6.5281                 6.6377
 IR Inten    --    10.3627                 7.1650                 3.0019

                    58                     59                     60
                     A                      A                      A
 Frequencies --  3218.9517              3219.0271              3226.9039
 Red. masses --     1.0897                 1.0939                 1.0934
 Frc consts  --     6.6523                 6.6783                 6.7081
 IR Inten    --    11.2815                 9.7677                 4.8750

 - Thermochemistry -
 -------------------
 Temperature   298.150 Kelvin.  Pressure   1.00000 Atm.
 Atom     1 has atomic number  6 and mass  12.00000

 Molecular mass:   235.98368 amu.
 Principal axes and moments of inertia in atomic units:
                           1         2         3
     Eigenvalues --   779.713977985.481808753.66987
           X            0.99998  -0.00617   0.00000
           Y            0.00617   0.99998   0.00000
           Z           -0.00000  -0.00000   1.00000
 This molecule is an asymmetric top.
 Rotational symmetry number  1.
 Warning -- assumption of classical behavior for rotation
           may cause significant error
 Rotational temperatures (Kelvin)      0.11108     0.01085     0.00989
 Rotational constants (GHZ):           2.31462     0.22600     0.20617
 Zero-point vibrational energy     447745.7 (Joules/Mol)
                                  107.01378 (Kcal/Mol)
 Warning -- explicit consideration of  16 degrees of freedom as
           vibrations may cause significant error
 Vibrational temperatures:     75.27   156.27   201.54   257.73   286.14
          (Kelvin)            292.86   367.71   407.48   525.22   548.49
                              594.25   686.99   705.40   761.64   770.44
                              813.76   943.68   957.39  1057.59  1105.19
                             1168.80  1176.31  1195.99  1256.00  1319.10
                             1320.45  1394.29  1403.60  1405.08  1545.09
                             1570.59  1666.89  1700.91  1705.76  1737.15
                             1769.70  1801.53  1867.42  1876.00  1975.78
                             2028.42  2060.04  2092.90  2147.23  2186.14
                             2192.96  2205.70  2236.41  2339.09  2371.07
                             2421.86  4355.96  4441.50  4548.05  4585.48
                             4590.20  4622.64  4631.35  4631.46  4642.79

 Zero-point correction=                           0.170537 (Hartree/Particle)
 Thermal correction to Energy=                    0.181418
 Thermal correction to Enthalpy=                  0.182362
 Thermal correction to Gibbs Free Energy=         0.132723
 Sum of electronic and zero-point Energies=          -3071.350898
 Sum of electronic and thermal Energies=             -3071.340017
 Sum of electronic and thermal Enthalpies=           -3071.339073
 Sum of electronic and thermal Free Energies=        -3071.388712

                     E (Thermal)             CV                S
                      KCal/Mol        Cal/Mol-Kelvin    Cal/Mol-Kelvin
 Total                  113.841             42.160            104.475
 Electronic               0.000              0.000              0.000
 Translational            0.889              2.981             42.277
 Rotational               0.889              2.981             32.366
 Vibrational            112.064             36.199             29.831
 Vibration     1          0.596              1.977              4.728
 Vibration     2          0.606              1.942              3.294
 Vibration     3          0.615              1.913              2.803
 Vibration     4          0.629              1.868              2.337
 Vibration     5          0.637              1.841              2.143
 Vibration     6          0.639              1.835              2.101
 Vibration     7          0.666              1.753              1.692
 Vibration     8          0.682              1.705              1.514
 Vibration     9          0.738              1.544              1.101
 Vibration    10          0.751              1.510              1.034
 Vibration    11          0.777              1.442              0.916
 Vibration    12          0.834              1.300              0.717
 Vibration    13          0.846              1.272              0.683
 Vibration    14          0.884              1.185              0.589
 Vibration    15          0.890              1.172              0.575
 Vibration    16          0.921              1.106              0.513

 Optimization completed.
    -- Stationary point found.
 Normal termination of Gaussian 09 at Tue Sep 28 23:46:53 2021.
 Gaussian 09:  AM64L-G09RevA.02 11-Jun-2009

 ----------------------------------------------------------------------
 #p TD(NStates=10, Root=1) b3lyp/6-31G* volume pop=NPA density=current
 Geom=AllCheck Guess=Read
 ----------------------------------------------------------------------

 COc1ccc2c(c1)ccc(c2)Br_conf_0
 -----------------------------
 Redundant internal coordinates taken from checkpoint file:
 C11H9BrO_917c_conf_0.chk
 Charge =  0 Multiplicity = 1

                         Standard orientation:
 ---------------------------------------------------------------------
 Center     Atomic      Atomic             Coordinates (Angstroms)
 Number     Number       Type             X           Y           Z
 ---------------------------------------------------------------------
      1          6           0        5.199786   -0.993672    0.000123
      2          8           0        4.580563    0.283256   -0.000069
      3          6           0        3.218805    0.335332   -0.000152
      4          6           0        2.679473    1.652519    0.000002
      5          6           0        1.323052    1.847471    0.000055
      6          6           0        0.423029    0.744376    0.000017
      7          6           0        0.967411   -0.578815    0.000012
      8          6           0        2.377884   -0.759950   -0.000083
      9          6           0        0.068589   -1.678658    0.000013
     10          6           0       -1.295458   -1.488978   -0.000001
     11          6           0       -1.812931   -0.174770   -0.000015
     12          6           0       -0.984186    0.922036    0.000001
     13         35           0       -3.712345    0.064133    0.000004
     14          1           0        6.274843   -0.805837    0.000250
     15          1           0        4.930596   -1.570294   -0.894673
     16          1           0        4.930387   -1.570212    0.894885
     17          1           0        3.374246    2.486513    0.000079
     18          1           0        0.918073    2.856301    0.000116
     19          1           0        2.768056   -1.771746   -0.000108
     20          1           0        0.471508   -2.688587    0.000018
     21          1           0       -1.975422   -2.333758   -0.000006
     22          1           0       -1.397448    1.925579    0.000010
 ---------------------------------------------------------------------

 SCF Done:  E(RB3LYP) =  -3071.52143497     A.U. after    2 cycles

 Excitation energies and oscillator strengths:

 Excited State   1:      Singlet-A      4.0628 eV  305.17 nm  f=0.0458  <S**2>=0.000
      58 -> 60         0.13554
      58 -> 61        -0.18638
      59 -> 60         0.64477
      59 -> 61         0.16823
 This state for optimization and/or second-order correction.
 Total Energy, E(TD-HF/TD-KS) =  -3071.37212887
 Copying the excited state density for this state as the 1-particle RhoCI density.

 Excited State   2:      Singlet-A      4.5475 eV  272.64 nm  f=0.0112  <S**2>=0.000
      58 -> 60         0.49969
      59 -> 60        -0.22445
      59 -> 61         0.43937

 Excited State   3:      Singlet-A      5.0939 eV  243.40 nm  f=0.0001  <S**2>=0.000
      57 -> 62        -0.12686
      59 -> 62         0.69450

 Excited State   4:      Singlet-A      5.5022 eV  225.34 nm  f=0.0043  <S**2>=0.000
      57 -> 60         0.63871
      59 -> 63         0.26060

 Excited State   5:      Singlet-A      5.5599 eV  223.00 nm  f=1.0701  <S**2>=0.000
      58 -> 60        -0.41532
      58 -> 61         0.18324
      59 -> 61         0.49596
      59 -> 63        -0.16940

 Excited State   6:      Singlet-A      5.7875 eV  214.23 nm  f=0.0000  <S**2>=0.000
      56 -> 60         0.70054

 Excited State   7:      Singlet-A      5.8075 eV  213.49 nm  f=0.0853  <S**2>=0.000
      55 -> 60         0.19956
      55 -> 61        -0.13804
      57 -> 60        -0.23140
      57 -> 61        -0.19212
      58 -> 61         0.12788
      59 -> 61         0.11202
      59 -> 63         0.54729

 Excited State   8:      Singlet-A      5.8282 eV  212.73 nm  f=0.0000  <S**2>=0.000
      58 -> 62         0.69777

 Excited State   9:      Singlet-A      5.8766 eV  210.98 nm  f=0.4087  <S**2>=0.000
      54 -> 60        -0.15940
      58 -> 60         0.19860
      58 -> 61         0.60318
      59 -> 60         0.15794

 Excited State  10:      Singlet-A      6.2277 eV  199.09 nm  f=0.0217  <S**2>=0.000
      55 -> 60        -0.38944
      57 -> 60         0.11029
      57 -> 61        -0.23779
      58 -> 61         0.11249
      58 -> 63         0.50000

 The electronic state is 1-A.
 Alpha  occ. eigenvalues -- -482.90563 -61.86737 -56.38870 -56.38461 -56.38450
 Alpha  occ. eigenvalues --  -19.18601 -10.25535 -10.24694 -10.24216 -10.20663
 Alpha  occ. eigenvalues --  -10.20376 -10.20169 -10.20071 -10.19948 -10.19888
 Alpha  occ. eigenvalues --  -10.19546 -10.19226  -8.57875  -6.53265  -6.51998
 Alpha  occ. eigenvalues --   -6.51976  -2.64838  -2.64475  -2.64460  -2.63448
 Alpha  occ. eigenvalues --   -2.63448  -1.07196  -0.88237  -0.83808  -0.79081
 Alpha  occ. eigenvalues --   -0.77431  -0.74344  -0.72577  -0.69368  -0.63190
 Alpha  occ. eigenvalues --   -0.60634  -0.59814  -0.53695  -0.51827  -0.50889
 Alpha  occ. eigenvalues --   -0.47492  -0.47152  -0.45763  -0.44942  -0.43270
 Alpha  occ. eigenvalues --   -0.41436  -0.41286  -0.40115  -0.38522  -0.36662
 Alpha  occ. eigenvalues --   -0.36161  -0.34677  -0.33256  -0.32362  -0.29758
 Alpha  occ. eigenvalues --   -0.28196  -0.26876  -0.23587  -0.20981
 Alpha virt. eigenvalues --   -0.04156  -0.01073   0.01107   0.02729   0.09246
 Alpha virt. eigenvalues --    0.09670   0.10253   0.11513   0.13427   0.14145
 Alpha virt. eigenvalues --    0.15017   0.16167   0.17189   0.18121   0.18906

 Mulliken atomic charges:
              1
     1  C   -0.227948
     2  O   -0.465287
     3  C    0.383175
     4  C   -0.197199
     5  C   -0.204798
     6  C    0.144993
     7  C    0.147959
     8  C   -0.269268
     9  C   -0.215436
    10  C   -0.178342
    11  C    0.089122
    12  C   -0.242855
    13  Br  -0.081416
    14  H    0.181396
    15  H    0.169178
    16  H    0.169186
    17  H    0.129653
    18  H    0.129298
    19  H    0.136459
    20  H    0.121674
    21  H    0.135776
    22  H    0.144679
 Sum of Mulliken atomic charges =  -0.00000

 Dipole moment (field-independent basis, Debye):
    X=              3.1969    Y=             -1.5080    Z=              0.0002  Tot=              3.5348
 Quadrupole moment (field-independent basis, Debye-Ang):
   XX=            -71.5573   YY=            -80.7423   ZZ=            -90.8886
   XY=             -9.1462   XZ=              0.0011   YZ=              0.0001

 Summary of Natural Population Analysis:

                                       Natural Population
                Natural  -----------------------------------------------
    Atom  No    Charge         Core      Valence    Rydberg      Total
 -----------------------------------------------------------------------
      C    1   -0.32534      1.99942     4.31179    0.01413     6.32534
      O    2   -0.45697      1.99975     6.44542    0.01180     8.45697
      C    3    0.37129      1.99880     3.60733    0.02258     5.62871
      C    4   -0.33787      1.99905     4.32168    0.01714     6.33787
      C    5   -0.21772      1.99907     4.20356    0.01509     6.21772
      C    6   -0.04096      1.99901     4.02677    0.01518     6.04096
      C    7   -0.04071      1.99903     4.02612    0.01556     6.04071
      C    8   -0.28524      1.99899     4.27336    0.01288     6.28524
      C    9   -0.23553      1.99906     4.22107    0.01540     6.23553
      C   10   -0.31393      1.99895     4.29697    0.01800     6.31393
      C   11   -0.06049      1.99859     4.04018    0.02172     6.06049
      C   12   -0.27123      1.99887     4.25492    0.01745     6.27123
     Br   13    0.11524     27.99908     6.86851    0.01717    34.88476
      H   14    0.23427      0.00000     0.76523    0.00050     0.76573
      H   15    0.21397      0.00000     0.78438    0.00165     0.78603
      H   16    0.21397      0.00000     0.78437    0.00165     0.78603
      H   17    0.24366      0.00000     0.75530    0.00103     0.75634
      H   18    0.23481      0.00000     0.76417    0.00102     0.76519
      H   19    0.23473      0.00000     0.76410    0.00117     0.76527
      H   20    0.23077      0.00000     0.76816    0.00107     0.76923
      H   21    0.24636      0.00000     0.75269    0.00095     0.75364
      H   22    0.24691      0.00000     0.75175    0.00134     0.75309
 =======================================================================
   * Total *   -0.00000     51.98768    65.78780    0.22451   118.00000

 Normal termination of Gaussian 09 at Wed Sep 29 02:32:38 2021.
