 Gaussian 09, Revision A.02,

 -----------------------------------
 #p opt b3lyp/6-31G* scf=(xqc,tight)
 -----------------------------------

 ----------------------------
 COc1ccc2c(c1)ccc(c2)F_conf_0
 ----------------------------
 Symbolic Z-matrix:
 Charge =  0 Multiplicity = 1

 SCF Done:  E(RB3LYP) =  -599.644969257     A.U. after   14 cycles
 SCF Done:  E(RB3LYP) =  -599.648793551     A.U. after   12 cycles
 SCF Done:  E(RB3LYP) =  -599.649152913     A.U. after   11 cycles
 SCF Done:  E(RB3LYP) =  -599.649230625     A.U. after   11 cycles
 SCF Done:  E(RB3LYP) =  -599.649264671     A.U. after   11 cycles
 SCF Done:  E(RB3LYP) =  -599.649275628     A.U. after   10 cycles
 SCF Done:  E(RB3LYP) =  -599.649278340     A.U. after    8 cycles
 Optimization completed.
    -- Stationary point found.
 Normal termination of Gaussian 09 at Tue Sep 28 22:48:59 2021.

 ----------------------------------------------------------------------
 #p freq b3lyp/6-31G* volume NMR pop=NPA density=current Geom=AllCheck
 Guess=Read
 ----------------------------------------------------------------------

 COc1ccc2c(c1)ccc(c2)F_conf_0
 ----------------------------
 Redundant internal coordinates taken from checkpoint file:
 C11H9FO_8acc_conf_0.chk
 Charge =  0 Multiplicity = 1

 SCF Done:  E(RB3LYP) =  -599.649278340     A.U. after    1 cycles

  1  C    Isotropic =   137.3511   Anisotropy =    65.5617

  2  O    Isotropic =   235.7680   Anisotropy =    80.5740

  3  C    Isotropic =    40.8843   Anisotropy =   122.3087

  4  C    Isotropic =    75.3654   Anisotropy =   137.1343

  5  C    Isotropic =    67.0546   Anisotropy =   142.4846

  6  C    Isotropic =    67.0129   Anisotropy =   186.4602

  7  C    Isotropic =    65.3210   Anisotropy =   190.8240

  8  C    Isotropic =    89.7400   Anisotropy =   119.4806

  9  C    Isotropic =    67.3843   Anisotropy =   140.9149

 10  C    Isotropic =    78.9884   Anisotropy =   137.0670

 11  C    Isotropic =    36.7295   Anisotropy =    90.9009

 12  C    Isotropic =    83.0371   Anisotropy =   117.1170

 13  F    Isotropic =   304.0930   Anisotropy =    93.4817

 14  H    Isotropic =    28.1988   Anisotropy =     8.1784

 15  H    Isotropic =    28.5307   Anisotropy =     7.9927

 16  H    Isotropic =    28.5302   Anisotropy =     7.9934

 17  H    Isotropic =    25.1903   Anisotropy =     6.2770

 18  H    Isotropic =    24.7142   Anisotropy =     6.8300

 19  H    Isotropic =    25.6508   Anisotropy =     9.2341

 20  H    Isotropic =    24.7279   Anisotropy =     7.3141

 21  H    Isotropic =    25.2189   Anisotropy =     4.9984

 22  H    Isotropic =    25.2109   Anisotropy =     6.6164

  Exact polarizability: 185.105  -6.936 125.285   0.001   0.003  45.508
 Approx polarizability: 302.300 -21.866 221.934   0.004   0.006  69.576

                     1                      2                      3
                     A                      A                      A
 Frequencies --    68.1448               118.5020               182.4936
 Red. masses --     4.3472                 4.8646                 4.0579
 Frc consts  --     0.0119                 0.0402                 0.0796
 IR Inten    --     0.6403                 3.1900                 1.2654

                     4                      5                      6
                     A                      A                      A
 Frequencies --   187.7588               218.3328               270.2113
 Red. masses --     3.2834                 2.2812                 1.6215
 Frc consts  --     0.0682                 0.0641                 0.0698
 IR Inten    --     1.8029                 0.4348                 0.0334

                     7                      8                      9
                     A                      A                      A
 Frequencies --   289.1807               398.0137               403.2938
 Red. masses --     5.7015                 5.9436                 7.5984
 Frc consts  --     0.2809                 0.5547                 0.7281
 IR Inten    --     1.6705                 0.5345                 0.6498

                    10                     11                     12
                     A                      A                      A
 Frequencies --   413.0072               430.9917               488.9794
 Red. masses --     3.3825                 5.0886                 2.6840
 Frc consts  --     0.3399                 0.5569                 0.3781
 IR Inten    --     0.0378                 3.4654                 8.2868

                    13                     14                     15
                     A                      A                      A
 Frequencies --   515.7137               532.9020               575.5758
 Red. masses --     4.0200                 6.6315                 2.9907
 Frc consts  --     0.6299                 1.1096                 0.5838
 IR Inten    --     0.9680                 0.4876                 0.0460

                    16                     17                     18
                     A                      A                      A
 Frequencies --   592.7493               660.7120               687.9614
 Red. masses --     6.5608                 4.0650                 6.8304
 Frc consts  --     1.3582                 1.0455                 1.9047
 IR Inten    --    32.3202                 0.5318                 4.0252

                    19                     20                     21
                     A                      A                      A
 Frequencies --   750.0289               769.5514               812.8137
 Red. masses --     3.3041                 6.2570                 1.3215
 Frc consts  --     1.0951                 2.1832                 0.5144
 IR Inten    --     0.3958                 0.4585                13.3677

                    22                     23                     24
                     A                      A                      A
 Frequencies --   828.7271               860.7579               866.9547
 Red. masses --     1.5309                 4.2698                 1.6127
 Frc consts  --     0.6195                 1.8639                 0.7142
 IR Inten    --     5.2771                 1.5960                27.3223

                    25                     26                     27
                     A                      A                      A
 Frequencies --   878.4214               952.6103               964.5426
 Red. masses --     1.4742                 1.2757                 4.5692
 Frc consts  --     0.6702                 0.6821                 2.5046
 IR Inten    --    49.1856                 0.8225                27.3148

                    28                     29                     30
                     A                      A                      A
 Frequencies --   966.5847               993.3245              1075.6542
 Red. masses --     1.2762                 3.3240                 4.5150
 Frc consts  --     0.7025                 1.9324                 3.0779
 IR Inten    --     0.2234                 7.6380                45.4567

                    31                     32                     33
                     A                      A                      A
 Frequencies --  1143.0142              1169.3016              1185.6807
 Red. masses --     1.5097                 1.2267                 1.2729
 Frc consts  --     1.1621                 0.9882                 1.0544
 IR Inten    --    42.1731                 2.2917                 0.8162

                    34                     35                     36
                     A                      A                      A
 Frequencies --  1189.2458              1213.8446              1237.1442
 Red. masses --     1.4805                 1.4706                 1.7246
 Frc consts  --     1.2337                 1.2766                 1.5552
 IR Inten    --    16.5183                11.9600                28.6388

                    37                     38                     39
                     A                      A                      A
 Frequencies --  1286.5193              1293.9385              1303.8042
 Red. masses --     4.3766                 2.2922                 2.1253
 Frc consts  --     4.2679                 2.2611                 2.1286
 IR Inten    --   247.8143                72.0465                34.4653

                    40                     41                     42
                     A                      A                      A
 Frequencies --  1374.7697              1417.4093              1436.1200
 Red. masses --     1.9153                 6.0626                 4.1546
 Frc consts  --     2.1328                 7.1763                 5.0485
 IR Inten    --     5.2665                 0.0113               120.0739

                    43                     44                     45
                     A                      A                      A
 Frequencies --  1464.9384              1495.9610              1518.9628
 Red. masses --     4.2014                 1.2557                 1.0480
 Frc consts  --     5.3123                 1.6557                 1.4247
 IR Inten    --    20.5152                 2.7669                 5.7875

                    46                     47                     48
                     A                      A                      A
 Frequencies --  1534.2079              1540.5787              1564.4555
 Red. masses --     1.1311                 2.2324                 3.7575
 Frc consts  --     1.5686                 3.1216                 5.4185
 IR Inten    --    40.8203                 0.9819                57.0902

                    49                     50                     51
                     A                      A                      A
 Frequencies --  1634.3754              1671.4165              1691.6237
 Red. masses --     7.4103                 5.9415                 6.3354
 Frc consts  --    11.6625                 9.7795                10.6814
 IR Inten    --    21.2143               181.8110                 4.3497

                    52                     53                     54
                     A                      A                      A
 Frequencies --  3025.4524              3083.9398              3159.1811
 Red. masses --     1.0347                 1.1066                 1.0998
 Frc consts  --     5.5801                 6.2009                 6.4671
 IR Inten    --    49.2510                43.2212                28.0885

                    55                     56                     57
                     A                      A                      A
 Frequencies --  3188.2312              3188.6700              3213.4224
 Red. masses --     1.0890                 1.0886                 1.0916
 Frc consts  --     6.5218                 6.5211                 6.6409
 IR Inten    --    13.5454                 4.7041                 7.8157

                    58                     59                     60
                     A                      A                      A
 Frequencies --  3217.2935              3217.8881              3222.6139
 Red. masses --     1.0895                 1.0939                 1.0938
 Frc consts  --     6.6446                 6.6736                 6.6927
 IR Inten    --    10.5257                 9.6985                 7.3223

 - Thermochemistry -
 -------------------
 Temperature   298.150 Kelvin.  Pressure   1.00000 Atm.
 Atom     1 has atomic number  6 and mass  12.00000

 Molecular mass:   176.06374 amu.
 Principal axes and moments of inertia in atomic units:
                           1         2         3
     Eigenvalues --   775.582504161.996884926.05775
           X            0.99994   0.01099  -0.00000
           Y           -0.01099   0.99994  -0.00000
           Z            0.00000   0.00000   1.00000
 This molecule is an asymmetric top.
 Rotational symmetry number  1.
 Warning -- assumption of classical behavior for rotation
           may cause significant error
 Rotational temperatures (Kelvin)      0.11168     0.02081     0.01758
 Rotational constants (GHZ):           2.32695     0.43362     0.36637
 Zero-point vibrational energy     452418.7 (Joules/Mol)
                                  108.13066 (Kcal/Mol)
 Warning -- explicit consideration of  16 degrees of freedom as
           vibrations may cause significant error
 Vibrational temperatures:     98.05   170.50   262.57   270.14   314.13
          (Kelvin)            388.77   416.07   572.65   580.25   594.22
                              620.10   703.53   742.00   766.73   828.12
                              852.83   950.62   989.82  1079.12  1107.21
                             1169.46  1192.35  1238.44  1247.35  1263.85
                             1370.59  1387.76  1390.70  1429.17  1547.62
                             1644.54  1682.36  1705.93  1711.06  1746.45
                             1779.97  1851.01  1861.69  1875.88  1977.98
                             2039.33  2066.25  2107.72  2152.35  2185.45
                             2207.38  2216.55  2250.90  2351.50  2404.79
                             2433.87  4352.95  4437.10  4545.35  4587.15
                             4587.78  4623.39  4628.96  4629.82  4636.62

 Zero-point correction=                           0.172317 (Hartree/Particle)
 Thermal correction to Energy=                    0.182566
 Thermal correction to Enthalpy=                  0.183510
 Thermal correction to Gibbs Free Energy=         0.136470
 Sum of electronic and zero-point Energies=           -599.476961
 Sum of electronic and thermal Energies=              -599.466712
 Sum of electronic and thermal Enthalpies=            -599.465768
 Sum of electronic and thermal Free Energies=         -599.512808

                     E (Thermal)             CV                S
                      KCal/Mol        Cal/Mol-Kelvin    Cal/Mol-Kelvin
 Total                  114.562             41.000             99.004
 Electronic               0.000              0.000              0.000
 Translational            0.889              2.981             41.404
 Rotational               0.889              2.981             31.142
 Vibrational            112.784             35.038             26.457
 Vibration     1          0.598              1.969              4.206
 Vibration     2          0.609              1.934              3.125
 Vibration     3          0.630              1.864              2.303
 Vibration     4          0.632              1.857              2.250
 Vibration     5          0.646              1.813              1.973
 Vibration     6          0.674              1.728              1.595
 Vibration     7          0.686              1.694              1.479
 Vibration     8          0.764              1.474              0.970
 Vibration     9          0.769              1.463              0.951
 Vibration    10          0.777              1.442              0.916
 Vibration    11          0.792              1.403              0.855
 Vibration    12          0.845              1.274              0.686
 Vibration    13          0.871              1.215              0.620
 Vibration    14          0.888              1.177              0.581
 Vibration    15          0.932              1.084              0.494
 Vibration    16          0.950              1.047              0.462

 Optimization completed.
    -- Stationary point found.
 Normal termination of Gaussian 09 at Tue Sep 28 23:29:45 2021.
 Gaussian 09:  AM64L-G09RevA.02 11-Jun-2009

 ----------------------------------------------------------------------
 #p TD(NStates=10, Root=1) b3lyp/6-31G* volume pop=NPA density=current
 Geom=AllCheck Guess=Read
 ----------------------------------------------------------------------

 COc1ccc2c(c1)ccc(c2)F_conf_0
 ----------------------------
 Redundant internal coordinates taken from checkpoint file:
 C11H9FO_8acc_conf_0.chk
 Charge =  0 Multiplicity = 1

                         Standard orientation:
 ---------------------------------------------------------------------
 Center     Atomic      Atomic             Coordinates (Angstroms)
 Number     Number       Type             X           Y           Z
 ---------------------------------------------------------------------
      1          6           0       -4.070499   -1.064646    0.000282
      2          8           0       -3.484251    0.226860   -0.000121
      3          6           0       -2.122411    0.311576   -0.000010
      4          6           0       -1.614180    1.640482   -0.000083
      5          6           0       -0.262529    1.868464   -0.000042
      6          6           0        0.665723    0.789204   -0.000020
      7          6           0        0.151955   -0.547333   -0.000127
      8          6           0       -1.255017   -0.761801   -0.000116
      9          6           0        1.073586   -1.628887   -0.000159
     10          6           0        2.433295   -1.408489   -0.000054
     11          6           0        2.910509   -0.083527    0.000072
     12          6           0        2.068615    0.999253    0.000082
     13          9           0        4.248933    0.108837    0.000146
     14          1           0       -5.150217   -0.904928    0.000478
     15          1           0       -3.786650   -1.634718    0.894996
     16          1           0       -3.787013   -1.635188   -0.894229
     17          1           0       -2.328329    2.458053   -0.000140
     18          1           0        0.116660    2.887319   -0.000029
     19          1           0       -1.620280   -1.782971   -0.000255
     20          1           0        0.690394   -2.646310   -0.000243
     21          1           0        3.146720   -2.226220   -0.000052
     22          1           0        2.478036    2.004771    0.000170
 ---------------------------------------------------------------------

 SCF Done:  E(RB3LYP) =  -599.649278340     A.U. after    2 cycles

 Excitation energies and oscillator strengths:

 Excited State   1:      Singlet-A      4.0804 eV  303.85 nm  f=0.0495  <S**2>=0.000
      45 -> 47         0.10875
      45 -> 48        -0.18329
      46 -> 47         0.65847
      46 -> 48         0.13548
 This state for optimization and/or second-order correction.
 Total Energy, E(TD-HF/TD-KS) =  -599.499326541
 Copying the excited state density for this state as the 1-particle RhoCI density.

 Excited State   2:      Singlet-A      4.6602 eV  266.05 nm  f=0.0072  <S**2>=0.000
      45 -> 47         0.53261
      46 -> 47        -0.18305
      46 -> 48         0.41836

 Excited State   3:      Singlet-A      5.6315 eV  220.16 nm  f=0.0889  <S**2>=0.000
      44 -> 47        -0.44303
      45 -> 47         0.16562
      46 -> 48        -0.15282
      46 -> 49         0.48605

 Excited State   4:      Singlet-A      5.8331 eV  212.55 nm  f=0.9321  <S**2>=0.000
      44 -> 47        -0.14825
      45 -> 47        -0.35663
      45 -> 48         0.24525
      46 -> 48         0.50724

 Excited State   5:      Singlet-A      5.9055 eV  209.95 nm  f=0.1301  <S**2>=0.000
      43 -> 47        -0.12828
      43 -> 48         0.10543
      44 -> 47         0.32123
      44 -> 48         0.18117
      45 -> 47        -0.14807
      45 -> 48        -0.28829
      45 -> 49         0.17876
      46 -> 49         0.41616

 Excited State   6:      Singlet-A      6.1457 eV  201.74 nm  f=0.2299  <S**2>=0.000
      43 -> 47         0.16509
      44 -> 47         0.25021
      45 -> 47         0.12908
      45 -> 48         0.50408
      45 -> 49         0.27619
      46 -> 47         0.12916
      46 -> 49         0.11353

 Excited State   7:      Singlet-A      6.4357 eV  192.65 nm  f=0.1335  <S**2>=0.000
      43 -> 47         0.42890
      44 -> 47        -0.25164
      45 -> 48        -0.19040
      45 -> 49         0.43689

 Excited State   8:      Singlet-A      6.7272 eV  184.30 nm  f=0.0034  <S**2>=0.000
      43 -> 47         0.41730
      44 -> 47         0.20285
      44 -> 48        -0.38195
      45 -> 49        -0.27670
      46 -> 49         0.22370

 Excited State   9:      Singlet-A      6.8349 eV  181.40 nm  f=0.0000  <S**2>=0.000
      41 -> 47        -0.15185
      42 -> 47         0.68479

 Excited State  10:      Singlet-A      7.0522 eV  175.81 nm  f=0.0000  <S**2>=0.000
      46 -> 50         0.69903

 The electronic state is 1-A.
 Alpha  occ. eigenvalues --  -24.69783 -19.18200 -10.26614 -10.25047 -10.24412
 Alpha  occ. eigenvalues --  -10.20204 -10.20106 -10.19751 -10.19577 -10.19521
 Alpha  occ. eigenvalues --  -10.19192 -10.19159 -10.18883  -1.20872  -1.06781
 Alpha  occ. eigenvalues --   -0.87514  -0.82276  -0.77603  -0.75248  -0.72612
 Alpha  occ. eigenvalues --   -0.69963  -0.63287  -0.60848  -0.60158  -0.54047
 Alpha  occ. eigenvalues --   -0.53182  -0.51882  -0.48037  -0.47336  -0.47165
 Alpha  occ. eigenvalues --   -0.45322  -0.45164  -0.44741  -0.42682  -0.41236
 Alpha  occ. eigenvalues --   -0.39808  -0.39002  -0.37974  -0.36199  -0.35004
 Alpha  occ. eigenvalues --   -0.34474  -0.32835  -0.30012  -0.27753  -0.23310
 Alpha  occ. eigenvalues --   -0.20596
 Alpha virt. eigenvalues --   -0.03746   0.00017   0.03103   0.08811   0.09927
 Alpha virt. eigenvalues --    0.10830   0.11486   0.12052   0.14281   0.15258
 Alpha virt. eigenvalues --    0.16418   0.17134   0.18309   0.18688   0.19236

 Mulliken atomic charges:
              1
     1  C   -0.228927
     2  O   -0.462202
     3  C    0.381491
     4  C   -0.198037
     5  C   -0.205834
     6  C    0.147603
     7  C    0.141321
     8  C   -0.264043
     9  C   -0.211979
    10  C   -0.227809
    11  C    0.397152
    12  C   -0.293577
    13  F   -0.284318
    14  H    0.182116
    15  H    0.169980
    16  H    0.169983
    17  H    0.128672
    18  H    0.129366
    19  H    0.137624
    20  H    0.121430
    21  H    0.130505
    22  H    0.139481
 Sum of Mulliken atomic charges =  -0.00000

 Dipole moment (field-independent basis, Debye):
    X=             -3.4964    Y=             -1.6312    Z=              0.0005  Tot=              3.8582
 Quadrupole moment (field-independent basis, Debye-Ang):
   XX=            -68.2714   YY=            -66.8561   ZZ=            -77.0741
   XY=              7.3944   XZ=             -0.0020   YZ=              0.0002

 Summary of Natural Population Analysis:

                                       Natural Population
                Natural  -----------------------------------------------
    Atom  No    Charge         Core      Valence    Rydberg      Total
 -----------------------------------------------------------------------
      C    1   -0.32602      1.99942     4.31240    0.01419     6.32602
      O    2   -0.45215      1.99975     6.44064    0.01176     8.45215
      C    3    0.37032      1.99880     3.60835    0.02254     5.62968
      C    4   -0.34438      1.99905     4.32800    0.01733     6.34438
      C    5   -0.21509      1.99907     4.20080    0.01523     6.21509
      C    6   -0.04295      1.99903     4.02890    0.01503     6.04295
      C    7   -0.05445      1.99903     4.03993    0.01549     6.05445
      C    8   -0.27337      1.99899     4.26146    0.01292     6.27337
      C    9   -0.22828      1.99908     4.21377    0.01543     6.22828
      C   10   -0.37017      1.99901     4.35367    0.01750     6.37017
      C   11    0.47935      1.99843     3.49488    0.02734     5.52065
      C   12   -0.32113      1.99896     4.30597    0.01620     6.32113
      F   13   -0.31658      1.99994     7.31122    0.00542     9.31658
      H   14    0.23469      0.00000     0.76482    0.00050     0.76531
      H   15    0.21452      0.00000     0.78383    0.00164     0.78548
      H   16    0.21452      0.00000     0.78384    0.00164     0.78548
      H   17    0.24333      0.00000     0.75564    0.00103     0.75667
      H   18    0.23476      0.00000     0.76422    0.00102     0.76524
      H   19    0.23456      0.00000     0.76425    0.00119     0.76544
      H   20    0.22917      0.00000     0.76978    0.00105     0.77083
      H   21    0.24440      0.00000     0.75452    0.00108     0.75560
      H   22    0.24496      0.00000     0.75359    0.00145     0.75504
 =======================================================================
   * Total *    0.00000     25.98856    65.79447    0.21697    92.00000

 Normal termination of Gaussian 09 at Wed Sep 29 02:04:52 2021.
