 Gaussian 09, Revision A.02,

 -----------------------------------
 #p opt b3lyp/6-31G* scf=(xqc,tight)
 -----------------------------------

 -------------------------
 COCCc1ccc(cc1)OCOC_conf_0
 -------------------------
 Symbolic Z-matrix:
 Charge =  0 Multiplicity = 1

 SCF Done:  E(RB3LYP) =  -654.433241064     A.U. after   14 cycles
 SCF Done:  E(RB3LYP) =  -654.437224797     A.U. after   12 cycles
 SCF Done:  E(RB3LYP) =  -654.437827725     A.U. after   12 cycles
 SCF Done:  E(RB3LYP) =  -654.437983974     A.U. after   11 cycles
 SCF Done:  E(RB3LYP) =  -654.438077578     A.U. after   12 cycles
 SCF Done:  E(RB3LYP) =  -654.438120966     A.U. after   11 cycles
 SCF Done:  E(RB3LYP) =  -654.438138178     A.U. after   10 cycles
 SCF Done:  E(RB3LYP) =  -654.438139154     A.U. after    8 cycles
 SCF Done:  E(RB3LYP) =  -654.438139450     A.U. after    7 cycles
 SCF Done:  E(RB3LYP) =  -654.438139515     A.U. after    6 cycles
 Optimization completed.
    -- Stationary point found.
 Normal termination of Gaussian 09 at Thu Sep 30 18:49:22 2021.

 ----------------------------------------------------------------------
 #p freq b3lyp/6-31G* volume NMR pop=NPA density=current Geom=AllCheck
 Guess=Read
 ----------------------------------------------------------------------

 COCCc1ccc(cc1)OCOC_conf_0
 -------------------------
 Redundant internal coordinates taken from checkpoint file:
 C11H16O3_559a_conf_0.chk
 Charge =  0 Multiplicity = 1

 SCF Done:  E(RB3LYP) =  -654.438139515     A.U. after    1 cycles

  1  C    Isotropic =   132.6468   Anisotropy =    80.2618

  2  O    Isotropic =   304.3157   Anisotropy =    25.7003

  3  C    Isotropic =   116.8460   Anisotropy =    57.8398

  4  C    Isotropic =   152.2951   Anisotropy =    16.8563

  5  C    Isotropic =    63.9537   Anisotropy =   170.9796

  6  C    Isotropic =    66.7324   Anisotropy =   141.8661

  7  C    Isotropic =    86.6787   Anisotropy =   135.6434

  8  C    Isotropic =    43.0080   Anisotropy =   124.8579

  9  C    Isotropic =    78.8386   Anisotropy =   134.7129

 10  C    Isotropic =    63.5743   Anisotropy =   160.5736

 11  O    Isotropic =   203.7561   Anisotropy =    58.2785

 12  C    Isotropic =    97.5625   Anisotropy =    36.9282

 13  O    Isotropic =   284.5999   Anisotropy =    42.0563

 14  C    Isotropic =   134.9608   Anisotropy =    74.4913

 15  H    Isotropic =    28.5973   Anisotropy =     9.1870

 16  H    Isotropic =    29.1743   Anisotropy =     8.3367

 17  H    Isotropic =    29.0610   Anisotropy =     8.9451

 18  H    Isotropic =    28.6412   Anisotropy =     5.6986

 19  H    Isotropic =    29.0128   Anisotropy =     4.7574

 20  H    Isotropic =    29.1618   Anisotropy =     5.9916

 21  H    Isotropic =    30.0300   Anisotropy =     6.5565

 22  H    Isotropic =    25.4190   Anisotropy =     6.8810

 23  H    Isotropic =    26.1734   Anisotropy =     7.4176

 24  H    Isotropic =    25.5724   Anisotropy =     6.4217

 25  H    Isotropic =    24.7664   Anisotropy =     8.2971

 26  H    Isotropic =    26.8807   Anisotropy =     4.4516

 27  H    Isotropic =    27.3796   Anisotropy =     4.1883

 28  H    Isotropic =    28.6186   Anisotropy =     8.3063

 29  H    Isotropic =    29.2766   Anisotropy =     7.3154

 30  H    Isotropic =    28.2018   Anisotropy =     7.5187

  Exact polarizability: 176.271  -6.887 113.015   4.723  17.457  91.661
 Approx polarizability: 225.317 -11.417 169.798   7.322  40.687 145.750

                     1                      2                      3
                     A                      A                      A
 Frequencies --    23.1325                36.2738                60.3246
 Red. masses --     4.2790                 3.3667                 3.4113
 Frc consts  --     0.0013                 0.0026                 0.0073
 IR Inten    --     0.2654                 0.3857                 1.4114

                     4                      5                      6
                     A                      A                      A
 Frequencies --    70.6951                97.1787               112.4425
 Red. masses --     3.1512                 2.3191                 3.8793
 Frc consts  --     0.0093                 0.0129                 0.0289
 IR Inten    --     0.8505                 5.5040                 0.3494

                     7                      8                      9
                     A                      A                      A
 Frequencies --   138.3560               154.6811               182.4536
 Red. masses --     2.2664                 1.8277                 2.1018
 Frc consts  --     0.0256                 0.0258                 0.0412
 IR Inten    --     1.2690                 2.5184                 3.4011

                    10                     11                     12
                     A                      A                      A
 Frequencies --   225.6169               243.7874               266.6087
 Red. masses --     2.0952                 1.8873                 2.7683
 Frc consts  --     0.0628                 0.0661                 0.1159
 IR Inten    --     1.0280                 3.9941                 2.8864

                    13                     14                     15
                     A                      A                      A
 Frequencies --   325.7126               332.5920               373.7943
 Red. masses --     4.1060                 2.4604                 3.1539
 Frc consts  --     0.2566                 0.1604                 0.2596
 IR Inten    --     4.1355                 0.6475                 3.7064

                    16                     17                     18
                     A                      A                      A
 Frequencies --   423.5712               434.6562               481.4358
 Red. masses --     3.1393                 3.0020                 4.0680
 Frc consts  --     0.3318                 0.3342                 0.5555
 IR Inten    --     1.0493                 3.3046                 5.8876

                    19                     20                     21
                     A                      A                      A
 Frequencies --   500.7744               555.1209               598.1990
 Red. masses --     2.7946                 3.2946                 2.7596
 Frc consts  --     0.4129                 0.5982                 0.5818
 IR Inten    --     0.7778                 3.3939                 8.2856

                    22                     23                     24
                     A                      A                      A
 Frequencies --   653.8170               732.3681               761.6809
 Red. masses --     6.4795                 4.1902                 3.9831
 Frc consts  --     1.6319                 1.3242                 1.3615
 IR Inten    --     0.8749                 1.9786                 3.1209

                    25                     26                     27
                     A                      A                      A
 Frequencies --   819.7432               844.9480               851.3242
 Red. masses --     1.3309                 1.6602                 2.0423
 Frc consts  --     0.5269                 0.6984                 0.8721
 IR Inten    --    10.2490                18.0811                24.4773

                    28                     29                     30
                     A                      A                      A
 Frequencies --   866.0278               936.3655               963.0165
 Red. masses --     6.2563                 1.3009                 1.2998
 Frc consts  --     2.7646                 0.6720                 0.7102
 IR Inten    --     4.2836                 0.0783                 0.5418

                    31                     32                     33
                     A                      A                      A
 Frequencies --   976.5872               991.1037              1023.4354
 Red. masses --     4.1828                 2.1315                 2.9524
 Frc consts  --     2.3504                 1.2336                 1.8220
 IR Inten    --    30.2865                 7.7224                21.7152

                    34                     35                     36
                     A                      A                      A
 Frequencies --  1035.5231              1039.1013              1090.6955
 Red. masses --     5.1495                 3.0596                 1.9647
 Frc consts  --     3.2534                 1.9464                 1.3770
 IR Inten    --   153.5103               134.8864                 3.3304

                    37                     38                     39
                     A                      A                      A
 Frequencies --  1140.1413              1147.4874              1168.3481
 Red. masses --     1.5573                 1.3272                 4.9552
 Frc consts  --     1.1927                 1.0296                 3.9852
 IR Inten    --    46.9724                11.5666               158.3043

                    40                     41                     42
                     A                      A                      A
 Frequencies --  1183.6855              1191.5439              1210.5353
 Red. masses --     1.3347                 1.2537                 1.4121
 Frc consts  --     1.1018                 1.0487                 1.2192
 IR Inten    --    28.0471                 1.2939                50.5670

                    43                     44                     45
                     A                      A                      A
 Frequencies --  1212.1561              1215.5580              1234.1481
 Red. masses --     2.2531                 1.1594                 2.5031
 Frc consts  --     1.9505                 1.0093                 2.2463
 IR Inten    --   174.7745                34.0158                 2.3039

                    46                     47                     48
                     A                      A                      A
 Frequencies --  1240.6842              1258.9948              1288.2730
 Red. masses --     1.8795                 1.4325                 2.2040
 Frc consts  --     1.7046                 1.3378                 2.1551
 IR Inten    --   199.7734                14.8274                75.0439

                    49                     50                     51
                     A                      A                      A
 Frequencies --  1297.1436              1324.3716              1349.2890
 Red. masses --     1.7920                 1.1681                 1.8983
 Frc consts  --     1.7765                 1.2071                 2.0363
 IR Inten    --   113.9754                 3.9171                32.0972

                    52                     53                     54
                     A                      A                      A
 Frequencies --  1369.1255              1389.8869              1431.3088
 Red. masses --     2.0126                 1.6081                 1.3145
 Frc consts  --     2.2228                 1.8303                 1.5866
 IR Inten    --     4.7731                10.5832                45.8820

                    55                     56                     57
                     A                      A                      A
 Frequencies --  1454.7328              1471.0767              1502.3689
 Red. masses --     1.1926                 2.7588                 1.1689
 Frc consts  --     1.4869                 3.5175                 1.5545
 IR Inten    --    69.6087                 0.1960                26.1221

                    58                     59                     60
                     A                      A                      A
 Frequencies --  1503.1956              1504.0025              1514.6907
 Red. masses --     1.1541                 1.1102                 1.0576
 Frc consts  --     1.5365                 1.4797                 1.4296
 IR Inten    --     4.9840                 3.7120                 5.1253

                    61                     62                     63
                     A                      A                      A
 Frequencies --  1515.2835              1531.6592              1538.2123
 Red. masses --     1.0480                 1.0620                 1.0516
 Frc consts  --     1.4177                 1.4679                 1.4660
 IR Inten    --     4.8999                10.1601                 6.5202

                    64                     65                     66
                     A                      A                      A
 Frequencies --  1551.4798              1554.3869              1568.1287
 Red. masses --     1.2005                 1.0989                 2.1457
 Frc consts  --     1.7026                 1.5643                 3.1087
 IR Inten    --    23.8128                 1.0860                79.4506

                    67                     68                     69
                     A                      A                      A
 Frequencies --  1631.9167              1676.3003              2963.0732
 Red. masses --     6.3181                 5.7792                 1.0667
 Frc consts  --     9.9136                 9.5679                 5.5178
 IR Inten    --    14.0148                45.6593                48.8552

                    70                     71                     72
                     A                      A                      A
 Frequencies --  2967.4075              2989.6917              3001.0092
 Red. masses --     1.0544                 1.0411                 1.1021
 Frc consts  --     5.4702                 5.4825                 5.8480
 IR Inten    --    48.6500               106.7864                57.7865

                    73                     74                     75
                     A                      A                      A
 Frequencies --  3016.5197              3031.8181              3048.3790
 Red. masses --     1.0451                 1.1046                 1.0617
 Frc consts  --     5.6032                 5.9825                 5.8129
 IR Inten    --    54.7436                66.2091                48.0606

                    76                     77                     78
                     A                      A                      A
 Frequencies --  3077.1790              3087.7821              3099.2235
 Red. masses --     1.0968                 1.1032                 1.0917
 Frc consts  --     6.1190                 6.1974                 6.1784
 IR Inten    --    46.7247                21.1989                34.9609

                    79                     80                     81
                     A                      A                      A
 Frequencies --  3135.1547              3155.3354              3173.4479
 Red. masses --     1.0965                 1.1029                 1.0889
 Frc consts  --     6.3501                 6.4693                 6.4612
 IR Inten    --    30.4306                34.6128                20.5256

                    82                     83                     84
                     A                      A                      A
 Frequencies --  3204.4469              3218.6609              3220.6746
 Red. masses --     1.0877                 1.0918                 1.0942
 Frc consts  --     6.5808                 6.6643                 6.6871
 IR Inten    --     6.7320                20.9181                 3.2605

 - Thermochemistry -
 -------------------
 Temperature   298.150 Kelvin.  Pressure   1.00000 Atm.
 Atom     1 has atomic number  6 and mass  12.00000

 Molecular mass:   196.10994 amu.
 Principal axes and moments of inertia in atomic units:
                           1         2         3
     Eigenvalues --  1061.292757329.586157861.31333
           X            1.00000  -0.00197   0.00033
           Y            0.00197   1.00000   0.00229
           Z           -0.00033  -0.00229   1.00000
 This molecule is an asymmetric top.
 Rotational symmetry number  1.
 Warning -- assumption of classical behavior for rotation
           may cause significant error
 Rotational temperatures (Kelvin)      0.08161     0.01182     0.01102
 Rotational constants (GHZ):           1.70051     0.24623     0.22957
 Zero-point vibrational energy     674592.5 (Joules/Mol)
                                  161.23148 (Kcal/Mol)
 Warning -- explicit consideration of  21 degrees of freedom as
           vibrations may cause significant error
 Vibrational temperatures:     33.28    52.19    86.79   101.71   139.82
          (Kelvin)            161.78   199.06   222.55   262.51   324.61
                              350.76   383.59   468.63   478.53   537.81
                              609.42   625.37   692.68   720.50   798.69
                              860.67   940.70  1053.71  1095.89  1179.43
                             1215.69  1224.86  1246.02  1347.22  1385.56
                             1405.09  1425.98  1472.49  1489.88  1495.03
                             1569.27  1640.41  1650.98  1680.99  1703.06
                             1714.36  1741.69  1744.02  1748.91  1775.66
                             1785.07  1811.41  1853.54  1866.30  1905.47
                             1941.32  1969.86  1999.73  2059.33  2093.03
                             2116.55  2161.57  2162.76  2163.92  2179.30
                             2180.15  2203.71  2213.14  2232.23  2236.41
                             2256.18  2347.96  2411.82  4263.20  4269.43
                             4301.49  4317.78  4340.09  4362.10  4385.93
                             4427.37  4442.62  4459.09  4510.78  4539.82
                             4565.88  4610.48  4630.93  4633.83

 Zero-point correction=                           0.256939 (Hartree/Particle)
 Thermal correction to Energy=                    0.271623
 Thermal correction to Enthalpy=                  0.272568
 Thermal correction to Gibbs Free Energy=         0.213124
 Sum of electronic and zero-point Energies=           -654.181201
 Sum of electronic and thermal Energies=              -654.166516
 Sum of electronic and thermal Enthalpies=            -654.165572
 Sum of electronic and thermal Free Energies=         -654.225016

                     E (Thermal)             CV                S
                      KCal/Mol        Cal/Mol-Kelvin    Cal/Mol-Kelvin
 Total                  170.446             52.816            125.110
 Electronic               0.000              0.000              0.000
 Translational            0.889              2.981             41.726
 Rotational               0.889              2.981             32.481
 Vibrational            168.669             46.854             50.904
 Vibration     1          0.593              1.985              6.345
 Vibration     2          0.594              1.982              5.453
 Vibration     3          0.597              1.973              4.447
 Vibration     4          0.598              1.968              4.134
 Vibration     5          0.603              1.951              3.510
 Vibration     6          0.607              1.939              3.226
 Vibration     7          0.614              1.915              2.826
 Vibration     8          0.620              1.897              2.614
 Vibration     9          0.630              1.864              2.303
 Vibration    10          0.650              1.802              1.914
 Vibration    11          0.659              1.773              1.775
 Vibration    12          0.672              1.734              1.618
 Vibration    13          0.710              1.624              1.281
 Vibration    14          0.715              1.610              1.247
 Vibration    15          0.745              1.526              1.064
 Vibration    16          0.786              1.419              0.880
 Vibration    17          0.795              1.395              0.844
 Vibration    18          0.838              1.291              0.706
 Vibration    19          0.856              1.248              0.656
 Vibration    20          0.911              1.128              0.534
 Vibration    21          0.956              1.036              0.453

 Normal termination of Gaussian 09 at Thu Sep 30 19:34:20 2021.
 Gaussian 09:  AM64L-G09RevA.02 11-Jun-2009

 ----------------------------------------------------------------------
 #p TD(NStates=10, Root=1) b3lyp/6-31G* volume pop=NPA density=current
 Geom=AllCheck Guess=Read
 ----------------------------------------------------------------------

 COCCc1ccc(cc1)OCOC_conf_0
 -------------------------
 Redundant internal coordinates taken from checkpoint file:
 C11H16O3_559a_conf_0.chk
 Charge =  0 Multiplicity = 1

                         Standard orientation:
 ---------------------------------------------------------------------
 Center     Atomic      Atomic             Coordinates (Angstroms)
 Number     Number       Type             X           Y           Z
 ---------------------------------------------------------------------
      1          6           0        4.591419    1.901041   -0.584306
      2          8           0        3.876949    0.912355    0.124217
      3          6           0        3.788814   -0.313304   -0.578917
      4          6           0        2.928967   -1.291517    0.226621
      5          6           0        1.460449   -0.927823    0.291477
      6          6           0        0.508914   -1.644565   -0.436831
      7          6           0       -0.851228   -1.318430   -0.401930
      8          6           0       -1.279359   -0.242326    0.382329
      9          6           0       -0.338072    0.487538    1.122955
     10          6           0        1.007002    0.146821    1.076424
     11          8           0       -2.580721    0.162821    0.503679
     12          6           0       -3.567108   -0.460959   -0.313215
     13          8           0       -4.786920    0.147014   -0.091126
     14          6           0       -4.858022    1.490578   -0.555890
     15          1           0        4.604860    2.799705    0.038140
     16          1           0        4.111573    2.139991   -1.547141
     17          1           0        5.630003    1.589843   -0.784303
     18          1           0        4.797996   -0.736638   -0.726749
     19          1           0        3.347914   -0.152146   -1.577459
     20          1           0        3.355571   -1.353622    1.236144
     21          1           0        3.041469   -2.284797   -0.225605
     22          1           0        0.826130   -2.487449   -1.047770
     23          1           0       -1.553833   -1.912249   -0.976207
     24          1           0       -0.687595    1.317177    1.730040
     25          1           0        1.725535    0.726622    1.647027
     26          1           0       -3.684240   -1.514504   -0.032023
     27          1           0       -3.257681   -0.383632   -1.371067
     28          1           0       -5.892831    1.811317   -0.418322
     29          1           0       -4.598679    1.552682   -1.623914
     30          1           0       -4.191310    2.147867    0.012756
 ---------------------------------------------------------------------

 SCF Done:  E(RB3LYP) =  -654.438139515     A.U. after    2 cycles

 Excitation energies and oscillator strengths:

 Excited State   1:      Singlet-A      5.1110 eV  242.58 nm  f=0.0238  <S**2>=0.000
      52 -> 55        -0.30774
      53 -> 54         0.62788
 This state for optimization and/or second-order correction.
 Total Energy, E(TD-HF/TD-KS) =  -654.250312230
 Copying the excited state density for this state as the 1-particle RhoCI density.

 Excited State   2:      Singlet-A      5.8267 eV  212.79 nm  f=0.2126  <S**2>=0.000
      52 -> 54         0.29835
      53 -> 55         0.63164

 Excited State   3:      Singlet-A      6.3708 eV  194.61 nm  f=0.0524  <S**2>=0.000
      51 -> 54         0.65649
      52 -> 54        -0.24445

 Excited State   4:      Singlet-A      6.6216 eV  187.24 nm  f=0.0212  <S**2>=0.000
      51 -> 55         0.61443
      52 -> 55        -0.32950

 Excited State   5:      Singlet-A      6.8779 eV  180.26 nm  f=0.4228  <S**2>=0.000
      49 -> 54        -0.16412
      50 -> 54         0.18582
      51 -> 54        -0.15740
      51 -> 55         0.23620
      52 -> 54        -0.35837
      52 -> 55         0.35986
      53 -> 54         0.21232
      53 -> 55         0.19697

 Excited State   6:      Singlet-A      6.9309 eV  178.89 nm  f=0.5122  <S**2>=0.000
      49 -> 54        -0.15389
      51 -> 54         0.19117
      51 -> 55         0.22815
      52 -> 54         0.43248
      52 -> 55         0.33469
      53 -> 54         0.16791
      53 -> 55        -0.18550

 Excited State   7:      Singlet-A      7.0329 eV  176.29 nm  f=0.0332  <S**2>=0.000
      50 -> 54         0.67062
      52 -> 54         0.11857

 Excited State   8:      Singlet-A      7.2813 eV  170.28 nm  f=0.0193  <S**2>=0.000
      50 -> 55         0.45512
      53 -> 56        -0.44020
      53 -> 58        -0.27484

 Excited State   9:      Singlet-A      7.2880 eV  170.12 nm  f=0.0029  <S**2>=0.000
      50 -> 55         0.52217
      53 -> 56         0.39849
      53 -> 58         0.23239

 Excited State  10:      Singlet-A      7.6177 eV  162.76 nm  f=0.0083  <S**2>=0.000
      53 -> 57         0.69420

 The electronic state is 1-A.
 Alpha  occ. eigenvalues --  -19.17159 -19.16111 -19.14674 -10.28725 -10.24233
 Alpha  occ. eigenvalues --  -10.23021 -10.22955 -10.22616 -10.18583 -10.18453
 Alpha  occ. eigenvalues --  -10.18340 -10.18298 -10.17912 -10.17758  -1.08205
 Alpha  occ. eigenvalues --   -1.03038  -1.02600  -0.84608  -0.78126  -0.74474
 Alpha  occ. eigenvalues --   -0.73401  -0.71287  -0.67248  -0.64589  -0.61232
 Alpha  occ. eigenvalues --   -0.59758  -0.57094  -0.53781  -0.50703  -0.50127
 Alpha  occ. eigenvalues --   -0.48678  -0.48578  -0.46281  -0.45436  -0.44684
 Alpha  occ. eigenvalues --   -0.43618  -0.42501  -0.41610  -0.41361  -0.40388
 Alpha  occ. eigenvalues --   -0.38118  -0.37696  -0.36352  -0.35538  -0.34036
 Alpha  occ. eigenvalues --   -0.33164  -0.32585  -0.31452  -0.30293  -0.27643
 Alpha  occ. eigenvalues --   -0.25474  -0.24248  -0.21027
 Alpha virt. eigenvalues --    0.00544   0.01708   0.09104   0.09852   0.10059
 Alpha virt. eigenvalues --    0.12155   0.12972   0.13211   0.14019   0.14588
 Alpha virt. eigenvalues --    0.15284   0.15573   0.15930   0.16412   0.17407

 Mulliken atomic charges:
              1
     1  C   -0.191321
     2  O   -0.451063
     3  C   -0.003126
     4  C   -0.368287
     5  C    0.189102
     6  C   -0.226605
     7  C   -0.198079
     8  C    0.351946
     9  C   -0.191935
    10  C   -0.199326
    11  O   -0.467843
    12  C    0.182649
    13  O   -0.447994
    14  C   -0.215865
    15  H    0.158349
    16  H    0.131673
    17  H    0.127182
    18  H    0.117747
    19  H    0.125728
    20  H    0.162885
    21  H    0.142966
    22  H    0.111847
    23  H    0.122323
    24  H    0.123911
    25  H    0.133327
    26  H    0.168101
    27  H    0.138800
    28  H    0.168240
    29  H    0.137227
    30  H    0.167440
 Sum of Mulliken atomic charges =  -0.00000

 Dipole moment (field-independent basis, Debye):
    X=              0.0511    Y=              0.3718    Z=             -2.4909  Tot=              2.5190
 Quadrupole moment (field-independent basis, Debye-Ang):
   XX=            -73.8284   YY=            -78.2557   ZZ=            -84.2257
   XY=             -2.8455   XZ=              1.6634   YZ=              0.5136

 Summary of Natural Population Analysis:

                                       Natural Population
                Natural  -----------------------------------------------
    Atom  No    Charge         Core      Valence    Rydberg      Total
 -----------------------------------------------------------------------
      C    1   -0.30763      1.99947     4.29371    0.01446     6.30763
      O    2   -0.57651      1.99979     6.56382    0.01289     8.57651
      C    3   -0.08900      1.99927     4.07255    0.01718     6.08900
      C    4   -0.49638      1.99926     4.48307    0.01405     6.49638
      C    5    0.03323      1.99904     3.94929    0.01844     5.96677
      C    6   -0.27826      1.99907     4.26003    0.01916     6.27826
      C    7   -0.33639      1.99905     4.31986    0.01748     6.33639
      C    8    0.32559      1.99879     3.65246    0.02315     5.67441
      C    9   -0.31043      1.99907     4.29101    0.02036     6.31043
      C   10   -0.27816      1.99907     4.26049    0.01860     6.27816
      O   11   -0.46195      1.99973     6.45026    0.01196     8.46195
      C   12    0.20805      1.99939     3.76528    0.02728     5.79195
      O   13   -0.56048      1.99980     6.54816    0.01253     8.56048
      C   14   -0.32119      1.99944     4.30746    0.01429     6.32119
      H   15    0.22008      0.00000     0.77926    0.00066     0.77992
      H   16    0.18920      0.00000     0.80870    0.00210     0.81080
      H   17    0.18660      0.00000     0.81128    0.00212     0.81340
      H   18    0.19787      0.00000     0.79937    0.00276     0.80213
      H   19    0.19932      0.00000     0.79781    0.00287     0.80068
      H   20    0.25466      0.00000     0.74227    0.00308     0.74534
      H   21    0.24396      0.00000     0.75463    0.00141     0.75604
      H   22    0.22331      0.00000     0.77559    0.00110     0.77669
      H   23    0.22492      0.00000     0.77407    0.00100     0.77508
      H   24    0.23521      0.00000     0.76353    0.00126     0.76479
      H   25    0.24032      0.00000     0.75842    0.00126     0.75968
      H   26    0.21889      0.00000     0.77911    0.00200     0.78111
      H   27    0.18599      0.00000     0.81061    0.00340     0.81401
      H   28    0.22478      0.00000     0.77463    0.00059     0.77522
      H   29    0.19277      0.00000     0.80547    0.00176     0.80723
      H   30    0.21162      0.00000     0.78658    0.00180     0.78838
 =======================================================================
   * Total *    0.00000     27.99022    77.73876    0.27102   106.00000

 Normal termination of Gaussian 09 at Thu Sep 30 23:44:26 2021.
