 Gaussian 09, Revision A.02,

 -----------------------------------
 #p opt b3lyp/6-31G* scf=(xqc,tight)
 -----------------------------------

 ----------------------------
 COc1ccc2c(c1)ccc(c2)O_conf_0
 ----------------------------
 Symbolic Z-matrix:
 Charge =  0 Multiplicity = 1

 SCF Done:  E(RB3LYP) =  -575.626601475     A.U. after   14 cycles
 SCF Done:  E(RB3LYP) =  -575.630584686     A.U. after   12 cycles
 SCF Done:  E(RB3LYP) =  -575.630949419     A.U. after   12 cycles
 SCF Done:  E(RB3LYP) =  -575.631047248     A.U. after   11 cycles
 SCF Done:  E(RB3LYP) =  -575.631089823     A.U. after   11 cycles
 SCF Done:  E(RB3LYP) =  -575.631102387     A.U. after   10 cycles
 SCF Done:  E(RB3LYP) =  -575.631104101     A.U. after   16 cycles
 Optimization completed.
    -- Stationary point found.
 Normal termination of Gaussian 09 at Thu Sep 30 21:30:13 2021.

 ----------------------------------------------------------------------
 #p freq b3lyp/6-31G* volume NMR pop=NPA density=current Geom=AllCheck
 Guess=Read
 ----------------------------------------------------------------------

 COc1ccc2c(c1)ccc(c2)O_conf_0
 ----------------------------
 Redundant internal coordinates taken from checkpoint file:
 C11H10O2_ff28_conf_0.chk
 Charge =  0 Multiplicity = 1

 SCF Done:  E(RB3LYP) =  -575.631104101     A.U. after    1 cycles

  1  C    Isotropic =   137.4677   Anisotropy =    65.2986

  2  O    Isotropic =   238.3592   Anisotropy =    76.3778

  3  C    Isotropic =    41.9936   Anisotropy =   120.1394

  4  C    Isotropic =    75.4507   Anisotropy =   136.1653

  5  C    Isotropic =    67.3987   Anisotropy =   140.9758

  6  C    Isotropic =    66.1802   Anisotropy =   188.8932

  7  C    Isotropic =    67.2812   Anisotropy =   188.0555

  8  C    Isotropic =    90.0379   Anisotropy =   118.7879

  9  C    Isotropic =    68.1328   Anisotropy =   139.1509

 10  C    Isotropic =    80.2963   Anisotropy =   119.3149

 11  C    Isotropic =    45.5822   Anisotropy =   125.0946

 12  C    Isotropic =    84.9879   Anisotropy =   113.9012

 13  O    Isotropic =   218.4066   Anisotropy =    53.0643

 14  H    Isotropic =    28.2427   Anisotropy =     8.1926

 15  H    Isotropic =    28.5626   Anisotropy =     7.9691

 16  H    Isotropic =    28.5630   Anisotropy =     7.9678

 17  H    Isotropic =    25.2538   Anisotropy =     6.1932

 18  H    Isotropic =    24.7802   Anisotropy =     6.8326

 19  H    Isotropic =    25.7481   Anisotropy =     9.1955

 20  H    Isotropic =    24.8784   Anisotropy =     7.3507

 21  H    Isotropic =    25.7760   Anisotropy =     5.4836

 22  H    Isotropic =    25.3248   Anisotropy =     7.0497

 23  H    Isotropic =    28.7989   Anisotropy =    12.9782

  Exact polarizability: 198.311   8.629 127.988  -0.000   0.001  46.385
 Approx polarizability: 317.500  23.455 228.182  -0.002   0.001  70.917

                     1                      2                      3
                     A                      A                      A
 Frequencies --    67.9198               117.1686               182.9457
 Red. masses --     4.0550                 4.5255                 3.7993
 Frc consts  --     0.0110                 0.0366                 0.0749
 IR Inten    --     1.1187                 1.1438                 0.6755

                     4                      5                      6
                     A                      A                      A
 Frequencies --   186.2236               216.3784               269.1021
 Red. masses --     3.2704                 2.3926                 1.5165
 Frc consts  --     0.0668                 0.0660                 0.0647
 IR Inten    --     3.8205                 2.1880                 0.1073

                     7                      8                      9
                     A                      A                      A
 Frequencies --   290.2536               308.5986               397.0163
 Red. masses --     4.8299                 1.1092                 5.4793
 Frc consts  --     0.2397                 0.0622                 0.5089
 IR Inten    --     6.9465               117.6683                 0.0136

                    10                     11                     12
                     A                      A                      A
 Frequencies --   407.7328               412.1599               430.5263
 Red. masses --     6.5301                 3.4354                 4.2666
 Frc consts  --     0.6396                 0.3438                 0.4659
 IR Inten    --     2.6593                 0.1465                 2.3151

                    13                     14                     15
                     A                      A                      A
 Frequencies --   486.2003               517.2412               536.5951
 Red. masses --     2.6430                 3.8188                 6.4446
 Frc consts  --     0.3681                 0.6019                 1.0933
 IR Inten    --     5.0886                 0.5538                 1.1793

                    16                     17                     18
                     A                      A                      A
 Frequencies --   580.1680               598.8780               665.9148
 Red. masses --     2.7531                 6.4209                 3.8917
 Frc consts  --     0.5460                 1.3568                 1.0168
 IR Inten    --     0.6298                28.7104                 1.5791

                    19                     20                     21
                     A                      A                      A
 Frequencies --   690.8708               752.4192               770.5876
 Red. masses --     6.4804                 3.2108                 6.1915
 Frc consts  --     1.8224                 1.0710                 2.1662
 IR Inten    --     2.1022                 0.8103                 0.0668

                    22                     23                     24
                     A                      A                      A
 Frequencies --   800.1638               827.9305               860.4627
 Red. masses --     1.4123                 1.5214                 1.5595
 Frc consts  --     0.5328                 0.6145                 0.6803
 IR Inten    --    16.3740                 9.6915                27.9527

                    25                     26                     27
                     A                      A                      A
 Frequencies --   863.3360               882.8249               934.5075
 Red. masses --     4.3287                 1.5136                 1.2911
 Frc consts  --     1.9010                 0.6950                 0.6643
 IR Inten    --     4.0143                36.2633                 2.3561

                    28                     29                     30
                     A                      A                      A
 Frequencies --   963.4270               965.3510               988.1057
 Red. masses --     4.6311                 1.2749                 3.2586
 Frc consts  --     2.5326                 0.7000                 1.8745
 IR Inten    --    40.7993                 0.2096                 4.4841

                    31                     32                     33
                     A                      A                      A
 Frequencies --  1077.2083              1152.3855              1180.2626
 Red. masses --     4.5109                 1.5458                 1.2857
 Frc consts  --     3.0840                 1.2095                 1.0552
 IR Inten    --    42.5342                65.1811                 2.5384

                    34                     35                     36
                     A                      A                      A
 Frequencies --  1186.0382              1189.3982              1216.1895
 Red. masses --     1.2733                 1.4190                 1.3946
 Frc consts  --     1.0553                 1.1827                 1.2154
 IR Inten    --     0.8155                83.8802                 6.3639

                    37                     38                     39
                     A                      A                      A
 Frequencies --  1235.8227              1238.7395              1292.4336
 Red. masses --     1.3535                 1.7346                 6.2338
 Frc consts  --     1.2179                 1.5682                 6.1351
 IR Inten    --    42.5463                51.0473               386.0442

                    40                     41                     42
                     A                      A                      A
 Frequencies --  1295.6434              1317.2084              1395.7571
 Red. masses --     1.9542                 2.2210                 1.8553
 Frc consts  --     1.9328                 2.2705                 2.1296
 IR Inten    --    21.0844                47.1111                 5.8252

                    43                     44                     45
                     A                      A                      A
 Frequencies --  1422.3592              1437.6249              1485.3925
 Red. masses --     5.9184                 4.0172                 2.9207
 Frc consts  --     7.0546                 4.8917                 3.7968
 IR Inten    --     1.2634               133.1853                 1.3368

                    46                     47                     48
                     A                      A                      A
 Frequencies --  1496.0017              1518.3698              1535.4133
 Red. masses --     1.2553                 1.0482                 1.0973
 Frc consts  --     1.6553                 1.4238                 1.5241
 IR Inten    --     3.5022                 5.4669                48.4091

                    49                     50                     51
                     A                      A                      A
 Frequencies --  1542.6537              1566.2398              1633.1223
 Red. masses --     2.4276                 3.6850                 6.9625
 Frc consts  --     3.4038                 5.3261                10.9409
 IR Inten    --     0.4468                97.2362                43.6692

                    52                     53                     54
                     A                      A                      A
 Frequencies --  1676.2877              1696.7821              3022.5776
 Red. masses --     5.5438                 6.1344                 1.0348
 Frc consts  --     9.1782                10.4057                 5.5701
 IR Inten    --   155.6803                 3.5805                52.4880

                    55                     56                     57
                     A                      A                      A
 Frequencies --  3079.7695              3156.3011              3163.1505
 Red. masses --     1.1064                 1.0995                 1.0874
 Frc consts  --     6.1832                 6.4539                 6.4106
 IR Inten    --    45.5884                30.8124                17.8722

                    58                     59                     60
                     A                      A                      A
 Frequencies --  3186.8346              3189.0324              3205.6217
 Red. masses --     1.0884                 1.0937                 1.0907
 Frc consts  --     6.5129                 6.5534                 6.6037
 IR Inten    --     9.6091                19.4786                 9.8285

                    61                     62                     63
                     A                      A                      A
 Frequencies --  3214.6158              3215.7665              3756.7501
 Red. masses --     1.0894                 1.0939                 1.0661
 Frc consts  --     6.6329                 6.6648                 8.8645
 IR Inten    --    13.0747                10.9519                54.7958

 - Thermochemistry -
 -------------------
 Temperature   298.150 Kelvin.  Pressure   1.00000 Atm.
 Atom     1 has atomic number  6 and mass  12.00000

 Molecular mass:   174.06808 amu.
 Principal axes and moments of inertia in atomic units:
                           1         2         3
     Eigenvalues --   775.298864079.783204843.56733
           X            0.99997  -0.00836   0.00000
           Y            0.00836   0.99997   0.00000
           Z           -0.00000  -0.00000   1.00000
 This molecule is an asymmetric top.
 Rotational symmetry number  1.
 Warning -- assumption of classical behavior for rotation
           may cause significant error
 Rotational temperatures (Kelvin)      0.11172     0.02123     0.01788
 Rotational constants (GHZ):           2.32780     0.44236     0.37261
 Zero-point vibrational energy     484181.1 (Joules/Mol)
                                  115.72207 (Kcal/Mol)
 Warning -- explicit consideration of  17 degrees of freedom as
           vibrations may cause significant error
 Vibrational temperatures:     97.72   168.58   263.22   267.93   311.32
          (Kelvin)            387.18   417.61   444.00   571.22   586.64
                              593.01   619.43   699.53   744.19   772.04
                              834.73   861.65   958.10   994.01  1082.56
                             1108.70  1151.26  1191.21  1238.01  1242.15
                             1270.19  1344.55  1386.15  1388.92  1421.66
                             1549.86  1658.02  1698.13  1706.44  1711.28
                             1749.82  1778.07  1782.27  1859.52  1864.14
                             1895.17  2008.18  2046.46  2068.42  2137.15
                             2152.41  2184.59  2209.11  2219.53  2253.47
                             2349.70  2411.80  2441.29  4348.81  4431.10
                             4541.21  4551.06  4585.14  4588.30  4612.17
                             4625.11  4626.76  5405.12

 Zero-point correction=                           0.184415 (Hartree/Particle)
 Thermal correction to Energy=                    0.195085
 Thermal correction to Enthalpy=                  0.196029
 Thermal correction to Gibbs Free Energy=         0.148345
 Sum of electronic and zero-point Energies=           -575.446689
 Sum of electronic and thermal Energies=              -575.436020
 Sum of electronic and thermal Enthalpies=            -575.435075
 Sum of electronic and thermal Free Energies=         -575.482760

                     E (Thermal)             CV                S
                      KCal/Mol        Cal/Mol-Kelvin    Cal/Mol-Kelvin
 Total                  122.417             42.796            100.360
 Electronic               0.000              0.000              0.000
 Translational            0.889              2.981             41.370
 Rotational               0.889              2.981             31.105
 Vibrational            120.640             36.834             27.884
 Vibration     1          0.598              1.970              4.213
 Vibration     2          0.608              1.935              3.147
 Vibration     3          0.630              1.863              2.298
 Vibration     4          0.632              1.859              2.265
 Vibration     5          0.645              1.816              1.989
 Vibration     6          0.673              1.730              1.602
 Vibration     7          0.686              1.692              1.472
 Vibration     8          0.698              1.657              1.370
 Vibration     9          0.764              1.477              0.974
 Vibration    10          0.772              1.453              0.935
 Vibration    11          0.776              1.444              0.919
 Vibration    12          0.792              1.404              0.857
 Vibration    13          0.842              1.281              0.694
 Vibration    14          0.872              1.212              0.616
 Vibration    15          0.892              1.169              0.573
 Vibration    16          0.937              1.074              0.485
 Vibration    17          0.957              1.034              0.452

 Optimization completed.
    -- Stationary point found.
 Normal termination of Gaussian 09 at Thu Sep 30 22:21:51 2021.
 Gaussian 09:  AM64L-G09RevA.02 11-Jun-2009

 ----------------------------------------------------------------------
 #p TD(NStates=10, Root=1) b3lyp/6-31G* volume pop=NPA density=current
 Geom=AllCheck Guess=Read
 ----------------------------------------------------------------------

 COc1ccc2c(c1)ccc(c2)O_conf_0
 ----------------------------
 Redundant internal coordinates taken from checkpoint file:
 C11H10O2_ff28_conf_0.chk
 Charge =  0 Multiplicity = 1

                         Standard orientation:
 ---------------------------------------------------------------------
 Center     Atomic      Atomic             Coordinates (Angstroms)
 Number     Number       Type             X           Y           Z
 ---------------------------------------------------------------------
      1          6           0        4.081068   -1.068197    0.000071
      2          8           0        3.497761    0.223395   -0.000088
      3          6           0        2.133808    0.308351   -0.000127
      4          6           0        1.625369    1.637458    0.000031
      5          6           0        0.274083    1.866637    0.000060
      6          6           0       -0.657660    0.788480    0.000024
      7          6           0       -0.141205   -0.546925    0.000035
      8          6           0        1.266048   -0.763706   -0.000058
      9          6           0       -1.067277   -1.621309    0.000053
     10          6           0       -2.425710   -1.392814    0.000019
     11          6           0       -2.928344   -0.068456   -0.000018
     12          6           0       -2.057006    1.001835   -0.000004
     13          8           0       -4.274692    0.189012   -0.000018
     14          1           0        5.161417   -0.911463    0.000299
     15          1           0        3.796577   -1.638934   -0.894344
     16          1           0        3.796195   -1.638927    0.894348
     17          1           0        2.339859    2.454911    0.000111
     18          1           0       -0.103718    2.886106    0.000118
     19          1           0        1.629953   -1.785556   -0.000069
     20          1           0       -0.691855   -2.641898    0.000077
     21          1           0       -3.121240   -2.230848    0.000003
     22          1           0       -2.455694    2.012112   -0.000021
     23          1           0       -4.755088   -0.652883   -0.000168
 ---------------------------------------------------------------------

 SCF Done:  E(RB3LYP) =  -575.631104101     A.U. after    1 cycles

 Excitation energies and oscillator strengths:

 Excited State   1:      Singlet-A      3.9137 eV  316.79 nm  f=0.0572  <S**2>=0.000
      45 -> 48        -0.16997
      46 -> 47         0.67226
      46 -> 48         0.11094
 This state for optimization and/or second-order correction.
 Total Energy, E(TD-HF/TD-KS) =  -575.487277569
 Copying the excited state density for this state as the 1-particle RhoCI density.

 Excited State   2:      Singlet-A      4.6403 eV  267.19 nm  f=0.0027  <S**2>=0.000
      45 -> 47         0.52824
      46 -> 47        -0.14008
      46 -> 48         0.43964

 Excited State   3:      Singlet-A      5.4682 eV  226.74 nm  f=0.0079  <S**2>=0.000
      44 -> 47         0.50109
      46 -> 49        -0.48346

 Excited State   4:      Singlet-A      5.7472 eV  215.73 nm  f=0.1976  <S**2>=0.000
      43 -> 48         0.12303
      44 -> 47         0.39671
      44 -> 48         0.15275
      45 -> 47        -0.18039
      45 -> 49         0.14195
      46 -> 48         0.19542
      46 -> 49         0.44423

 Excited State   5:      Singlet-A      5.7592 eV  215.28 nm  f=1.0239  <S**2>=0.000
      44 -> 47        -0.19925
      45 -> 47        -0.38491
      45 -> 48         0.16146
      46 -> 48         0.49558
      46 -> 49        -0.12697

 Excited State   6:      Singlet-A      6.1040 eV  203.12 nm  f=0.3070  <S**2>=0.000
      41 -> 47        -0.10122
      45 -> 47         0.16058
      45 -> 48         0.63908
      46 -> 47         0.14740

 Excited State   7:      Singlet-A      6.2367 eV  198.80 nm  f=0.0001  <S**2>=0.000
      44 -> 50         0.11345
      46 -> 50         0.69543

 Excited State   8:      Singlet-A      6.3339 eV  195.75 nm  f=0.0255  <S**2>=0.000
      43 -> 47         0.45355
      44 -> 47        -0.14104
      45 -> 49         0.50637

 Excited State   9:      Singlet-A      6.6394 eV  186.74 nm  f=0.0010  <S**2>=0.000
      43 -> 47        -0.37396
      44 -> 47        -0.13425
      44 -> 48         0.49481
      45 -> 49         0.23568
      46 -> 49        -0.18835

 Excited State  10:      Singlet-A      6.8441 eV  181.15 nm  f=0.0000  <S**2>=0.000
      40 -> 47        -0.14404
      42 -> 47         0.68586

 The electronic state is 1-A.
 Alpha  occ. eigenvalues --  -19.17573 -19.17502 -10.24477 -10.24272 -10.23942
 Alpha  occ. eigenvalues --  -10.19296 -10.19227 -10.19213 -10.19119 -10.18730
 Alpha  occ. eigenvalues --  -10.18500 -10.18226 -10.17858  -1.06130  -1.05459
 Alpha  occ. eigenvalues --   -0.86549  -0.81296  -0.76777  -0.74427  -0.71931
 Alpha  occ. eigenvalues --   -0.69324  -0.62706  -0.60361  -0.59607  -0.54723
 Alpha  occ. eigenvalues --   -0.52794  -0.50976  -0.47325  -0.46626  -0.45981
 Alpha  occ. eigenvalues --   -0.44832  -0.44281  -0.41955  -0.40505  -0.40487
 Alpha  occ. eigenvalues --   -0.39062  -0.37456  -0.36581  -0.36145  -0.33734
 Alpha  occ. eigenvalues --   -0.33455  -0.32190  -0.29091  -0.26063  -0.22568
 Alpha  occ. eigenvalues --   -0.19181
 Alpha virt. eigenvalues --   -0.03031   0.01011   0.03876   0.06895   0.09516
 Alpha virt. eigenvalues --    0.10492   0.11618   0.12011   0.12901   0.14901
 Alpha virt. eigenvalues --    0.15689   0.16844   0.17905   0.19017   0.19847

 Mulliken atomic charges:
              1
     1  C   -0.223028
     2  O   -0.473403
     3  C    0.381253
     4  C   -0.199515
     5  C   -0.213740
     6  C    0.145670
     7  C    0.144716
     8  C   -0.276858
     9  C   -0.218332
    10  C   -0.221389
    11  C    0.362284
    12  C   -0.250847
    13  O   -0.611458
    14  H    0.176094
    15  H    0.163958
    16  H    0.163964
    17  H    0.122885
    18  H    0.121834
    19  H    0.128404
    20  H    0.118008
    21  H    0.102890
    22  H    0.137129
    23  H    0.419482
 Sum of Mulliken atomic charges =  -0.00000

 Dipole moment (field-independent basis, Debye):
    X=              0.4142    Y=             -2.8129    Z=             -0.0001  Tot=              2.8432
 Quadrupole moment (field-independent basis, Debye-Ang):
   XX=            -57.1972   YY=            -68.9315   ZZ=            -78.9169
   XY=             -0.8636   XZ=              0.0022   YZ=              0.0004

 Summary of Natural Population Analysis:

                                       Natural Population
                Natural  -----------------------------------------------
    Atom  No    Charge         Core      Valence    Rydberg      Total
 -----------------------------------------------------------------------
      C    1   -0.32304      1.99943     4.30944    0.01417     6.32304
      O    2   -0.46839      1.99975     6.45689    0.01175     8.46839
      C    3    0.36825      1.99879     3.61038    0.02258     5.63175
      C    4   -0.34384      1.99905     4.32755    0.01724     6.34384
      C    5   -0.22675      1.99907     4.21235    0.01533     6.22675
      C    6   -0.05121      1.99903     4.03707    0.01511     6.05121
      C    7   -0.04698      1.99903     4.03240    0.01554     6.04698
      C    8   -0.30281      1.99898     4.29081    0.01302     6.30281
      C    9   -0.22364      1.99907     4.20860    0.01596     6.22364
      C   10   -0.38051      1.99903     4.36537    0.01611     6.38051
      C   11    0.37325      1.99876     3.60638    0.02160     5.62675
      C   12   -0.27999      1.99898     4.26539    0.01562     6.27999
      O   13   -0.63745      1.99978     6.62651    0.01115     8.63745
      H   14    0.23130      0.00000     0.76818    0.00052     0.76870
      H   15    0.21073      0.00000     0.78753    0.00173     0.78927
      H   16    0.21073      0.00000     0.78753    0.00173     0.78927
      H   17    0.24079      0.00000     0.75815    0.00106     0.75921
      H   18    0.23142      0.00000     0.76754    0.00104     0.76858
      H   19    0.23169      0.00000     0.76714    0.00118     0.76831
      H   20    0.22859      0.00000     0.77030    0.00111     0.77141
      H   21    0.22196      0.00000     0.77703    0.00101     0.77804
      H   22    0.24240      0.00000     0.75615    0.00145     0.75760
      H   23    0.49349      0.00000     0.50509    0.00143     0.50651
 =======================================================================
   * Total *    0.00000     25.98876    65.79379    0.21745    92.00000

 Normal termination of Gaussian 09 at Fri Oct  1 01:43:09 2021.
