 Gaussian 09, Revision A.02,

 -----------------------------------
 #p opt b3lyp/6-31G* scf=(xqc,tight)
 -----------------------------------

 ----------------------------------
 O=C(N(C)C)Oc1ccc(cc1)C(=O)C_conf_0
 ----------------------------------
 Symbolic Z-matrix:
 Charge =  0 Multiplicity = 1

 SCF Done:  E(RB3LYP) =  -707.434873813     A.U. after   15 cycles
 SCF Done:  E(RB3LYP) =  -707.439787612     A.U. after   13 cycles
 SCF Done:  E(RB3LYP) =  -707.440827749     A.U. after   14 cycles
 SCF Done:  E(RB3LYP) =  -707.441230096     A.U. after   13 cycles
 SCF Done:  E(RB3LYP) =  -707.441590442     A.U. after   12 cycles
 SCF Done:  E(RB3LYP) =  -707.441965566     A.U. after   12 cycles
 SCF Done:  E(RB3LYP) =  -707.442204634     A.U. after   12 cycles
 SCF Done:  E(RB3LYP) =  -707.442000501     A.U. after   12 cycles
 SCF Done:  E(RB3LYP) =  -707.442378249     A.U. after   11 cycles
 SCF Done:  E(RB3LYP) =  -707.442399289     A.U. after   11 cycles
 SCF Done:  E(RB3LYP) =  -707.442415127     A.U. after   10 cycles
 SCF Done:  E(RB3LYP) =  -707.442428135     A.U. after   10 cycles
 SCF Done:  E(RB3LYP) =  -707.442433024     A.U. after   10 cycles
 SCF Done:  E(RB3LYP) =  -707.442433741     A.U. after    9 cycles
 SCF Done:  E(RB3LYP) =  -707.442433909     A.U. after    7 cycles
 SCF Done:  E(RB3LYP) =  -707.442434088     A.U. after    7 cycles
 SCF Done:  E(RB3LYP) =  -707.442434236     A.U. after    7 cycles
 SCF Done:  E(RB3LYP) =  -707.442434285     A.U. after    7 cycles
 Optimization completed.
    -- Stationary point found.
 Normal termination of Gaussian 09 at Thu Sep 30 00:42:10 2021.

 ----------------------------------------------------------------------
 #p freq b3lyp/6-31G* volume NMR pop=NPA density=current Geom=AllCheck
 Guess=Read
 ----------------------------------------------------------------------

 O=C(N(C)C)Oc1ccc(cc1)C(=O)C_conf_0
 ----------------------------------
 Redundant internal coordinates taken from checkpoint file:
 C11H13NO3_d93e_conf_0.chk
 Charge =  0 Multiplicity = 1

 SCF Done:  E(RB3LYP) =  -707.442434285     A.U. after    1 cycles

  1  O    Isotropic =    67.2503   Anisotropy =   385.9793

  2  C    Isotropic =    47.4786   Anisotropy =    81.4734

  3  N    Isotropic =   178.9081   Anisotropy =    81.6229

  4  C    Isotropic =   155.5440   Anisotropy =    49.9548

  5  C    Isotropic =   155.2808   Anisotropy =    51.3608

  6  O    Isotropic =   140.8139   Anisotropy =   143.0827

  7  C    Isotropic =    41.0252   Anisotropy =   115.7891

  8  C    Isotropic =    74.3945   Anisotropy =   152.2832

  9  C    Isotropic =    66.0652   Anisotropy =   163.2102

 10  C    Isotropic =    64.6458   Anisotropy =   157.1200

 11  C    Isotropic =    65.4791   Anisotropy =   178.8406

 12  C    Isotropic =    76.2111   Anisotropy =   137.3911

 13  C    Isotropic =     4.3788   Anisotropy =   151.1289

 14  O    Isotropic =  -261.9980   Anisotropy =   926.7618

 15  C    Isotropic =   163.7442   Anisotropy =    39.1024

 16  H    Isotropic =    28.3328   Anisotropy =     5.5717

 17  H    Isotropic =    29.5988   Anisotropy =     9.1986

 18  H    Isotropic =    29.7950   Anisotropy =     8.8067

 19  H    Isotropic =    28.1670   Anisotropy =     6.9500

 20  H    Isotropic =    29.9206   Anisotropy =     9.0651

 21  H    Isotropic =    29.8543   Anisotropy =     9.3077

 22  H    Isotropic =    24.6767   Anisotropy =     9.5765

 23  H    Isotropic =    24.5824   Anisotropy =     8.0306

 24  H    Isotropic =    23.9875   Anisotropy =     6.4430

 25  H    Isotropic =    25.3811   Anisotropy =     6.9422

 26  H    Isotropic =    29.6582   Anisotropy =     4.2603

 27  H    Isotropic =    30.3174   Anisotropy =     6.4937

 28  H    Isotropic =    29.6923   Anisotropy =     4.2684

  Exact polarizability: 208.173   3.331 123.395   4.235  -8.320  71.416
 Approx polarizability: 270.172  -2.568 211.603  12.638 -17.325 110.164

                     1                      2                      3
                     A                      A                      A
 Frequencies --    28.9918                33.3803                53.0717
 Red. masses --     3.8828                 3.6899                 1.5335
 Frc consts  --     0.0019                 0.0024                 0.0025
 IR Inten    --     3.7237                 0.6289                 0.3115

                     4                      5                      6
                     A                      A                      A
 Frequencies --    66.1686                82.1146               112.4786
 Red. masses --     3.2725                 4.0360                 2.0720
 Frc consts  --     0.0084                 0.0160                 0.0154
 IR Inten    --     2.0764                 2.3748                 1.1427

                     7                      8                      9
                     A                      A                      A
 Frequencies --   131.8295               143.5830               162.7211
 Red. masses --     4.6646                 1.6240                 1.0437
 Frc consts  --     0.0478                 0.0197                 0.0163
 IR Inten    --     3.8337                 0.2916                 0.1491

                    10                     11                     12
                     A                      A                      A
 Frequencies --   200.2776               223.3052               229.6578
 Red. masses --     4.2232                 3.1421                 3.2915
 Frc consts  --     0.0998                 0.0923                 0.1023
 IR Inten    --     2.5943                 2.7018                 1.4585

                    13                     14                     15
                     A                      A                      A
 Frequencies --   291.5631               346.7448               387.4899
 Red. masses --     5.1009                 4.5679                 3.1456
 Frc consts  --     0.2555                 0.3236                 0.2783
 IR Inten    --     0.0427                 1.0789                13.3605

                    16                     17                     18
                     A                      A                      A
 Frequencies --   405.0919               423.7166               446.9486
 Red. masses --     6.0265                 3.0908                 3.2239
 Frc consts  --     0.5827                 0.3269                 0.3794
 IR Inten    --    11.9517                 0.6317                 5.3555

                    19                     20                     21
                     A                      A                      A
 Frequencies --   499.7819               507.4049               596.7703
 Red. masses --     4.1950                 3.6777                 4.6321
 Frc consts  --     0.6174                 0.5579                 0.9719
 IR Inten    --     1.3230                 4.1802                16.9240

                    22                     23                     24
                     A                      A                      A
 Frequencies --   599.9345               627.9557               653.3936
 Red. masses --     2.5309                 4.7741                 6.5589
 Frc consts  --     0.5367                 1.1092                 1.6498
 IR Inten    --    10.7952                14.3122                 5.1292

                    25                     26                     27
                     A                      A                      A
 Frequencies --   718.5012               736.1158               737.8850
 Red. masses --     5.0521                 8.7877                 4.9241
 Frc consts  --     1.5367                 2.8055                 1.5796
 IR Inten    --     2.7733                20.1306                 2.0740

                    28                     29                     30
                     A                      A                      A
 Frequencies --   825.9284               842.0665               863.6874
 Red. masses --     2.0399                 1.6869                 4.0525
 Frc consts  --     0.8199                 0.7048                 1.7811
 IR Inten    --    20.0894                 0.9143                16.6199

                    31                     32                     33
                     A                      A                      A
 Frequencies --   876.5867               960.5670               968.4365
 Red. masses --     2.4959                 1.3131                 2.2372
 Frc consts  --     1.1300                 0.7138                 1.2362
 IR Inten    --    44.1736                 0.3756                56.6525

                    34                     35                     36
                     A                      A                      A
 Frequencies --   988.6408              1032.7755              1040.9797
 Red. masses --     1.2952                 3.1434                 2.5895
 Frc consts  --     0.7459                 1.9754                 1.6533
 IR Inten    --     0.5595                 8.4682                11.5148

                    37                     38                     39
                     A                      A                      A
 Frequencies --  1056.2780              1094.3388              1099.8131
 Red. masses --     1.8538                 1.3686                 2.3318
 Frc consts  --     1.2186                 0.9657                 1.6618
 IR Inten    --     1.5803                 8.4723                 3.0799

                    40                     41                     42
                     A                      A                      A
 Frequencies --  1141.3899              1143.5736              1184.3202
 Red. masses --     1.2685                 1.2179                 2.2173
 Frc consts  --     0.9737                 0.9384                 1.8324
 IR Inten    --     9.9866                 0.6464               557.7425

                    43                     44                     45
                     A                      A                      A
 Frequencies --  1191.7196              1201.0573              1258.0087
 Red. masses --     1.5257                 1.2403                 4.0656
 Frc consts  --     1.2766                 1.0541                 3.7909
 IR Inten    --   145.1604               178.1417               554.8032

                    46                     47                     48
                     A                      A                      A
 Frequencies --  1293.3742              1298.6515              1337.2557
 Red. masses --     3.5128                 5.8518                 1.3005
 Frc consts  --     3.4622                 5.8147                 1.3703
 IR Inten    --   191.0111                27.8934                 3.4399

                    49                     50                     51
                     A                      A                      A
 Frequencies --  1361.9533              1410.7155              1439.2169
 Red. masses --    10.6527                 1.3340                 2.7118
 Frc consts  --    11.6422                 1.5642                 3.3095
 IR Inten    --     2.8557                43.5497               309.1098

                    52                     53                     54
                     A                      A                      A
 Frequencies --  1458.4864              1461.4576              1490.9923
 Red. masses --     2.0743                 1.4484                 1.2138
 Frc consts  --     2.5997                 1.8227                 1.5898
 IR Inten    --    43.5529                 3.4185                60.9779

                    55                     56                     57
                     A                      A                      A
 Frequencies --  1499.5892              1508.6352              1519.4001
 Red. masses --     1.0574                 1.0481                 1.0428
 Frc consts  --     1.4010                 1.4055                 1.4184
 IR Inten    --     8.8046                 9.3081                 2.7767

                    58                     59                     60
                     A                      A                      A
 Frequencies --  1530.0305              1530.6157              1552.9736
 Red. masses --     1.0496                 1.0450                 2.1852
 Frc consts  --     1.4477                 1.4425                 3.1051
 IR Inten    --    15.6592                16.7861                47.7125

                    61                     62                     63
                     A                      A                      A
 Frequencies --  1565.4657              1630.2202              1661.2947
 Red. masses --     1.3074                 7.0081                 5.8013
 Frc consts  --     1.8877                10.9735                 9.4334
 IR Inten    --    37.8994                31.3307                99.9712

                    64                     65                     66
                     A                      A                      A
 Frequencies --  1775.7861              1819.7246              3031.3969
 Red. masses --    10.6840                10.8582                 1.0417
 Frc consts  --    19.8501                21.1845                 5.6398
 IR Inten    --   173.2148               393.0725                27.4754

                    67                     68                     69
                     A                      A                      A
 Frequencies --  3038.7274              3053.5557              3081.1473
 Red. masses --     1.0419                 1.0383                 1.1018
 Frc consts  --     5.6683                 5.7040                 6.1628
 IR Inten    --   111.8324                 2.8861                58.1647

                    70                     71                     72
                     A                      A                      A
 Frequencies --  3085.0127              3112.9640              3169.7007
 Red. masses --     1.1042                 1.1000                 1.1012
 Frc consts  --     6.1918                 6.2806                 6.5185
 IR Inten    --    12.2303                 9.9992                13.4670

                    73                     74                     75
                     A                      A                      A
 Frequencies --  3196.0323              3209.9284              3212.0661
 Red. masses --     1.0965                 1.0891                 1.0946
 Frc consts  --     6.5989                 6.6119                 6.6540
 IR Inten    --     0.8006                12.5769                 3.2477

                    76                     77                     78
                     A                      A                      A
 Frequencies --  3212.6572              3230.2717              3262.1871
 Red. masses --     1.0892                 1.0934                 1.0930
 Frc consts  --     6.6236                 6.7221                 6.8531
 IR Inten    --     1.5657                 3.9321                 0.9707

 - Thermochemistry -
 -------------------
 Temperature   298.150 Kelvin.  Pressure   1.00000 Atm.
 Atom     1 has atomic number  8 and mass  15.99491

 Molecular mass:   207.08954 amu.
 Principal axes and moments of inertia in atomic units:
                           1         2         3
     Eigenvalues --   875.961017598.636908240.45061
           X            0.99990   0.01395  -0.00090
           Y           -0.01396   0.99984  -0.01105
           Z            0.00074   0.01106   0.99994
 This molecule is an asymmetric top.
 Rotational symmetry number  1.
 Warning -- assumption of classical behavior for rotation
           may cause significant error
 Rotational temperatures (Kelvin)      0.09888     0.01140     0.01051
 Rotational constants (GHZ):           2.06030     0.23751     0.21901
 Zero-point vibrational energy     593697.9 (Joules/Mol)
                                  141.89719 (Kcal/Mol)
 Warning -- explicit consideration of  22 degrees of freedom as
           vibrations may cause significant error
 Vibrational temperatures:     41.71    48.03    76.36    95.20   118.14
          (Kelvin)            161.83   189.67   206.58   234.12   288.15
                              321.29   330.43   419.49   498.89   557.51
                              582.84   609.63   643.06   719.07   730.04
                              858.62   863.17   903.49   940.09  1033.76
                             1059.11  1061.65  1188.33  1211.54  1242.65
                             1261.21  1382.04  1393.36  1422.43  1485.93
                             1497.74  1519.75  1574.51  1582.38  1642.20
                             1645.35  1703.97  1714.62  1728.05  1809.99
                             1860.87  1868.47  1924.01  1959.54  2029.70
                             2070.71  2098.43  2102.71  2145.20  2157.57
                             2170.59  2186.08  2201.37  2202.21  2234.38
                             2252.35  2345.52  2390.23  2554.96  2618.17
                             4361.50  4372.05  4393.38  4433.08  4438.64
                             4478.86  4560.49  4598.37  4618.37  4621.44
                             4622.29  4647.63  4693.55

 Zero-point correction=                           0.226128 (Hartree/Particle)
 Thermal correction to Energy=                    0.241437
 Thermal correction to Enthalpy=                  0.242381
 Thermal correction to Gibbs Free Energy=         0.181613
 Sum of electronic and zero-point Energies=           -707.216307
 Sum of electronic and thermal Energies=              -707.200997
 Sum of electronic and thermal Enthalpies=            -707.200053
 Sum of electronic and thermal Free Energies=         -707.260822

                     E (Thermal)             CV                S
                      KCal/Mol        Cal/Mol-Kelvin    Cal/Mol-Kelvin
 Total                  151.504             54.679            127.898
 Electronic               0.000              0.000              0.000
 Translational            0.889              2.981             41.888
 Rotational               0.889              2.981             32.373
 Vibrational            149.727             48.718             53.638
 Vibration     1          0.593              1.984              5.897
 Vibration     2          0.594              1.983              5.618
 Vibration     3          0.596              1.976              4.700
 Vibration     4          0.598              1.970              4.264
 Vibration     5          0.600              1.961              3.840
 Vibration     6          0.607              1.939              3.226
 Vibration     7          0.612              1.922              2.919
 Vibration     8          0.616              1.910              2.756
 Vibration     9          0.623              1.888              2.518
 Vibration    10          0.638              1.839              2.131
 Vibration    11          0.649              1.806              1.932
 Vibration    12          0.652              1.796              1.882
 Vibration    13          0.687              1.689              1.465
 Vibration    14          0.725              1.582              1.181
 Vibration    15          0.756              1.497              1.010
 Vibration    16          0.770              1.459              0.944
 Vibration    17          0.786              1.419              0.879
 Vibration    18          0.806              1.368              0.805
 Vibration    19          0.855              1.250              0.659
 Vibration    20          0.863              1.234              0.640
 Vibration    21          0.955              1.039              0.455
 Vibration    22          0.958              1.032              0.450

 Normal termination of Gaussian 09 at Thu Sep 30 01:42:40 2021.
 Gaussian 09:  AM64L-G09RevA.02 11-Jun-2009

 ----------------------------------------------------------------------
 #p TD(NStates=10, Root=1) b3lyp/6-31G* volume pop=NPA density=current
 Geom=AllCheck Guess=Read
 ----------------------------------------------------------------------

 O=C(N(C)C)Oc1ccc(cc1)C(=O)C_conf_0
 ----------------------------------
 Redundant internal coordinates taken from checkpoint file:
 C11H13NO3_d93e_conf_0.chk
 Charge =  0 Multiplicity = 1

                         Standard orientation:
 ---------------------------------------------------------------------
 Center     Atomic      Atomic             Coordinates (Angstroms)
 Number     Number       Type             X           Y           Z
 ---------------------------------------------------------------------
      1          8           0        2.178795   -1.459030   -0.694382
      2          6           0        2.481994   -0.395048   -0.190151
      3          7           0        3.752136    0.026833    0.069435
      4          6           0        4.104287    1.323261    0.630401
      5          6           0        4.860805   -0.823203   -0.338551
      6          8           0        1.564576    0.564225    0.197923
      7          6           0        0.202626    0.327989    0.102867
      8          6           0       -0.395450   -0.889887    0.433802
      9          6           0       -1.783929   -0.991670    0.381029
     10          6           0       -2.582649    0.101518    0.013461
     11          6           0       -1.954857    1.316177   -0.306146
     12          6           0       -0.572563    1.431939   -0.264601
     13          6           0       -4.075975    0.035279   -0.053574
     14          8           0       -4.731085    1.018662   -0.367348
     15          6           0       -4.768410   -1.278403    0.275020
     16          1           0        3.213038    1.841923    0.974159
     17          1           0        4.614229    1.944402   -0.118967
     18          1           0        4.785738    1.184149    1.479048
     19          1           0        4.463846   -1.758686   -0.729226
     20          1           0        5.512599   -1.031112    0.519303
     21          1           0        5.459337   -0.329698   -1.115997
     22          1           0        0.212994   -1.740645    0.708376
     23          1           0       -2.241449   -1.942631    0.635511
     24          1           0       -2.577145    2.158760   -0.588708
     25          1           0       -0.075607    2.364946   -0.511163
     26          1           0       -4.440733   -2.077442   -0.400735
     27          1           0       -5.846012   -1.139243    0.173720
     28          1           0       -4.539340   -1.601125    1.297743
 ---------------------------------------------------------------------

 SCF Done:  E(RB3LYP) =  -707.442434285     A.U. after    1 cycles

 Excitation energies and oscillator strengths:

 Excited State   1:      Singlet-A      3.7766 eV  328.30 nm  f=0.0001  <S**2>=0.000
      54 -> 56         0.68461
      54 -> 58         0.11018
      55 -> 56        -0.10677
 This state for optimization and/or second-order correction.
 Total Energy, E(TD-HF/TD-KS) =  -707.303647736
 Copying the excited state density for this state as the 1-particle RhoCI density.

 Excited State   2:      Singlet-A      4.8381 eV  256.27 nm  f=0.0774  <S**2>=0.000
      52 -> 56         0.53755
      55 -> 56         0.32979
      55 -> 57         0.27443

 Excited State   3:      Singlet-A      4.8690 eV  254.64 nm  f=0.2773  <S**2>=0.000
      52 -> 56        -0.23994
      53 -> 56        -0.27294
      55 -> 56         0.57108
      55 -> 57        -0.15352

 Excited State   4:      Singlet-A      5.1181 eV  242.24 nm  f=0.0950  <S**2>=0.000
      52 -> 56        -0.19504
      53 -> 56         0.63925
      55 -> 56         0.18285

 Excited State   5:      Singlet-A      5.5486 eV  223.45 nm  f=0.0005  <S**2>=0.000
      51 -> 56         0.23177
      54 -> 57         0.64460
      55 -> 57        -0.15936

 Excited State   6:      Singlet-A      5.5600 eV  222.99 nm  f=0.0024  <S**2>=0.000
      51 -> 56         0.63177
      52 -> 56         0.10386
      54 -> 57        -0.26362

 Excited State   7:      Singlet-A      5.9768 eV  207.44 nm  f=0.0504  <S**2>=0.000
      51 -> 56         0.13292
      52 -> 56        -0.21528
      52 -> 58        -0.11682
      53 -> 57        -0.35737
      55 -> 57         0.52322

 Excited State   8:      Singlet-A      6.1668 eV  201.05 nm  f=0.0587  <S**2>=0.000
      51 -> 56         0.10604
      52 -> 56        -0.20661
      52 -> 57        -0.13332
      52 -> 58        -0.14280
      52 -> 59         0.10693
      53 -> 57         0.57911
      55 -> 57         0.22089

 Excited State   9:      Singlet-A      6.5076 eV  190.52 nm  f=0.0182  <S**2>=0.000
      50 -> 56         0.10833
      51 -> 57         0.13362
      52 -> 57         0.13542
      54 -> 56        -0.12268
      54 -> 58         0.57386
      54 -> 59        -0.28674

 Excited State  10:      Singlet-A      6.5184 eV  190.21 nm  f=0.1542  <S**2>=0.000
      51 -> 57         0.46787
      52 -> 57         0.42928
      53 -> 58         0.10395
      54 -> 58        -0.13406
      55 -> 58         0.17533

 The electronic state is 1-A.
 Alpha  occ. eigenvalues --  -19.20613 -19.12986 -19.12543 -14.37902 -10.34298
 Alpha  occ. eigenvalues --  -10.27186 -10.26415 -10.22956 -10.22400 -10.20431
 Alpha  occ. eigenvalues --  -10.19818 -10.19762 -10.19720 -10.19716 -10.18622
 Alpha  occ. eigenvalues --   -1.11604  -1.02929  -1.02475  -0.95046  -0.86297
 Alpha  occ. eigenvalues --   -0.77815  -0.75684  -0.73918  -0.73169  -0.70864
 Alpha  occ. eigenvalues --   -0.64295  -0.62213  -0.57737  -0.55314  -0.54107
 Alpha  occ. eigenvalues --   -0.49800  -0.49543  -0.48265  -0.47276  -0.45709
 Alpha  occ. eigenvalues --   -0.44754  -0.44070  -0.43715  -0.43175  -0.42006
 Alpha  occ. eigenvalues --   -0.41522  -0.41376  -0.40717  -0.40066  -0.38860
 Alpha  occ. eigenvalues --   -0.37548  -0.37035  -0.35933  -0.34591  -0.32192
 Alpha  occ. eigenvalues --   -0.28160  -0.25904  -0.25459  -0.24384  -0.24090
 Alpha virt. eigenvalues --   -0.05002  -0.00795   0.03320   0.05704   0.08489
 Alpha virt. eigenvalues --    0.08961   0.11626   0.12314   0.13656   0.14369
 Alpha virt. eigenvalues --    0.15062   0.15408   0.15618   0.16180   0.16860

 Mulliken atomic charges:
              1
     1  O   -0.512751
     2  C    0.783899
     3  N   -0.436047
     4  C   -0.314567
     5  C   -0.317250
     6  O   -0.558971
     7  C    0.338537
     8  C   -0.138745
     9  C   -0.225788
    10  C    0.118937
    11  C   -0.203556
    12  C   -0.170418
    13  C    0.309868
    14  O   -0.306544
    15  C   -0.514609
    16  H    0.199256
    17  H    0.154798
    18  H    0.154626
    19  H    0.204560
    20  H    0.152607
    21  H    0.153512
    22  H    0.157714
    23  H    0.119317
    24  H    0.139429
    25  H    0.133555
    26  H    0.198619
    27  H    0.183801
    28  H    0.196209
 Sum of Mulliken atomic charges =  -0.00000

 Dipole moment (field-independent basis, Debye):
    X=              0.5101    Y=              0.0511    Z=              1.4387  Tot=              1.5273
 Quadrupole moment (field-independent basis, Debye-Ang):
   XX=            -63.3547   YY=            -84.8465   ZZ=            -89.1685
   XY=             13.0133   XZ=              0.0350   YZ=             -3.1752

 Summary of Natural Population Analysis:

                                       Natural Population
                Natural  -----------------------------------------------
    Atom  No    Charge         Core      Valence    Rydberg      Total
 -----------------------------------------------------------------------
      O    1   -0.65032      1.99978     6.63149    0.01905     8.65032
      C    2    0.94462      1.99937     3.01111    0.04490     5.05538
      N    3   -0.48861      1.99932     5.47833    0.01096     7.48861
      C    4   -0.46982      1.99946     4.45889    0.01147     6.46982
      C    5   -0.46841      1.99947     4.45717    0.01177     6.46841
      O    6   -0.56133      1.99969     6.55142    0.01022     8.56133
      C    7    0.27492      1.99873     3.70473    0.02162     5.72508
      C    8   -0.25848      1.99901     4.24586    0.01361     6.25848
      C    9   -0.23527      1.99905     4.22311    0.01311     6.23527
      C   10   -0.16514      1.99889     4.15156    0.01469     6.16514
      C   11   -0.22530      1.99905     4.21190    0.01435     6.22530
      C   12   -0.25847      1.99902     4.24553    0.01392     6.25847
      C   13    0.37078      1.99928     3.59744    0.03249     5.62922
      O   14   -0.25558      1.99981     6.23771    0.01805     8.25558
      C   15   -0.70817      1.99932     4.70209    0.00675     6.70817
      H   16    0.25780      0.00000     0.74132    0.00089     0.74220
      H   17    0.21867      0.00000     0.77968    0.00165     0.78133
      H   18    0.22165      0.00000     0.77691    0.00143     0.77835
      H   19    0.26266      0.00000     0.73579    0.00155     0.73734
      H   20    0.21922      0.00000     0.77948    0.00130     0.78078
      H   21    0.21794      0.00000     0.78060    0.00145     0.78206
      H   22    0.26080      0.00000     0.73802    0.00119     0.73920
      H   23    0.23046      0.00000     0.76858    0.00097     0.76954
      H   24    0.24029      0.00000     0.75892    0.00079     0.75971
      H   25    0.24509      0.00000     0.75374    0.00117     0.75491
      H   26    0.26194      0.00000     0.73682    0.00124     0.73806
      H   27    0.25756      0.00000     0.74131    0.00113     0.74244
      H   28    0.26050      0.00000     0.73827    0.00123     0.73950
 =======================================================================
   * Total *   -0.00000     29.98925    79.73777    0.27298   110.00000

 Normal termination of Gaussian 09 at Thu Sep 30 05:49:43 2021.
