 Gaussian 09, Revision A.02,

 -----------------------------------
 #p opt b3lyp/6-31G* scf=(xqc,tight)
 -----------------------------------

 --------------------------
 CC(OCOc1ccccc1)(C)C_conf_0
 --------------------------
 Symbolic Z-matrix:
 Charge =  0 Multiplicity = 1

 SCF Done:  E(RB3LYP) =  -579.241939580     A.U. after   14 cycles
 SCF Done:  E(RB3LYP) =  -579.246051635     A.U. after   12 cycles
 SCF Done:  E(RB3LYP) =  -579.246526767     A.U. after   12 cycles
 SCF Done:  E(RB3LYP) =  -579.246745334     A.U. after   11 cycles
 SCF Done:  E(RB3LYP) =  -579.246803677     A.U. after   11 cycles
 SCF Done:  E(RB3LYP) =  -579.246827599     A.U. after   11 cycles
 SCF Done:  E(RB3LYP) =  -579.246843454     A.U. after   11 cycles
 SCF Done:  E(RB3LYP) =  -579.246861071     A.U. after   11 cycles
 SCF Done:  E(RB3LYP) =  -579.246881537     A.U. after   11 cycles
 SCF Done:  E(RB3LYP) =  -579.246916878     A.U. after   12 cycles
 SCF Done:  E(RB3LYP) =  -579.246937367     A.U. after   10 cycles
 SCF Done:  E(RB3LYP) =  -579.246955564     A.U. after   11 cycles
 SCF Done:  E(RB3LYP) =  -579.246954285     A.U. after   10 cycles
 SCF Done:  E(RB3LYP) =  -579.246960000     A.U. after   10 cycles
 SCF Done:  E(RB3LYP) =  -579.246960564     A.U. after   10 cycles
 SCF Done:  E(RB3LYP) =  -579.246960823     A.U. after    7 cycles
 SCF Done:  E(RB3LYP) =  -579.246961029     A.U. after    7 cycles
 Optimization completed.
    -- Stationary point found.
 Normal termination of Gaussian 09 at Wed Sep 29 12:33:18 2021.

 ----------------------------------------------------------------------
 #p freq b3lyp/6-31G* volume NMR pop=NPA density=current Geom=AllCheck
 Guess=Read
 ----------------------------------------------------------------------

 CC(OCOc1ccccc1)(C)C_conf_0
 --------------------------
 Redundant internal coordinates taken from checkpoint file:
 C11H16O2_4c16_conf_0.chk
 Charge =  0 Multiplicity = 1

 SCF Done:  E(RB3LYP) =  -579.246961029     A.U. after    1 cycles

  1  C    Isotropic =   165.0622   Anisotropy =    37.9266

  2  C    Isotropic =   115.6671   Anisotropy =    63.4497

  3  O    Isotropic =   222.1600   Anisotropy =    49.1580

  4  C    Isotropic =   102.8020   Anisotropy =    41.1924

  5  O    Isotropic =   182.8992   Anisotropy =   101.9365

  6  C    Isotropic =    39.1819   Anisotropy =   127.8785

  7  C    Isotropic =    78.3380   Anisotropy =   136.6887

  8  C    Isotropic =    67.6893   Anisotropy =   163.6231

  9  C    Isotropic =    75.6486   Anisotropy =   157.2881

 10  C    Isotropic =    67.1405   Anisotropy =   164.2093

 11  C    Isotropic =    81.5755   Anisotropy =   144.7691

 12  C    Isotropic =   161.5578   Anisotropy =    32.6382

 13  C    Isotropic =   158.8084   Anisotropy =    42.4531

 14  H    Isotropic =    30.5594   Anisotropy =     6.5915

 15  H    Isotropic =    31.1700   Anisotropy =     8.1085

 16  H    Isotropic =    31.1898   Anisotropy =     8.2450

 17  H    Isotropic =    26.7810   Anisotropy =     4.0929

 18  H    Isotropic =    27.0040   Anisotropy =     5.0131

 19  H    Isotropic =    25.5260   Anisotropy =     6.7209

 20  H    Isotropic =    25.0565   Anisotropy =     4.3549

 21  H    Isotropic =    25.3890   Anisotropy =     3.7038

 22  H    Isotropic =    25.0455   Anisotropy =     5.3936

 23  H    Isotropic =    25.0193   Anisotropy =     9.3448

 24  H    Isotropic =    30.4371   Anisotropy =     5.6895

 25  H    Isotropic =    30.8083   Anisotropy =     5.4139

 26  H    Isotropic =    31.2344   Anisotropy =     8.2980

 27  H    Isotropic =    30.7987   Anisotropy =     7.5507

 28  H    Isotropic =    31.2357   Anisotropy =     8.2695

 29  H    Isotropic =    30.7651   Anisotropy =     6.5383

  Exact polarizability: 156.010  -5.263 116.804 -12.384  -7.878  83.314
 Approx polarizability: 206.360 -10.716 191.352 -21.912 -18.541 122.000

                     1                      2                      3
                     A                      A                      A
 Frequencies --    22.9685                36.5790                60.0466
 Red. masses --     3.0103                 4.1867                 3.8011
 Frc consts  --     0.0009                 0.0033                 0.0081
 IR Inten    --     0.0580                 0.2436                 0.1122

                     4                      5                      6
                     A                      A                      A
 Frequencies --   121.9189               168.5658               202.3924
 Red. masses --     4.0433                 4.3086                 1.0500
 Frc consts  --     0.0354                 0.0721                 0.0253
 IR Inten    --     4.1626                 0.3785                 0.0557

                     7                      8                      9
                     A                      A                      A
 Frequencies --   242.2583               254.3640               281.8729
 Red. masses --     1.8932                 1.6519                 2.7406
 Frc consts  --     0.0655                 0.0630                 0.1283
 IR Inten    --     0.1704                 0.5263                 0.8505

                    10                     11                     12
                     A                      A                      A
 Frequencies --   293.0557               311.0366               347.7441
 Red. masses --     1.0445                 2.5802                 2.5618
 Frc consts  --     0.0529                 0.1471                 0.1825
 IR Inten    --     0.0859                 2.9669                 1.7683

                    13                     14                     15
                     A                      A                      A
 Frequencies --   393.3446               420.5207               424.8481
 Red. masses --     2.2961                 2.4025                 3.1405
 Frc consts  --     0.2093                 0.2503                 0.3340
 IR Inten    --     4.2675                 0.7181                 0.0152

                    16                     17                     18
                     A                      A                      A
 Frequencies --   458.2572               503.1462               517.0410
 Red. masses --     3.1531                 2.9468                 3.5698
 Frc consts  --     0.3901                 0.4395                 0.5623
 IR Inten    --     1.7580                 3.6999                 5.3810

                    19                     20                     21
                     A                      A                      A
 Frequencies --   552.6941               623.2934               652.5364
 Red. masses --     3.6907                 6.2797                 6.7320
 Frc consts  --     0.6642                 1.4374                 1.6889
 IR Inten    --     4.5405                 2.3365                 9.9441

                    22                     23                     24
                     A                      A                      A
 Frequencies --   705.0423               725.8654               769.4722
 Red. masses --     2.4529                 3.9500                 1.5584
 Frc consts  --     0.7184                 1.2262                 0.5437
 IR Inten    --    10.5764                 6.8043                51.1357

                    25                     26                     27
                     A                      A                      A
 Frequencies --   798.3349               843.0764               861.0142
 Red. masses --     5.2633                 1.2446                 2.5952
 Frc consts  --     1.9764                 0.5212                 1.1336
 IR Inten    --     9.9778                 0.1722                23.8828

                    28                     29                     30
                     A                      A                      A
 Frequencies --   905.6978               923.1412               935.2423
 Red. masses --     1.4315                 1.6701                 1.6297
 Frc consts  --     0.6918                 0.8386                 0.8399
 IR Inten    --     8.8379                 0.2644                 0.0459

                    31                     32                     33
                     A                      A                      A
 Frequencies --   960.4826               975.0761               982.7884
 Red. masses --     1.3219                 1.2020                 1.2220
 Frc consts  --     0.7185                 0.6733                 0.6954
 IR Inten    --     0.0878                 0.0750                 0.4429

                    34                     35                     36
                     A                      A                      A
 Frequencies --  1014.9282              1030.7889              1056.5890
 Red. masses --     6.0185                 6.6820                 1.6941
 Frc consts  --     3.6527                 4.1831                 1.1143
 IR Inten    --    24.0517               267.2902                33.2719

                    37                     38                     39
                     A                      A                      A
 Frequencies --  1057.9840              1061.4679              1110.0185
 Red. masses --     1.4395                 1.8394                 3.9605
 Frc consts  --     0.9493                 1.2211                 2.8751
 IR Inten    --     0.2275                55.2404               273.3771

                    40                     41                     42
                     A                      A                      A
 Frequencies --  1112.3005              1176.5918              1188.8055
 Red. masses --     1.6692                 1.8891                 1.1051
 Frc consts  --     1.2168                 1.5408                 0.9202
 IR Inten    --    23.8250                39.8486                 1.9740

                    43                     44                     45
                     A                      A                      A
 Frequencies --  1208.2551              1231.8951              1266.5986
 Red. masses --     1.1567                 2.2228                 3.2427
 Frc consts  --     0.9949                 1.9875                 3.0650
 IR Inten    --     7.1393               143.5645               162.8274

                    46                     47                     48
                     A                      A                      A
 Frequencies --  1272.8519              1297.6961              1340.3016
 Red. masses --     2.7112                 2.8625                 1.8534
 Frc consts  --     2.5880                 2.8401                 1.9616
 IR Inten    --    25.9514                31.3881                 1.0766

                    49                     50                     51
                     A                      A                      A
 Frequencies --  1361.6481              1371.6253              1427.4202
 Red. masses --     1.2930                 2.2199                 1.2804
 Frc consts  --     1.4124                 2.4606                 1.5371
 IR Inten    --     9.5589                14.0163                10.7112

                    52                     53                     54
                     A                      A                      A
 Frequencies --  1430.6040              1452.7823              1462.8157
 Red. masses --     1.2692                 1.2192                 1.1935
 Frc consts  --     1.5304                 1.5161                 1.5047
 IR Inten    --     9.3836                 2.8273                29.0636

                    55                     56                     57
                     A                      A                      A
 Frequencies --  1503.8120              1505.2150              1510.7345
 Red. masses --     1.2165                 1.7421                 1.0511
 Frc consts  --     1.6209                 2.3255                 1.4134
 IR Inten    --     0.5743                 0.2288                 3.9411

                    58                     59                     60
                     A                      A                      A
 Frequencies --  1515.1928              1522.0586              1529.6252
 Red. masses --     1.0475                 1.0995                 1.0610
 Frc consts  --     1.4168                 1.5008                 1.4626
 IR Inten    --     0.9825                 3.5885                 3.4038

                    61                     62                     63
                     A                      A                      A
 Frequencies --  1539.2243              1546.5371              1548.3256
 Red. masses --     1.0952                 1.1125                 1.9048
 Frc consts  --     1.5288                 1.5678                 2.6905
 IR Inten    --     2.5332                33.2191                67.2436

                    64                     65                     66
                     A                      A                      A
 Frequencies --  1645.3251              1663.3691              3052.1201
 Red. masses --     5.9022                 5.5919                 1.0366
 Frc consts  --     9.4138                 9.1157                 5.6895
 IR Inten    --    15.5304                64.1131                 4.7617

                    67                     68                     69
                     A                      A                      A
 Frequencies --  3056.3191              3060.7715              3064.8347
 Red. masses --     1.0357                 1.0493                 1.0420
 Frc consts  --     5.6999                 5.7919                 5.7668
 IR Inten    --    15.3765                65.2688                13.2077

                    70                     71                     72
                     A                      A                      A
 Frequencies --  3114.4213              3121.1541              3126.2757
 Red. masses --     1.1065                 1.1045                 1.1020
 Frc consts  --     6.3237                 6.3391                 6.3455
 IR Inten    --    27.1405                16.7273                 4.4867

                    73                     74                     75
                     A                      A                      A
 Frequencies --  3128.5141              3134.4933              3135.3223
 Red. masses --     1.1029                 1.1027                 1.1025
 Frc consts  --     6.3602                 6.3832                 6.3853
 IR Inten    --    21.5866                46.1134                47.8023

                    76                     77                     78
                     A                      A                      A
 Frequencies --  3145.5101              3182.2483              3190.4478
 Red. masses --     1.1030                 1.0851                 1.0896
 Frc consts  --     6.4300                 6.4740                 6.5347
 IR Inten    --    27.0501                 1.1084                18.8130

                    79                     80                     81
                     A                      A                      A
 Frequencies --  3206.3154              3215.3090              3239.4211
 Red. masses --     1.0936                 1.0954                 1.0922
 Frc consts  --     6.6241                 6.6724                 6.7528
 IR Inten    --    32.4731                10.3608                 1.4351

 - Thermochemistry -
 -------------------
 Temperature   298.150 Kelvin.  Pressure   1.00000 Atm.
 Atom     1 has atomic number  6 and mass  12.00000

 Molecular mass:   180.11503 amu.
 Principal axes and moments of inertia in atomic units:
                           1         2         3
     Eigenvalues --   963.167224526.510134801.90662
           X            1.00000  -0.00122   0.00221
           Y            0.00123   0.99999  -0.00475
           Z           -0.00221   0.00475   0.99999
 This molecule is an asymmetric top.
 Rotational symmetry number  1.
 Warning -- assumption of classical behavior for rotation
           may cause significant error
 Rotational temperatures (Kelvin)      0.08993     0.01913     0.01804
 Rotational constants (GHZ):           1.87376     0.39870     0.37584
 Zero-point vibrational energy     660401.9 (Joules/Mol)
                                  157.83985 (Kcal/Mol)
 Warning -- explicit consideration of  19 degrees of freedom as
           vibrations may cause significant error
 Vibrational temperatures:     33.05    52.63    86.39   175.41   242.53
          (Kelvin)            291.20   348.56   365.97   405.55   421.64
                              447.51   500.33   565.93   605.03   611.26
                              659.33   723.91   743.91   795.20   896.78
                              938.85  1014.40  1044.36  1107.10  1148.62
                             1213.00  1238.81  1303.10  1328.19  1345.60
                             1381.92  1402.92  1414.01  1460.25  1483.07
                             1520.19  1522.20  1527.21  1597.07  1600.35
                             1692.85  1710.42  1738.41  1772.42  1822.35
                             1831.35  1867.09  1928.39  1959.11  1973.46
                             2053.74  2058.32  2090.23  2104.66  2163.65
                             2165.67  2173.61  2180.02  2189.90  2200.79
                             2214.60  2225.12  2227.69  2367.25  2393.21
                             4391.31  4397.36  4403.76  4409.61  4480.95
                             4490.64  4498.01  4501.23  4509.83  4511.02
                             4525.68  4578.54  4590.34  4613.17  4626.11
                             4660.80

 Zero-point correction=                           0.251534 (Hartree/Particle)
 Thermal correction to Energy=                    0.264655
 Thermal correction to Enthalpy=                  0.265599
 Thermal correction to Gibbs Free Energy=         0.210991
 Sum of electronic and zero-point Energies=           -578.995427
 Sum of electronic and thermal Energies=              -578.982306
 Sum of electronic and thermal Enthalpies=            -578.981362
 Sum of electronic and thermal Free Energies=         -579.035970

                     E (Thermal)             CV                S
                      KCal/Mol        Cal/Mol-Kelvin    Cal/Mol-Kelvin
 Total                  166.074             50.537            114.933
 Electronic               0.000              0.000              0.000
 Translational            0.889              2.981             41.472
 Rotational               0.889              2.981             31.416
 Vibrational            164.296             44.575             42.045
 Vibration     1          0.593              1.985              6.359
 Vibration     2          0.594              1.982              5.436
 Vibration     3          0.597              1.973              4.456
 Vibration     4          0.609              1.931              3.070
 Vibration     5          0.625              1.881              2.451
 Vibration     6          0.639              1.836              2.111
 Vibration     7          0.658              1.776              1.786
 Vibration     8          0.665              1.755              1.700
 Vibration     9          0.681              1.707              1.522
 Vibration    10          0.688              1.687              1.456
 Vibration    11          0.700              1.653              1.357
 Vibration    12          0.725              1.580              1.176
 Vibration    13          0.761              1.484              0.987
 Vibration    14          0.783              1.426              0.890
 Vibration    15          0.787              1.416              0.876
 Vibration    16          0.816              1.343              0.771
 Vibration    17          0.858              1.243              0.650
 Vibration    18          0.872              1.212              0.617
 Vibration    19          0.908              1.134              0.539

 Optimization completed.
    -- Stationary point found.
 Normal termination of Gaussian 09 at Wed Sep 29 13:31:39 2021.
 Gaussian 09:  AM64L-G09RevA.02 11-Jun-2009

 ----------------------------------------------------------------------
 #p TD(NStates=10, Root=1) b3lyp/6-31G* volume pop=NPA density=current
 Geom=AllCheck Guess=Read
 ----------------------------------------------------------------------

 CC(OCOc1ccccc1)(C)C_conf_0
 --------------------------
 Redundant internal coordinates taken from checkpoint file:
 C11H16O2_4c16_conf_0.chk
 Charge =  0 Multiplicity = 1

                         Standard orientation:
 ---------------------------------------------------------------------
 Center     Atomic      Atomic             Coordinates (Angstroms)
 Number     Number       Type             X           Y           Z
 ---------------------------------------------------------------------
      1          6           0        3.725270   -0.460197   -0.516408
      2          6           0        2.558115    0.186473    0.244739
      3          8           0        1.447981    0.427353   -0.668341
      4          6           0        0.747435   -0.655054   -1.197911
      5          8           0       -0.255024   -1.192812   -0.345536
      6          6           0       -1.423508   -0.487875   -0.173223
      7          6           0       -2.496630   -1.216231    0.355991
      8          6           0       -3.723888   -0.593457    0.564193
      9          6           0       -3.896923    0.756395    0.243697
     10          6           0       -2.822350    1.475910   -0.277073
     11          6           0       -1.580351    0.868575   -0.482986
     12          6           0        2.131378   -0.670687    1.444330
     13          6           0        2.939433    1.596989    0.703656
     14          1           0        3.485548   -1.473837   -0.856074
     15          1           0        4.604664   -0.536632    0.132578
     16          1           0        3.992440    0.143569   -1.390084
     17          1           0        1.396750   -1.508577   -1.415164
     18          1           0        0.282500   -0.290674   -2.121025
     19          1           0       -2.347372   -2.266143    0.588839
     20          1           0       -4.551277   -1.167837    0.972949
     21          1           0       -4.856198    1.240254    0.403754
     22          1           0       -2.939581    2.529199   -0.519323
     23          1           0       -0.740722    1.448687   -0.846396
     24          1           0        1.848686   -1.683603    1.143597
     25          1           0        1.275123   -0.219147    1.953989
     26          1           0        2.960618   -0.746934    2.157166
     27          1           0        3.211382    2.218095   -0.155984
     28          1           0        3.790272    1.562015    1.392395
     29          1           0        2.095634    2.070183    1.215779
 ---------------------------------------------------------------------

 SCF Done:  E(RB3LYP) =  -579.246961029     A.U. after    1 cycles

 Excitation energies and oscillator strengths:

 Excited State   1:      Singlet-A      5.2392 eV  236.65 nm  f=0.0201  <S**2>=0.000
      48 -> 51         0.34243
      49 -> 50         0.61319
 This state for optimization and/or second-order correction.
 Total Energy, E(TD-HF/TD-KS) =  -579.054424598
 Copying the excited state density for this state as the 1-particle RhoCI density.

 Excited State   2:      Singlet-A      5.9900 eV  206.99 nm  f=0.0997  <S**2>=0.000
      48 -> 50        -0.34314
      49 -> 51         0.60836

 Excited State   3:      Singlet-A      6.7967 eV  182.42 nm  f=0.0126  <S**2>=0.000
      47 -> 50         0.67386
      48 -> 51         0.15174

 Excited State   4:      Singlet-A      6.9764 eV  177.72 nm  f=0.5421  <S**2>=0.000
      47 -> 51        -0.30247
      48 -> 50         0.53553
      49 -> 51         0.28580
      49 -> 52         0.10943

 Excited State   5:      Singlet-A      7.0011 eV  177.09 nm  f=0.2272  <S**2>=0.000
      45 -> 50        -0.18176
      46 -> 50        -0.11647
      47 -> 50        -0.18496
      47 -> 51        -0.16790
      48 -> 51         0.53738
      49 -> 50        -0.29996

 Excited State   6:      Singlet-A      7.0754 eV  175.23 nm  f=0.1865  <S**2>=0.000
      47 -> 51         0.60416
      48 -> 50         0.25469
      48 -> 51         0.13329
      49 -> 51         0.14653

 Excited State   7:      Singlet-A      7.4294 eV  166.88 nm  f=0.0241  <S**2>=0.000
      48 -> 50        -0.10045
      49 -> 52         0.61451
      49 -> 53        -0.29116
      49 -> 54         0.11382

 Excited State   8:      Singlet-A      7.5581 eV  164.04 nm  f=0.0005  <S**2>=0.000
      49 -> 52         0.30714
      49 -> 53         0.61733
      49 -> 54        -0.11231

 Excited State   9:      Singlet-A      7.5785 eV  163.60 nm  f=0.0175  <S**2>=0.000
      44 -> 50        -0.16302
      45 -> 50        -0.11787
      46 -> 50         0.65606

 Excited State  10:      Singlet-A      7.8067 eV  158.82 nm  f=0.0104  <S**2>=0.000
      44 -> 51        -0.18598
      46 -> 51         0.65948

 The electronic state is 1-A.
 Alpha  occ. eigenvalues --  -19.16968 -19.15277 -10.28362 -10.24851 -10.23989
 Alpha  occ. eigenvalues --  -10.18428 -10.18419 -10.17963 -10.17865 -10.17856
 Alpha  occ. eigenvalues --  -10.17754 -10.17434 -10.17282  -1.07334  -1.01786
 Alpha  occ. eigenvalues --   -0.84110  -0.80209  -0.74199  -0.73672  -0.69566
 Alpha  occ. eigenvalues --   -0.69036  -0.67243  -0.60228  -0.59572  -0.55999
 Alpha  occ. eigenvalues --   -0.52222  -0.49447  -0.48631  -0.48369  -0.45430
 Alpha  occ. eigenvalues --   -0.44737  -0.43317  -0.42269  -0.41522  -0.40914
 Alpha  occ. eigenvalues --   -0.39630  -0.38889  -0.37574  -0.37113  -0.36720
 Alpha  occ. eigenvalues --   -0.35722  -0.34847  -0.34329  -0.32820  -0.31781
 Alpha  occ. eigenvalues --   -0.29848  -0.27087  -0.24297  -0.21634
 Alpha virt. eigenvalues --    0.00645   0.01790   0.07906   0.09811   0.10644
 Alpha virt. eigenvalues --    0.12027   0.14025   0.14549   0.15070   0.15396
 Alpha virt. eigenvalues --    0.15647   0.16791   0.17157   0.17649   0.18531

 Mulliken atomic charges:
              1
     1  C   -0.457904
     2  C    0.301963
     3  O   -0.481363
     4  C    0.158801
     5  O   -0.472316
     6  C    0.338954
     7  C   -0.185148
     8  C   -0.161235
     9  C   -0.107899
    10  C   -0.168183
    11  C   -0.193394
    12  C   -0.455795
    13  C   -0.447992
    14  H    0.144303
    15  H    0.149925
    16  H    0.155286
    17  H    0.149793
    18  H    0.164164
    19  H    0.125912
    20  H    0.119919
    21  H    0.131169
    22  H    0.121027
    23  H    0.152928
    24  H    0.153862
    25  H    0.165660
    26  H    0.142420
    27  H    0.153390
    28  H    0.141937
    29  H    0.159817
 Sum of Mulliken atomic charges =  -0.00000

 Dipole moment (field-independent basis, Debye):
    X=              2.5050    Y=             -0.3516    Z=             -0.2870  Tot=              2.5458
 Quadrupole moment (field-independent basis, Debye-Ang):
   XX=            -73.2961   YY=            -77.5649   ZZ=            -78.4729
   XY=             -2.0530   XZ=             -0.4997   YZ=              0.5681

 Summary of Natural Population Analysis:

                                       Natural Population
                Natural  -----------------------------------------------
    Atom  No    Charge         Core      Valence    Rydberg      Total
 -----------------------------------------------------------------------
      C    1   -0.70002      1.99933     4.69127    0.00941     6.70002
      C    2    0.28050      1.99903     3.70104    0.01944     5.71950
      O    3   -0.59941      1.99976     6.58678    0.01288     8.59941
      C    4    0.19514      1.99939     3.77531    0.03017     5.80486
      O    5   -0.47318      1.99975     6.46157    0.01186     8.47318
      C    6    0.32280      1.99879     3.65471    0.02369     5.67720
      C    7   -0.30201      1.99906     4.28295    0.02000     6.30201
      C    8   -0.28591      1.99915     4.26773    0.01903     6.28591
      C    9   -0.16845      1.99912     4.15324    0.01608     6.16845
      C   10   -0.28180      1.99915     4.26316    0.01949     6.28180
      C   11   -0.32818      1.99905     4.31085    0.01829     6.32818
      C   12   -0.70264      1.99933     4.69351    0.00979     6.70264
      C   13   -0.68311      1.99933     4.67342    0.01037     6.68311
      H   14    0.22832      0.00000     0.77091    0.00077     0.77168
      H   15    0.24051      0.00000     0.75865    0.00084     0.75949
      H   16    0.24016      0.00000     0.75849    0.00136     0.75984
      H   17    0.20242      0.00000     0.79584    0.00174     0.79758
      H   18    0.21667      0.00000     0.78049    0.00285     0.78333
      H   19    0.23466      0.00000     0.76405    0.00130     0.76534
      H   20    0.22810      0.00000     0.77105    0.00085     0.77190
      H   21    0.22864      0.00000     0.77050    0.00086     0.77136
      H   22    0.22790      0.00000     0.77123    0.00087     0.77210
      H   23    0.24253      0.00000     0.75562    0.00185     0.75747
      H   24    0.23813      0.00000     0.76073    0.00114     0.76187
      H   25    0.24670      0.00000     0.75197    0.00133     0.75330
      H   26    0.23585      0.00000     0.76317    0.00098     0.76415
      H   27    0.23957      0.00000     0.75925    0.00118     0.76043
      H   28    0.23310      0.00000     0.76617    0.00072     0.76690
      H   29    0.24302      0.00000     0.75566    0.00132     0.75698
 =======================================================================
   * Total *    0.00000     25.99023    71.76930    0.24046    98.00000

 Normal termination of Gaussian 09 at Wed Sep 29 17:54:25 2021.
