 Gaussian 09, Revision A.02,

 -----------------------------------
 #p opt b3lyp/6-31G* scf=(xqc,tight)
 -----------------------------------

 -----------------------------------
 COC(=O)c1ccc(cc1)OC(=O)N(C)C_conf_0
 -----------------------------------
 Symbolic Z-matrix:
 Charge =  0 Multiplicity = 1

 SCF Done:  E(RB3LYP) =  -782.666060739     A.U. after   15 cycles
 SCF Done:  E(RB3LYP) =  -782.672065269     A.U. after   13 cycles
 SCF Done:  E(RB3LYP) =  -782.672487966     A.U. after   13 cycles
 SCF Done:  E(RB3LYP) =  -782.674170526     A.U. after   16 cycles
 SCF Done:  E(RB3LYP) =  -782.674464848     A.U. after   12 cycles
 SCF Done:  E(RB3LYP) =  -782.674636603     A.U. after   12 cycles
 SCF Done:  E(RB3LYP) =  -782.674667157     A.U. after   11 cycles
 SCF Done:  E(RB3LYP) =  -782.674683003     A.U. after   11 cycles
 SCF Done:  E(RB3LYP) =  -782.674719098     A.U. after   11 cycles
 SCF Done:  E(RB3LYP) =  -782.674747599     A.U. after   11 cycles
 SCF Done:  E(RB3LYP) =  -782.674781137     A.U. after   10 cycles
 SCF Done:  E(RB3LYP) =  -782.674778813     A.U. after    9 cycles
 SCF Done:  E(RB3LYP) =  -782.674784565     A.U. after   10 cycles
 SCF Done:  E(RB3LYP) =  -782.674785971     A.U. after    9 cycles
 SCF Done:  E(RB3LYP) =  -782.674786079     A.U. after    7 cycles
 SCF Done:  E(RB3LYP) =  -782.674786073     A.U. after    7 cycles
 SCF Done:  E(RB3LYP) =  -782.674786076     A.U. after    6 cycles
 SCF Done:  E(RB3LYP) =  -782.674786075     A.U. after    6 cycles
 Optimization completed.
    -- Stationary point found.
 Normal termination of Gaussian 09 at Thu Sep 30 01:53:20 2021.

 ----------------------------------------------------------------------
 #p freq b3lyp/6-31G* volume NMR pop=NPA density=current Geom=AllCheck
 Guess=Read
 ----------------------------------------------------------------------

 COC(=O)c1ccc(cc1)OC(=O)N(C)C_conf_0
 -----------------------------------
 Redundant internal coordinates taken from checkpoint file:
 C11H13NO4_c06c_conf_0.chk
 Charge =  0 Multiplicity = 1

 SCF Done:  E(RB3LYP) =  -782.674786075     A.U. after    1 cycles

  1  C    Isotropic =   139.1781   Anisotropy =    62.3670

  2  O    Isotropic =   168.0305   Anisotropy =   132.1458

  3  C    Isotropic =    32.7938   Anisotropy =    74.5152

  4  O    Isotropic =   -43.5149   Anisotropy =   572.4438

  5  C    Isotropic =    69.9933   Anisotropy =   145.1071

  6  C    Isotropic =    63.1493   Anisotropy =   174.5245

  7  C    Isotropic =    73.5197   Anisotropy =   153.5253

  8  C    Isotropic =    40.9898   Anisotropy =   115.8968

  9  C    Isotropic =    76.9026   Anisotropy =   137.0956

 10  C    Isotropic =    65.6489   Anisotropy =   169.7778

 11  O    Isotropic =   140.9910   Anisotropy =   140.6135

 12  C    Isotropic =    47.5467   Anisotropy =    81.4220

 13  O    Isotropic =    66.8042   Anisotropy =   386.8106

 14  N    Isotropic =   179.3035   Anisotropy =    82.0243

 15  C    Isotropic =   155.5563   Anisotropy =    49.8447

 16  C    Isotropic =   155.2742   Anisotropy =    51.4446

 17  H    Isotropic =    28.7377   Anisotropy =     7.2791

 18  H    Isotropic =    28.3320   Anisotropy =     8.4156

 19  H    Isotropic =    28.3191   Anisotropy =     8.3992

 20  H    Isotropic =    24.0626   Anisotropy =     7.4142

 21  H    Isotropic =    24.7238   Anisotropy =     9.2098

 22  H    Isotropic =    25.5017   Anisotropy =     6.9424

 23  H    Isotropic =    24.3136   Anisotropy =     8.2362

 24  H    Isotropic =    28.3420   Anisotropy =     5.4696

 25  H    Isotropic =    29.6180   Anisotropy =     9.1472

 26  H    Isotropic =    29.7966   Anisotropy =     8.8168

 27  H    Isotropic =    28.1694   Anisotropy =     6.9532

 28  H    Isotropic =    29.9248   Anisotropy =     9.1229

 29  H    Isotropic =    29.8690   Anisotropy =     9.3204

  Exact polarizability: 217.914   4.022 124.485   3.821  -8.236  73.881
 Approx polarizability: 266.088  15.143 218.441   6.530 -17.994 112.858

                     1                      2                      3
                     A                      A                      A
 Frequencies --    26.7364                32.1720                58.8796
 Red. masses --     4.2639                 3.8539                 1.6291
 Frc consts  --     0.0018                 0.0024                 0.0033
 IR Inten    --     0.7547                 1.5608                 0.2485

                     4                      5                      6
                     A                      A                      A
 Frequencies --    63.8102                69.1172               105.5997
 Red. masses --     4.0614                 3.1513                 2.4256
 Frc consts  --     0.0097                 0.0089                 0.0159
 IR Inten    --     0.7283                 0.6014                 0.2936

                     7                      8                      9
                     A                      A                      A
 Frequencies --   112.9985               136.1169               140.5173
 Red. masses --     2.8675                 1.3513                 1.3291
 Frc consts  --     0.0216                 0.0148                 0.0155
 IR Inten    --     0.3500                 0.7535                 0.0722

                    10                     11                     12
                     A                      A                      A
 Frequencies --   160.9395               178.9354               215.6183
 Red. masses --     4.0905                 4.3663                 5.5559
 Frc consts  --     0.0624                 0.0824                 0.1522
 IR Inten    --     2.0968                 6.7033                 0.3102

                    13                     14                     15
                     A                      A                      A
 Frequencies --   227.0551               305.3840               319.0869
 Red. masses --     2.1329                 4.7543                 5.5217
 Frc consts  --     0.0648                 0.2612                 0.3312
 IR Inten    --     3.9541                 4.3116                17.6036

                    16                     17                     18
                     A                      A                      A
 Frequencies --   363.8721               388.6266               393.1512
 Red. masses --     5.3729                 4.7011                 3.7153
 Frc consts  --     0.4191                 0.4183                 0.3383
 IR Inten    --    17.5824                 0.2327                 4.8862

                    19                     20                     21
                     A                      A                      A
 Frequencies --   424.1767               476.8140               500.0053
 Red. masses --     3.1158                 4.0001                 6.1826
 Frc consts  --     0.3303                 0.5358                 0.9107
 IR Inten    --     1.0441                 4.7436                 7.6817

                    22                     23                     24
                     A                      A                      A
 Frequencies --   516.0895               622.2903               652.5556
 Red. masses --     3.1758                 5.8041                 6.8004
 Frc consts  --     0.4984                 1.3243                 1.7062
 IR Inten    --     2.9751                 3.1858                 6.5154

                    25                     26                     27
                     A                      A                      A
 Frequencies --   675.6463               699.9551               736.0195
 Red. masses --     6.6675                 4.1266                12.0050
 Frc consts  --     1.7933                 1.1912                 3.8317
 IR Inten    --     4.5608                15.1621                19.2815

                    28                     29                     30
                     A                      A                      A
 Frequencies --   767.9570               817.3020               841.1707
 Red. masses --     4.8990                 5.4179                 2.7766
 Frc consts  --     1.7023                 2.1323                 1.1575
 IR Inten    --    32.0407                 2.8445                 9.5635

                    31                     32                     33
                     A                      A                      A
 Frequencies --   841.3082               868.3261               881.6259
 Red. masses --     1.4102                 5.5750                 2.4908
 Frc consts  --     0.5881                 2.4766                 1.1407
 IR Inten    --     4.4984                17.2337                32.0282

                    34                     35                     36
                     A                      A                      A
 Frequencies --   969.1875               985.6185              1004.8051
 Red. masses --     1.3072                 1.3171                 7.2053
 Frc consts  --     0.7235                 0.7538                 4.2861
 IR Inten    --     0.0016                 0.7406                 5.3276

                    37                     38                     39
                     A                      A                      A
 Frequencies --  1034.9083              1042.7656              1094.5149
 Red. masses --     3.1154                 2.4498                 1.3665
 Frc consts  --     1.9659                 1.5695                 0.9645
 IR Inten    --    12.0585                25.2049                 9.2386

                    40                     41                     42
                     A                      A                      A
 Frequencies --  1137.3616              1144.0204              1147.5691
 Red. masses --     1.4763                 1.2178                 2.8390
 Frc consts  --     1.1252                 0.9391                 2.2028
 IR Inten    --    75.9214                 0.4143               197.7538

                    43                     44                     45
                     A                      A                      A
 Frequencies --  1184.2286              1185.7201              1191.9033
 Red. masses --     2.2500                 1.2734                 1.5005
 Frc consts  --     1.8591                 1.0549                 1.2559
 IR Inten    --   565.1315                 1.5768               143.4930

                    46                     47                     48
                     A                      A                      A
 Frequencies --  1196.8455              1224.0821              1257.1958
 Red. masses --     1.2095                 1.5786                 4.5672
 Frc consts  --     1.0208                 1.3936                 4.2531
 IR Inten    --   174.7582                38.5887               522.3061

                    49                     50                     51
                     A                      A                      A
 Frequencies --  1298.9872              1312.3066              1335.6649
 Red. masses --     5.7245                 4.6856                 1.3169
 Frc consts  --     5.6911                 4.7543                 1.3842
 IR Inten    --    16.6082               492.7263                13.6299

                    52                     53                     54
                     A                      A                      A
 Frequencies --  1364.3239              1439.5723              1458.0655
 Red. masses --    10.4704                 2.7076                 2.8738
 Frc consts  --    11.4828                 3.3060                 3.5997
 IR Inten    --    40.7833               278.3052                11.1778

                    55                     56                     57
                     A                      A                      A
 Frequencies --  1461.1824              1490.6965              1493.3114
 Red. masses --     1.2240                 1.2084                 1.2140
 Frc consts  --     1.5397                 1.5822                 1.5951
 IR Inten    --    24.7059                67.0685                 7.8378

                    58                     59                     60
                     A                      A                      A
 Frequencies --  1512.0141              1519.2333              1525.5809
 Red. masses --     1.0484                 1.0427                 1.0485
 Frc consts  --     1.4122                 1.4179                 1.4378
 IR Inten    --     5.6088                 2.2662                 8.1184

                    61                     62                     63
                     A                      A                      A
 Frequencies --  1530.4284              1530.7525              1554.3741
 Red. masses --     1.0476                 1.0465                 2.1603
 Frc consts  --     1.4457                 1.4448                 3.0753
 IR Inten    --    17.8781                14.9639                55.1657

                    64                     65                     66
                     A                      A                      A
 Frequencies --  1566.1792              1634.7745              1664.4759
 Red. masses --     1.3351                 7.2876                 5.8787
 Frc consts  --     1.9296                11.4749                 9.5958
 IR Inten    --    30.1862                 0.9974                89.8678

                    67                     68                     69
                     A                      A                      A
 Frequencies --  1799.8507              1821.1875              3030.7656
 Red. masses --    11.6612                10.8893                 1.0415
 Frc consts  --    22.2570                21.2794                 5.6368
 IR Inten    --   228.7676               404.8521                27.8605

                    70                     71                     72
                     A                      A                      A
 Frequencies --  3038.0875              3073.9399              3079.7247
 Red. masses --     1.0418                 1.0294                 1.1021
 Frc consts  --     5.6656                 5.7312                 6.1587
 IR Inten    --   114.3165                42.2731                58.3382

                    73                     74                     75
                     A                      A                      A
 Frequencies --  3084.0400              3147.9959              3178.7616
 Red. masses --     1.1041                 1.1074                 1.1071
 Frc consts  --     6.1875                 6.4660                 6.5911
 IR Inten    --    12.8223                22.0126                18.6304

                    76                     77                     78
                     A                      A                      A
 Frequencies --  3195.6766              3211.8795              3214.4292
 Red. masses --     1.0964                 1.0945                 1.0896
 Frc consts  --     6.5972                 6.6528                 6.6332
 IR Inten    --     0.7623                 3.4984                 6.3746

                    79                     80                     81
                     A                      A                      A
 Frequencies --  3226.4493              3237.3891              3259.9605
 Red. masses --     1.0900                 1.0933                 1.0934
 Frc consts  --     6.6854                 6.7511                 6.8460
 IR Inten    --     0.4825                 3.0529                 1.6950

 - Thermochemistry -
 -------------------
 Temperature   298.150 Kelvin.  Pressure   1.00000 Atm.
 Atom     1 has atomic number  6 and mass  12.00000

 Molecular mass:   223.08446 amu.
 Principal axes and moments of inertia in atomic units:
                           1         2         3
     Eigenvalues --   888.557579480.95709**********
           X            0.99999  -0.00056   0.00319
           Y            0.00057   0.99999  -0.00418
           Z           -0.00319   0.00418   0.99999
 This molecule is an asymmetric top.
 Rotational symmetry number  1.
 Warning -- assumption of classical behavior for rotation
           may cause significant error
 Rotational temperatures (Kelvin)      0.09748     0.00914     0.00858
 Rotational constants (GHZ):           2.03109     0.19035     0.17886
 Zero-point vibrational energy     608376.7 (Joules/Mol)
                                  145.40553 (Kcal/Mol)
 Warning -- explicit consideration of  22 degrees of freedom as
           vibrations may cause significant error
 Vibrational temperatures:     38.47    46.29    84.71    91.81    99.44
          (Kelvin)            151.93   162.58   195.84   202.17   231.56
                              257.45   310.23   326.68   439.38   459.09
                              523.53   559.15   565.66   610.29   686.03
                              719.40   742.54   895.34   938.88   972.10
                             1007.08  1058.97  1104.92  1175.91  1210.26
                             1210.45  1249.33  1268.46  1394.44  1418.08
                             1445.69  1489.00  1500.31  1574.76  1636.41
                             1645.99  1651.09  1703.84  1705.98  1714.88
                             1721.99  1761.18  1808.82  1868.95  1888.11
                             1921.72  1962.96  2071.22  2097.83  2102.31
                             2144.78  2148.54  2175.45  2185.84  2194.97
                             2201.94  2202.41  2236.39  2253.38  2352.07
                             2394.81  2589.58  2620.28  4360.59  4371.12
                             4422.71  4431.03  4437.24  4529.26  4573.52
                             4597.86  4621.17  4624.84  4642.14  4657.88
                             4690.35

 Zero-point correction=                           0.231718 (Hartree/Particle)
 Thermal correction to Energy=                    0.248026
 Thermal correction to Enthalpy=                  0.248970
 Thermal correction to Gibbs Free Energy=         0.185635
 Sum of electronic and zero-point Energies=           -782.443068
 Sum of electronic and thermal Energies=              -782.426760
 Sum of electronic and thermal Enthalpies=            -782.425816
 Sum of electronic and thermal Free Energies=         -782.489151

                     E (Thermal)             CV                S
                      KCal/Mol        Cal/Mol-Kelvin    Cal/Mol-Kelvin
 Total                  155.638             57.529            133.300
 Electronic               0.000              0.000              0.000
 Translational            0.889              2.981             42.110
 Rotational               0.889              2.981             32.808
 Vibrational            153.861             51.568             58.382
 Vibration     1          0.593              1.984              6.058
 Vibration     2          0.594              1.983              5.691
 Vibration     3          0.596              1.974              4.494
 Vibration     4          0.597              1.972              4.336
 Vibration     5          0.598              1.969              4.178
 Vibration     6          0.605              1.945              3.348
 Vibration     7          0.607              1.939              3.217
 Vibration     8          0.614              1.917              2.858
 Vibration     9          0.615              1.913              2.797
 Vibration    10          0.622              1.890              2.539
 Vibration    11          0.629              1.868              2.339
 Vibration    12          0.645              1.817              1.996
 Vibration    13          0.651              1.800              1.902
 Vibration    14          0.696              1.663              1.387
 Vibration    15          0.705              1.637              1.315
 Vibration    16          0.737              1.547              1.106
 Vibration    17          0.757              1.494              1.005
 Vibration    18          0.760              1.485              0.988
 Vibration    19          0.786              1.418              0.878
 Vibration    20          0.833              1.301              0.719
 Vibration    21          0.855              1.250              0.658
 Vibration    22          0.871              1.214              0.619

 Optimization completed.
    -- Stationary point found.
 Normal termination of Gaussian 09 at Thu Sep 30 02:59:03 2021.
 Gaussian 09:  AM64L-G09RevA.02 11-Jun-2009

 ----------------------------------------------------------------------
 #p TD(NStates=10, Root=1) b3lyp/6-31G* volume pop=NPA density=current
 Geom=AllCheck Guess=Read
 ----------------------------------------------------------------------

 COC(=O)c1ccc(cc1)OC(=O)N(C)C_conf_0
 -----------------------------------
 Redundant internal coordinates taken from checkpoint file:
 C11H13NO4_c06c_conf_0.chk
 Charge =  0 Multiplicity = 1

                         Standard orientation:
 ---------------------------------------------------------------------
 Center     Atomic      Atomic             Coordinates (Angstroms)
 Number     Number       Type             X           Y           Z
 ---------------------------------------------------------------------
      1          6           0       -5.752094    0.552054   -0.305911
      2          8           0       -4.329436    0.735926   -0.279462
      3          6           0       -3.614542   -0.353372    0.093654
      4          8           0       -4.132339   -1.413265    0.388842
      5          6           0       -2.149594   -0.097456    0.097638
      6          6           0       -1.298298   -1.151296    0.457445
      7          6           0        0.081591   -0.980668    0.485263
      8          6           0        0.612437    0.265401    0.140093
      9          6           0       -0.220009    1.327188   -0.219512
     10          6           0       -1.598848    1.146764   -0.239606
     11          8           0        1.963596    0.565664    0.217980
     12          6           0        2.911758   -0.338322   -0.225789
     13          8           0        2.641072   -1.390565   -0.770659
     14          7           0        4.169101    0.123339    0.030004
     15          6           0        4.479574    1.403592    0.648870
     16          6           0        5.302610   -0.664959   -0.429694
     17          1           0       -6.164747    1.509668   -0.625480
     18          1           0       -6.124686    0.284923    0.686749
     19          1           0       -6.025108   -0.238580   -1.010025
     20          1           0       -1.739128   -2.107621    0.718476
     21          1           0        0.737089   -1.798490    0.752909
     22          1           0        0.226270    2.282231   -0.477526
     23          1           0       -2.250764    1.966746   -0.518139
     24          1           0        3.572931    1.873281    1.021631
     25          1           0        4.961295    2.076659   -0.073867
     26          1           0        5.172151    1.250547    1.486226
     27          1           0        4.934661   -1.595353   -0.859073
     28          1           0        5.972939   -0.888661    0.409831
     29          1           0        5.872731   -0.114367   -1.190053
 ---------------------------------------------------------------------

 SCF Done:  E(RB3LYP) =  -782.674786075     A.U. after    1 cycles

 Excitation energies and oscillator strengths:

 Excited State   1:      Singlet-A      4.8843 eV  253.84 nm  f=0.0009  <S**2>=0.000
      56 -> 60         0.68411
      56 -> 63         0.10195
 This state for optimization and/or second-order correction.
 Total Energy, E(TD-HF/TD-KS) =  -782.495292623
 Copying the excited state density for this state as the 1-particle RhoCI density.

 Excited State   2:      Singlet-A      5.0023 eV  247.85 nm  f=0.0094  <S**2>=0.000
      57 -> 60         0.57216
      58 -> 61         0.12326
      59 -> 61         0.36668

 Excited State   3:      Singlet-A      5.0834 eV  243.90 nm  f=0.3670  <S**2>=0.000
      57 -> 61        -0.10500
      58 -> 60        -0.21697
      59 -> 60         0.65115

 Excited State   4:      Singlet-A      5.3193 eV  233.08 nm  f=0.1293  <S**2>=0.000
      57 -> 61        -0.11400
      58 -> 60         0.65956
      59 -> 60         0.20232

 Excited State   5:      Singlet-A      5.7244 eV  216.59 nm  f=0.0039  <S**2>=0.000
      55 -> 60         0.65934
      55 -> 62        -0.10603
      57 -> 60        -0.13934
      59 -> 61         0.15432

 Excited State   6:      Singlet-A      6.0379 eV  205.34 nm  f=0.0151  <S**2>=0.000
      55 -> 60         0.10284
      57 -> 60         0.13604
      58 -> 61         0.54889
      59 -> 61        -0.40359

 Excited State   7:      Singlet-A      6.2921 eV  197.05 nm  f=0.0518  <S**2>=0.000
      54 -> 60        -0.19208
      55 -> 60        -0.13549
      56 -> 61         0.42234
      57 -> 60        -0.24254
      58 -> 61         0.32418
      59 -> 61         0.28120

 Excited State   8:      Singlet-A      6.3245 eV  196.04 nm  f=0.0271  <S**2>=0.000
      54 -> 60         0.19662
      56 -> 61         0.55223
      57 -> 60         0.17863
      57 -> 61        -0.11244
      58 -> 61        -0.22221
      59 -> 61        -0.20149

 Excited State   9:      Singlet-A      6.5163 eV  190.27 nm  f=0.1452  <S**2>=0.000
      54 -> 60         0.58820
      55 -> 61         0.16066
      57 -> 60        -0.11258
      57 -> 61        -0.16316
      58 -> 61         0.13634
      59 -> 61         0.16228

 Excited State  10:      Singlet-A      6.5704 eV  188.70 nm  f=0.2073  <S**2>=0.000
      54 -> 60        -0.22275
      55 -> 61         0.50352
      57 -> 61        -0.39938

 The electronic state is 1-A.
 Alpha  occ. eigenvalues --  -19.20362 -19.18856 -19.12851 -19.12308 -14.37710
 Alpha  occ. eigenvalues --  -10.34064 -10.31016 -10.26185 -10.23768 -10.22817
 Alpha  occ. eigenvalues --  -10.22231 -10.20139 -10.20087 -10.19744 -10.19710
 Alpha  occ. eigenvalues --  -10.19433  -1.11371  -1.09629  -1.02237  -1.00653
 Alpha  occ. eigenvalues --   -0.94859  -0.86258  -0.77758  -0.75624  -0.73426
 Alpha  occ. eigenvalues --   -0.72704  -0.70390  -0.64356  -0.61840  -0.58042
 Alpha  occ. eigenvalues --   -0.56135  -0.53945  -0.52924  -0.49530  -0.49230
 Alpha  occ. eigenvalues --   -0.47687  -0.47449  -0.46161  -0.45356  -0.44766
 Alpha  occ. eigenvalues --   -0.43507  -0.43103  -0.42380  -0.41262  -0.41186
 Alpha  occ. eigenvalues --   -0.40864  -0.40016  -0.39189  -0.37807  -0.36598
 Alpha  occ. eigenvalues --   -0.35632  -0.34686  -0.32071  -0.29765  -0.27977
 Alpha  occ. eigenvalues --   -0.26902  -0.25654  -0.25281  -0.24045
 Alpha virt. eigenvalues --   -0.03977  -0.00572   0.04157   0.06943   0.08655
 Alpha virt. eigenvalues --    0.09528   0.11798   0.12473   0.13228   0.13780
 Alpha virt. eigenvalues --    0.14504   0.14851   0.15552   0.15959   0.16610

 Mulliken atomic charges:
              1
     1  C   -0.240539
     2  O   -0.431661
     3  C    0.561518
     4  O   -0.296716
     5  C    0.067745
     6  C   -0.210497
     7  C   -0.144271
     8  C    0.331263
     9  C   -0.173580
    10  C   -0.199076
    11  O   -0.560801
    12  C    0.781929
    13  O   -0.512476
    14  N   -0.435796
    15  C   -0.313741
    16  C   -0.316421
    17  H    0.187329
    18  H    0.178514
    19  H    0.179611
    20  H    0.127663
    21  H    0.149917
    22  H    0.128167
    23  H    0.131522
    24  H    0.199484
    25  H    0.152430
    26  H    0.152486
    27  H    0.203980
    28  H    0.150691
    29  H    0.151325
 Sum of Mulliken atomic charges =  -0.00000

 Dipole moment (field-independent basis, Debye):
    X=             -2.4723    Y=              2.2643    Z=              0.7323  Tot=              3.4316
 Quadrupole moment (field-independent basis, Debye-Ang):
   XX=            -47.2509   YY=            -92.1363   ZZ=            -94.5050
   XY=              1.5281   XZ=              4.8521   YZ=             -2.9065

 Summary of Natural Population Analysis:

                                       Natural Population
                Natural  -----------------------------------------------
    Atom  No    Charge         Core      Valence    Rydberg      Total
 -----------------------------------------------------------------------
      C    1   -0.32727      1.99943     4.31361    0.01423     6.32727
      O    2   -0.47838      1.99977     6.46797    0.01064     8.47838
      C    3    0.66763      1.99931     3.29497    0.03810     5.33237
      O    4   -0.25102      1.99981     6.23268    0.01853     8.25102
      C    5   -0.21731      1.99888     4.20228    0.01615     6.21731
      C    6   -0.23430      1.99907     4.22134    0.01389     6.23430
      C    7   -0.26023      1.99902     4.24766    0.01355     6.26023
      C    8    0.25622      1.99873     3.72315    0.02190     5.74378
      C    9   -0.25937      1.99902     4.24620    0.01415     6.25937
      C   10   -0.23771      1.99904     4.22444    0.01423     6.23771
      O   11   -0.56222      1.99969     6.55227    0.01026     8.56222
      C   12    0.94370      1.99937     3.01192    0.04502     5.05630
      O   13   -0.64920      1.99978     6.63036    0.01906     8.64920
      N   14   -0.49030      1.99932     5.48004    0.01095     7.49030
      C   15   -0.46933      1.99946     4.45840    0.01147     6.46933
      C   16   -0.46800      1.99947     4.45679    0.01174     6.46800
      H   17    0.23537      0.00000     0.76428    0.00035     0.76463
      H   18    0.21705      0.00000     0.78161    0.00134     0.78295
      H   19    0.21779      0.00000     0.78088    0.00134     0.78221
      H   20    0.23263      0.00000     0.76688    0.00048     0.76737
      H   21    0.25663      0.00000     0.74222    0.00115     0.74337
      H   22    0.24272      0.00000     0.75611    0.00117     0.75728
      H   23    0.24230      0.00000     0.75685    0.00085     0.75770
      H   24    0.25815      0.00000     0.74093    0.00092     0.74185
      H   25    0.21732      0.00000     0.78101    0.00167     0.78268
      H   26    0.22012      0.00000     0.77841    0.00147     0.77988
      H   27    0.26245      0.00000     0.73596    0.00159     0.73755
      H   28    0.21791      0.00000     0.78074    0.00134     0.78209
      H   29    0.21665      0.00000     0.78187    0.00148     0.78335
 =======================================================================
   * Total *   -0.00000     31.98915    85.71184    0.29901   118.00000

 Normal termination of Gaussian 09 at Thu Sep 30 07:40:15 2021.
