 Gaussian 09, Revision A.02,

 -----------------------------------
 #p opt b3lyp/6-31G* scf=(xqc,tight)
 -----------------------------------

 --------------------------------
 O=C(C(C)(C)C)Oc1ccc(cc1)F_conf_0
 --------------------------------
 Symbolic Z-matrix:
 Charge =  0 Multiplicity = 1

 SCF Done:  E(RB3LYP) =  -677.295607163     A.U. after   15 cycles
 SCF Done:  E(RB3LYP) =  -677.298115104     A.U. after   12 cycles
 SCF Done:  E(RB3LYP) =  -677.297411012     A.U. after   16 cycles
 SCF Done:  E(RB3LYP) =  -677.298485152     A.U. after   16 cycles
 SCF Done:  E(RB3LYP) =  -677.298578695     A.U. after   16 cycles
 SCF Done:  E(RB3LYP) =  -677.298956025     A.U. after   11 cycles
 SCF Done:  E(RB3LYP) =  -677.299207499     A.U. after   12 cycles
 SCF Done:  E(RB3LYP) =  -677.299363311     A.U. after   16 cycles
 SCF Done:  E(RB3LYP) =  -677.299447519     A.U. after   11 cycles
 SCF Done:  E(RB3LYP) =  -677.299505054     A.U. after   12 cycles
 SCF Done:  E(RB3LYP) =  -677.299526070     A.U. after   11 cycles
 SCF Done:  E(RB3LYP) =  -677.299532895     A.U. after   10 cycles
 SCF Done:  E(RB3LYP) =  -677.299542509     A.U. after   11 cycles
 SCF Done:  E(RB3LYP) =  -677.299545233     A.U. after   10 cycles
 SCF Done:  E(RB3LYP) =  -677.299545812     A.U. after    7 cycles
 Optimization completed.
    -- Stationary point found.
 Normal termination of Gaussian 09 at Wed Sep 29 04:12:34 2021.

 ----------------------------------------------------------------------
 #p freq b3lyp/6-31G* volume NMR pop=NPA density=current Geom=AllCheck
 Guess=Read
 ----------------------------------------------------------------------

 O=C(C(C)(C)C)Oc1ccc(cc1)F_conf_0
 --------------------------------
 Redundant internal coordinates taken from checkpoint file:
 C11H13FO2_c2c1_conf_0.chk
 Charge =  0 Multiplicity = 1

 SCF Done:  E(RB3LYP) =  -677.299545812     A.U. after    1 cycles

  1  O    Isotropic =   -62.2316   Anisotropy =   576.3103

  2  C    Isotropic =    22.6835   Anisotropy =    76.8686

  3  C    Isotropic =   148.9732   Anisotropy =    23.9548

  4  C    Isotropic =   162.1974   Anisotropy =    38.0804

  5  C    Isotropic =   162.2014   Anisotropy =    37.2566

  6  C    Isotropic =   162.9012   Anisotropy =    31.2613

  7  O    Isotropic =   111.6071   Anisotropy =   164.0921

  8  C    Isotropic =    49.6334   Anisotropy =   107.1481

  9  C    Isotropic =    71.3671   Anisotropy =   154.5517

 10  C    Isotropic =    79.7394   Anisotropy =   137.4011

 11  C    Isotropic =    36.5678   Anisotropy =    95.1849

 12  C    Isotropic =    79.7965   Anisotropy =   137.7311

 13  C    Isotropic =    74.6319   Anisotropy =   140.9179

 14  F    Isotropic =   302.0655   Anisotropy =   108.0564

 15  H    Isotropic =    30.4064   Anisotropy =     7.3561

 16  H    Isotropic =    30.8885   Anisotropy =     8.0523

 17  H    Isotropic =    31.1060   Anisotropy =     7.8705

 18  H    Isotropic =    30.4631   Anisotropy =     6.2911

 19  H    Isotropic =    31.1062   Anisotropy =     7.8089

 20  H    Isotropic =    30.8746   Anisotropy =     8.1348

 21  H    Isotropic =    30.6761   Anisotropy =     7.9506

 22  H    Isotropic =    30.6627   Anisotropy =     8.1590

 23  H    Isotropic =    31.4826   Anisotropy =     7.7682

 24  H    Isotropic =    24.9030   Anisotropy =     8.6620

 25  H    Isotropic =    25.4205   Anisotropy =     4.4841

 26  H    Isotropic =    25.4300   Anisotropy =     4.4175

 27  H    Isotropic =    25.4041   Anisotropy =     6.7994

  Exact polarizability: 158.769  -0.538 116.187   2.186  -5.953  75.118
 Approx polarizability: 213.629   1.639 195.209   6.559  -7.114 112.994

                     1                      2                      3
                     A                      A                      A
 Frequencies --    22.7625                43.3960                45.3721
 Red. masses --     3.3227                 4.5972                 7.4822
 Frc consts  --     0.0010                 0.0051                 0.0091
 IR Inten    --     0.0802                 0.4571                 0.4290

                     4                      5                      6
                     A                      A                      A
 Frequencies --    89.4779               167.0664               199.3613
 Red. masses --     5.8640                 4.8213                 1.3545
 Frc consts  --     0.0277                 0.0793                 0.0317
 IR Inten    --     0.6423                 0.8246                 0.1667

                     7                      8                      9
                     A                      A                      A
 Frequencies --   208.7132               230.2548               259.9220
 Red. masses --     2.5855                 1.7402                 1.0645
 Frc consts  --     0.0664                 0.0544                 0.0424
 IR Inten    --     0.4336                 0.7587                 0.1897

                    10                     11                     12
                     A                      A                      A
 Frequencies --   273.3060               298.1439               346.4276
 Red. masses --     1.4413                 2.8978                 4.0239
 Frc consts  --     0.0634                 0.1518                 0.2845
 IR Inten    --     0.2658                 3.4446                 2.3216

                    13                     14                     15
                     A                      A                      A
 Frequencies --   354.8150               374.0150               391.8480
 Red. masses --     3.7217                 2.8194                 5.2208
 Frc consts  --     0.2761                 0.2324                 0.4723
 IR Inten    --     7.4787                 1.5779                 1.8269

                    16                     17                     18
                     A                      A                      A
 Frequencies --   430.0668               431.2053               451.6532
 Red. masses --     3.6710                 3.3615                 4.3647
 Frc consts  --     0.4000                 0.3683                 0.5246
 IR Inten    --     1.8090                 1.8934                 2.6127

                    19                     20                     21
                     A                      A                      A
 Frequencies --   524.8514               533.5986               595.8923
 Red. masses --     2.7881                 5.4707                 3.5442
 Frc consts  --     0.4525                 0.9178                 0.7415
 IR Inten    --     6.1114                10.3764                 0.9242

                    22                     23                     24
                     A                      A                      A
 Frequencies --   647.8808               698.2851               758.8534
 Red. masses --     7.0225                 4.8152                 6.7736
 Frc consts  --     1.7367                 1.3833                 2.2982
 IR Inten    --     0.5594                 1.0788                 3.2557

                    25                     26                     27
                     A                      A                      A
 Frequencies --   767.2685               806.8779               815.7368
 Red. masses --     5.7680                 2.9687                 1.2844
 Frc consts  --     2.0006                 1.1388                 0.5036
 IR Inten    --    21.6910                 9.8495                 0.4776

                    28                     29                     30
                     A                      A                      A
 Frequencies --   846.7162               871.0179               904.8414
 Red. masses --     2.0164                 5.2180                 3.1348
 Frc consts  --     0.8517                 2.3324                 1.5122
 IR Inten    --    32.1285                 9.9382                17.0223

                    31                     32                     33
                     A                      A                      A
 Frequencies --   939.7766               947.8682               948.1675
 Red. masses --     1.3692                 1.3157                 1.7537
 Frc consts  --     0.7125                 0.6965                 0.9289
 IR Inten    --     1.1559                 0.4617                 1.5127

                    34                     35                     36
                     A                      A                      A
 Frequencies --   956.6032               980.9174              1034.7536
 Red. masses --     1.6322                 1.1979                 2.5019
 Frc consts  --     0.8800                 0.6791                 1.5783
 IR Inten    --     2.9392                 0.0067                 5.3427

                    37                     38                     39
                     A                      A                      A
 Frequencies --  1058.5046              1060.5079              1124.3802
 Red. masses --     1.4681                 1.4315                 1.2439
 Frc consts  --     0.9691                 0.9486                 0.9266
 IR Inten    --    37.2230                 0.6233                11.4853

                    40                     41                     42
                     A                      A                      A
 Frequencies --  1146.0942              1182.5639              1225.9531
 Red. masses --     3.9934                 1.1416                 3.4952
 Frc consts  --     3.0906                 0.9406                 3.0951
 IR Inten    --   500.6605                 2.6296               363.0226

                    43                     44                     45
                     A                      A                      A
 Frequencies --  1242.8829              1263.9161              1290.8357
 Red. masses --     2.6728                 2.8337                 6.4283
 Frc consts  --     2.4326                 2.6671                 6.3109
 IR Inten    --     2.5044                23.3831                 9.7416

                    46                     47                     48
                     A                      A                      A
 Frequencies --  1308.6579              1321.4979              1352.2286
 Red. masses --     3.1438                 1.2952                11.2843
 Frc consts  --     3.1722                 1.3326                12.1569
 IR Inten    --    40.1710                 0.3946                 6.7952

                    49                     50                     51
                     A                      A                      A
 Frequencies --  1422.0877              1430.0636              1458.5341
 Red. masses --     1.2081                 1.2319                 1.2396
 Frc consts  --     1.4395                 1.4844                 1.5536
 IR Inten    --     3.9218                 4.3820                13.7936

                    52                     53                     54
                     A                      A                      A
 Frequencies --  1459.4683              1507.3062              1515.3626
 Red. masses --     3.2584                 1.0484                 1.0451
 Frc consts  --     4.0893                 1.4034                 1.4140
 IR Inten    --     0.5837                 0.0429                 0.1754

                    55                     56                     57
                     A                      A                      A
 Frequencies --  1520.8830              1528.8517              1531.5197
 Red. masses --     1.0452                 1.0494                 1.0543
 Frc consts  --     1.4244                 1.4451                 1.4570
 IR Inten    --     0.0584                 5.6911                 8.9181

                    58                     59                     60
                     A                      A                      A
 Frequencies --  1549.9157              1557.1256              1657.5602
 Red. masses --     1.1155                 2.4233                 7.4784
 Frc consts  --     1.5788                 3.4618                12.1060
 IR Inten    --    80.4149               167.1004                 1.6689

                    61                     62                     63
                     A                      A                      A
 Frequencies --  1669.1735              1831.6326              3050.4753
 Red. masses --     6.2816                12.6857                 1.0356
 Frc consts  --    10.3115                25.0750                 5.6778
 IR Inten    --     6.4316               181.3207                27.7489

                    64                     65                     66
                     A                      A                      A
 Frequencies --  3052.7662              3061.8000              3114.0813
 Red. masses --     1.0361                 1.0366                 1.1032
 Frc consts  --     5.6892                 5.7253                 6.3031
 IR Inten    --    10.7442                25.2677                11.6967

                    67                     68                     69
                     A                      A                      A
 Frequencies --  3116.1798              3129.3653              3139.0460
 Red. masses --     1.1024                 1.1018                 1.1026
 Frc consts  --     6.3071                 6.3570                 6.4014
 IR Inten    --    22.8836                39.5178                 8.7640

                    70                     71                     72
                     A                      A                      A
 Frequencies --  3140.2544              3143.7733              3215.5332
 Red. masses --     1.1020                 1.1010                 1.0887
 Frc consts  --     6.4025                 6.4112                 6.6323
 IR Inten    --    16.2367                41.6666                 5.9493

                    73                     74                     75
                     A                      A                      A
 Frequencies --  3223.9880              3230.3537              3251.6526
 Red. masses --     1.0906                 1.0952                 1.0936
 Frc consts  --     6.6791                 6.7336                 6.8129
 IR Inten    --     3.8122                 3.2645                 1.0800

 - Thermochemistry -
 -------------------
 Temperature   298.150 Kelvin.  Pressure   1.00000 Atm.
 Atom     1 has atomic number  8 and mass  15.99491

 Molecular mass:   196.08996 amu.
 Principal axes and moments of inertia in atomic units:
                           1         2         3
     Eigenvalues --   897.567695891.696346240.77912
           X            1.00000   0.00227   0.00153
           Y           -0.00220   0.99907  -0.04315
           Z           -0.00163   0.04315   0.99907
 This molecule is an asymmetric top.
 Rotational symmetry number  1.
 Warning -- assumption of classical behavior for rotation
           may cause significant error
 Rotational temperatures (Kelvin)      0.09650     0.01470     0.01388
 Rotational constants (GHZ):           2.01070     0.30632     0.28919
 Zero-point vibrational energy     575909.1 (Joules/Mol)
                                  137.64559 (Kcal/Mol)
 Warning -- explicit consideration of  21 degrees of freedom as
           vibrations may cause significant error
 Vibrational temperatures:     32.75    62.44    65.28   128.74   240.37
          (Kelvin)            286.84   300.29   331.28   373.97   393.23
                              428.96   498.43   510.50   538.12   563.78
                              618.77   620.41   649.83   755.14   767.73
                              857.36   932.15  1004.68  1091.82  1103.93
                             1160.92  1173.66  1218.23  1253.20  1301.86
                             1352.13  1363.77  1364.20  1376.34  1411.32
                             1488.78  1522.95  1525.83  1617.73  1648.97
                             1701.44  1763.87  1788.23  1818.49  1857.22
                             1882.86  1901.34  1945.55  2046.06  2057.54
                             2098.50  2099.85  2168.67  2180.27  2188.21
                             2199.67  2203.51  2229.98  2240.35  2384.86
                             2401.57  2635.31  4388.95  4392.24  4405.24
                             4480.46  4483.48  4502.45  4516.38  4518.12
                             4523.18  4626.43  4638.59  4647.75  4678.40

 Zero-point correction=                           0.219352 (Hartree/Particle)
 Thermal correction to Energy=                    0.233156
 Thermal correction to Enthalpy=                  0.234100
 Thermal correction to Gibbs Free Energy=         0.177657
 Sum of electronic and zero-point Energies=           -677.080194
 Sum of electronic and thermal Energies=              -677.066390
 Sum of electronic and thermal Enthalpies=            -677.065445
 Sum of electronic and thermal Free Energies=         -677.121889

                     E (Thermal)             CV                S
                      KCal/Mol        Cal/Mol-Kelvin    Cal/Mol-Kelvin
 Total                  146.308             52.039            118.795
 Electronic               0.000              0.000              0.000
 Translational            0.889              2.981             41.725
 Rotational               0.889              2.981             31.868
 Vibrational            144.530             46.078             45.202
 Vibration     1          0.593              1.985              6.377
 Vibration     2          0.595              1.980              5.098
 Vibration     3          0.595              1.979              5.010
 Vibration     4          0.602              1.957              3.671
 Vibration     5          0.624              1.883              2.468
 Vibration     6          0.637              1.841              2.139
 Vibration     7          0.642              1.827              2.055
 Vibration     8          0.652              1.795              1.877
 Vibration     9          0.668              1.746              1.662
 Vibration    10          0.676              1.723              1.575
 Vibration    11          0.691              1.677              1.427
 Vibration    12          0.724              1.583              1.182
 Vibration    13          0.731              1.565              1.145
 Vibration    14          0.745              1.525              1.063
 Vibration    15          0.759              1.488              0.993
 Vibration    16          0.791              1.405              0.858
 Vibration    17          0.792              1.402              0.855
 Vibration    18          0.810              1.357              0.791
 Vibration    19          0.880              1.195              0.599
 Vibration    20          0.889              1.176              0.579
 Vibration    21          0.954              1.041              0.457

 Optimization completed.
    -- Stationary point found.
 Normal termination of Gaussian 09 at Wed Sep 29 05:02:31 2021.
 Gaussian 09:  AM64L-G09RevA.02 11-Jun-2009

 ----------------------------------------------------------------------
 #p TD(NStates=10, Root=1) b3lyp/6-31G* volume pop=NPA density=current
 Geom=AllCheck Guess=Read
 ----------------------------------------------------------------------

 O=C(C(C)(C)C)Oc1ccc(cc1)F_conf_0
 --------------------------------
 Redundant internal coordinates taken from checkpoint file:
 C11H13FO2_c2c1_conf_0.chk
 Charge =  0 Multiplicity = 1

                         Standard orientation:
 ---------------------------------------------------------------------
 Center     Atomic      Atomic             Coordinates (Angstroms)
 Number     Number       Type             X           Y           Z
 ---------------------------------------------------------------------
      1          8           0        1.169999   -1.350962   -0.930957
      2          6           0        1.471293   -0.389792   -0.266236
      3          6           0        2.895838    0.084595    0.038363
      4          6           0        3.083529    1.512766   -0.521774
      5          6           0        3.109658    0.091682    1.568773
      6          6           0        3.885660   -0.881462   -0.631642
      7          8           0        0.550253    0.439477    0.328390
      8          6           0       -0.818823    0.216518    0.171989
      9          6           0       -1.410205   -1.026899    0.400180
     10          6           0       -2.795749   -1.150815    0.301847
     11          6           0       -3.557069   -0.031403   -0.015089
     12          6           0       -2.978360    1.212406   -0.237810
     13          6           0       -1.592343    1.332271   -0.143860
     14          9           0       -4.898269   -0.156092   -0.106552
     15          1           0        2.392703    2.219409   -0.053593
     16          1           0        2.922182    1.538520   -1.605662
     17          1           0        4.107448    1.851636   -0.326901
     18          1           0        2.416067    0.774946    2.066449
     19          1           0        4.132848    0.413479    1.794124
     20          1           0        2.971849   -0.909463    1.993501
     21          1           0        3.739893   -0.910804   -1.715543
     22          1           0        3.762162   -1.901091   -0.254228
     23          1           0        4.912761   -0.558702   -0.427923
     24          1           0       -0.799447   -1.887579    0.640866
     25          1           0       -3.287676   -2.103200    0.468839
     26          1           0       -3.605720    2.063554   -0.480066
     27          1           0       -1.103228    2.286801   -0.308803
 ---------------------------------------------------------------------

 SCF Done:  E(RB3LYP) =  -677.299545812     A.U. after    1 cycles

 Excitation energies and oscillator strengths:

 Excited State   1:      Singlet-A      5.2493 eV  236.19 nm  f=0.0177  <S**2>=0.000
      51 -> 54        -0.33576
      51 -> 55        -0.13972
      52 -> 53         0.59812
 This state for optimization and/or second-order correction.
 Total Energy, E(TD-HF/TD-KS) =  -677.106636330
 Copying the excited state density for this state as the 1-particle RhoCI density.

 Excited State   2:      Singlet-A      5.5035 eV  225.28 nm  f=0.0569  <S**2>=0.000
      50 -> 54         0.42142
      50 -> 55        -0.19824
      51 -> 54         0.22303
      51 -> 55        -0.16727
      52 -> 54         0.41093
      52 -> 55        -0.13947

 Excited State   3:      Singlet-A      5.6090 eV  221.04 nm  f=0.0818  <S**2>=0.000
      50 -> 54        -0.31919
      50 -> 55         0.13812
      51 -> 53         0.13869
      51 -> 54        -0.22082
      51 -> 55         0.11740
      52 -> 54         0.51663
      52 -> 55        -0.13659

 Excited State   4:      Singlet-A      6.2402 eV  198.69 nm  f=0.0248  <S**2>=0.000
      50 -> 53         0.32197
      51 -> 53         0.49297
      52 -> 55         0.37517

 Excited State   5:      Singlet-A      6.4146 eV  193.28 nm  f=0.0366  <S**2>=0.000
      50 -> 53         0.54478
      52 -> 54        -0.13085
      52 -> 55        -0.42446

 Excited State   6:      Singlet-A      6.5249 eV  190.02 nm  f=0.0500  <S**2>=0.000
      50 -> 54        -0.36137
      50 -> 55         0.15940
      51 -> 54         0.45720
      51 -> 55        -0.30237
      52 -> 53         0.19406

 Excited State   7:      Singlet-A      6.8335 eV  181.44 nm  f=0.0381  <S**2>=0.000
      50 -> 54         0.23464
      50 -> 55         0.50369
      51 -> 54         0.18815
      51 -> 55         0.35507

 Excited State   8:      Singlet-A      7.0993 eV  174.64 nm  f=0.5887  <S**2>=0.000
      49 -> 54         0.29472
      50 -> 53        -0.27584
      51 -> 53         0.43947
      52 -> 54        -0.16846
      52 -> 55        -0.31047

 Excited State   9:      Singlet-A      7.2688 eV  170.57 nm  f=0.0715  <S**2>=0.000
      49 -> 53         0.53594
      50 -> 54         0.10317
      50 -> 55         0.26309
      51 -> 55        -0.28438
      52 -> 53        -0.15719

 Excited State  10:      Singlet-A      7.5622 eV  163.95 nm  f=0.0225  <S**2>=0.000
      49 -> 53        -0.10923
      51 -> 55        -0.10388
      52 -> 56        -0.42337
      52 -> 57         0.52480

 The electronic state is 1-A.
 Alpha  occ. eigenvalues --  -24.70429 -19.20429 -19.14481 -10.32064 -10.27378
 Alpha  occ. eigenvalues --  -10.25690 -10.21791 -10.20518 -10.20421 -10.20292
 Alpha  occ. eigenvalues --  -10.20204 -10.18612 -10.18588 -10.17753  -1.21576
 Alpha  occ. eigenvalues --   -1.11074  -1.02814  -0.86755  -0.82746  -0.76479
 Alpha  occ. eigenvalues --   -0.75607  -0.69556  -0.69087  -0.66411  -0.63570
 Alpha  occ. eigenvalues --   -0.59909  -0.56222  -0.54128  -0.50672  -0.48943
 Alpha  occ. eigenvalues --   -0.48565  -0.46246  -0.45799  -0.45611  -0.43961
 Alpha  occ. eigenvalues --   -0.43877  -0.43612  -0.42798  -0.40774  -0.39892
 Alpha  occ. eigenvalues --   -0.39456  -0.38373  -0.37203  -0.36592  -0.35705
 Alpha  occ. eigenvalues --   -0.35121  -0.33827  -0.33779  -0.32023  -0.27710
 Alpha  occ. eigenvalues --   -0.26256  -0.23742
 Alpha virt. eigenvalues --   -0.01439  -0.01104   0.01756   0.07838   0.08258
 Alpha virt. eigenvalues --    0.12295   0.12951   0.14328   0.14676   0.14813
 Alpha virt. eigenvalues --    0.15476   0.15649   0.16014   0.17027   0.18527

 Mulliken atomic charges:
              1
     1  O   -0.449220
     2  C    0.627815
     3  C   -0.010345
     4  C   -0.451745
     5  C   -0.452667
     6  C   -0.434812
     7  O   -0.508861
     8  C    0.348647
     9  C   -0.154540
    10  C   -0.222564
    11  C    0.385760
    12  C   -0.220247
    13  C   -0.176168
    14  F   -0.269806
    15  H    0.162099
    16  H    0.154124
    17  H    0.150948
    18  H    0.165091
    19  H    0.151165
    20  H    0.152248
    21  H    0.158721
    22  H    0.156402
    23  H    0.139570
    24  H    0.155518
    25  H    0.149796
    26  H    0.147870
    27  H    0.145198
 Sum of Mulliken atomic charges =  -0.00000

 Dipole moment (field-independent basis, Debye):
    X=              1.8704    Y=              1.3737    Z=              1.0017  Tot=              2.5276
 Quadrupole moment (field-independent basis, Debye-Ang):
   XX=            -79.3414   YY=            -79.3886   ZZ=            -83.6952
   XY=              1.4047   XZ=              1.2977   YZ=             -4.0915

 Summary of Natural Population Analysis:

                                       Natural Population
                Natural  -----------------------------------------------
    Atom  No    Charge         Core      Valence    Rydberg      Total
 -----------------------------------------------------------------------
      O    1   -0.55829      1.99977     6.53845    0.02006     8.55829
      C    2    0.82920      1.99927     3.12278    0.04875     5.17080
      C    3   -0.15066      1.99905     4.13927    0.01234     6.15066
      C    4   -0.66980      1.99938     4.66060    0.00982     6.66980
      C    5   -0.67060      1.99938     4.66143    0.00979     6.67060
      C    6   -0.67041      1.99939     4.65992    0.01110     6.67041
      O    7   -0.51375      1.99969     6.50276    0.01130     8.51375
      C    8    0.33325      1.99873     3.64463    0.02339     5.66675
      C    9   -0.29440      1.99905     4.27708    0.01827     6.29440
      C   10   -0.31853      1.99904     4.29997    0.01952     6.31853
      C   11    0.45042      1.99846     3.52331    0.02781     5.54958
      C   12   -0.33010      1.99904     4.31142    0.01964     6.33010
      C   13   -0.27910      1.99905     4.26126    0.01878     6.27910
      F   14   -0.30139      1.99994     7.29586    0.00558     9.30139
      H   15    0.24259      0.00000     0.75630    0.00111     0.75741
      H   16    0.23756      0.00000     0.76154    0.00090     0.76244
      H   17    0.23632      0.00000     0.76264    0.00103     0.76368
      H   18    0.24430      0.00000     0.75468    0.00103     0.75570
      H   19    0.23662      0.00000     0.76227    0.00111     0.76338
      H   20    0.23665      0.00000     0.76242    0.00092     0.76335
      H   21    0.24424      0.00000     0.75474    0.00103     0.75576
      H   22    0.24288      0.00000     0.75610    0.00102     0.75712
      H   23    0.23146      0.00000     0.76765    0.00089     0.76854
      H   24    0.25268      0.00000     0.74631    0.00102     0.74732
      H   25    0.24751      0.00000     0.75133    0.00117     0.75249
      H   26    0.24704      0.00000     0.75181    0.00116     0.75296
      H   27    0.24432      0.00000     0.75455    0.00114     0.75568
 =======================================================================
   * Total *   -0.00000     27.98924    75.74108    0.26968   104.00000

 Normal termination of Gaussian 09 at Wed Sep 29 08:59:56 2021.
