 Gaussian 09, Revision A.02,

 -----------------------------------
 #p opt b3lyp/6-31G* scf=(xqc,tight)
 -----------------------------------

 -------------------------------
 COc1cc(cc(c1OC)OC)C(=O)C_conf_0
 -------------------------------
 Symbolic Z-matrix:
 Charge =  0 Multiplicity = 1

 SCF Done:  E(RB3LYP) =  -728.442571380     A.U. after   15 cycles
 SCF Done:  E(RB3LYP) =  -728.447427848     A.U. after   13 cycles
 SCF Done:  E(RB3LYP) =  -728.448662311     A.U. after   14 cycles
 SCF Done:  E(RB3LYP) =  -728.449416270     A.U. after   13 cycles
 SCF Done:  E(RB3LYP) =  -728.449629316     A.U. after   12 cycles
 SCF Done:  E(RB3LYP) =  -728.449839122     A.U. after   12 cycles
 SCF Done:  E(RB3LYP) =  -728.449937498     A.U. after   12 cycles
 SCF Done:  E(RB3LYP) =  -728.450008233     A.U. after   11 cycles
 SCF Done:  E(RB3LYP) =  -728.450103352     A.U. after   12 cycles
 SCF Done:  E(RB3LYP) =  -728.450118760     A.U. after   10 cycles
 SCF Done:  E(RB3LYP) =  -728.450123751     A.U. after    9 cycles
 SCF Done:  E(RB3LYP) =  -728.450128871     A.U. after   10 cycles
 SCF Done:  E(RB3LYP) =  -728.450129470     A.U. after    8 cycles
 SCF Done:  E(RB3LYP) =  -728.450129589     A.U. after    7 cycles
 Optimization completed.
    -- Stationary point found.
 Normal termination of Gaussian 09 at Mon Oct  4 08:43:18 2021.

 ----------------------------------------------------------------------
 #p freq b3lyp/6-31G* volume NMR pop=NPA density=current Geom=AllCheck
 Guess=Read
 ----------------------------------------------------------------------

 COc1cc(cc(c1OC)OC)C(=O)C_conf_0
 -------------------------------
 Redundant internal coordinates taken from checkpoint file:
 C11H14O4_d9e1_conf_0.chk
 Charge =  0 Multiplicity = 1

 SCF Done:  E(RB3LYP) =  -728.450129589     A.U. after    1 cycles

  1  C    Isotropic =   133.2038   Anisotropy =    68.5152

  2  O    Isotropic =   238.0256   Anisotropy =    66.8367

  3  C    Isotropic =    46.3141   Anisotropy =   116.4422

  4  C    Isotropic =    79.7790   Anisotropy =   123.5201

  5  C    Isotropic =    64.3908   Anisotropy =   151.7167

  6  C    Isotropic =    91.7537   Anisotropy =   140.7109

  7  C    Isotropic =    41.4947   Anisotropy =   112.4341

  8  C    Isotropic =    54.8365   Anisotropy =    92.7612

  9  O    Isotropic =   281.6386   Anisotropy =   105.7287

 10  C    Isotropic =   131.9733   Anisotropy =    79.8702

 11  O    Isotropic =   244.1339   Anisotropy =    97.4454

 12  C    Isotropic =   136.7151   Anisotropy =    67.1244

 13  C    Isotropic =     3.7160   Anisotropy =   152.4584

 14  O    Isotropic =  -260.0428   Anisotropy =   922.6444

 15  C    Isotropic =   164.0262   Anisotropy =    39.5581

 16  H    Isotropic =    28.4759   Anisotropy =     8.2492

 17  H    Isotropic =    27.6095   Anisotropy =     6.8005

 18  H    Isotropic =    28.2242   Anisotropy =     6.3763

 19  H    Isotropic =    25.5206   Anisotropy =     8.7518

 20  H    Isotropic =    25.2476   Anisotropy =     8.4248

 21  H    Isotropic =    27.7706   Anisotropy =     6.8151

 22  H    Isotropic =    29.0208   Anisotropy =     7.5307

 23  H    Isotropic =    28.5609   Anisotropy =     8.7831

 24  H    Isotropic =    28.5498   Anisotropy =     8.6537

 25  H    Isotropic =    28.5044   Anisotropy =     8.5274

 26  H    Isotropic =    28.2406   Anisotropy =     8.4320

 27  H    Isotropic =    29.7461   Anisotropy =     4.2267

 28  H    Isotropic =    30.3974   Anisotropy =     6.6485

 29  H    Isotropic =    29.7356   Anisotropy =     4.3490

  Exact polarizability: 175.632   2.002 152.850  -0.116   0.179  70.574
 Approx polarizability: 254.408  11.832 236.423   5.740   1.025 106.870

 ******    1 imaginary frequencies (negative Signs) ******

                     1                      2                      3
                     A                      A                      A
 Frequencies --   -43.7572                57.3203                69.3956
 Red. masses --     2.9324                 4.0747                 3.7752
 Frc consts  --     0.0033                 0.0079                 0.0107
 IR Inten    --     2.8026                 6.6261                 0.2843

                     4                      5                      6
                     A                      A                      A
 Frequencies --    90.3768               113.3842               141.8703
 Red. masses --     3.8601                 1.2835                 2.6350
 Frc consts  --     0.0186                 0.0097                 0.0312
 IR Inten    --     1.6271                 0.5931                 2.2615

                     7                      8                      9
                     A                      A                      A
 Frequencies --   154.4472               156.7842               158.6375
 Red. masses --     2.4224                 1.4583                 2.2620
 Frc consts  --     0.0340                 0.0211                 0.0335
 IR Inten    --     3.7830                 4.1608                 2.1239

                    10                     11                     12
                     A                      A                      A
 Frequencies --   197.8745               218.5731               231.3565
 Red. masses --     3.5198                 1.7585                 2.6942
 Frc consts  --     0.0812                 0.0495                 0.0850
 IR Inten    --     1.6874                 0.0725                 2.0829

                    13                     14                     15
                     A                      A                      A
 Frequencies --   255.7229               283.7996               294.2980
 Red. masses --     1.2608                 1.7687                 3.0164
 Frc consts  --     0.0486                 0.0839                 0.1539
 IR Inten    --     1.1432                 0.5927                 2.7871

                    16                     17                     18
                     A                      A                      A
 Frequencies --   325.4727               337.0274               379.1653
 Red. masses --     5.5315                 6.3240                 4.8004
 Frc consts  --     0.3452                 0.4232                 0.4066
 IR Inten    --     5.1298                 1.4822                 7.2633

                    19                     20                     21
                     A                      A                      A
 Frequencies --   422.1400               452.8210               489.2016
 Red. masses --     4.5183                 5.0937                 5.3518
 Frc consts  --     0.4744                 0.6154                 0.7546
 IR Inten    --     3.6908                 4.4221                 3.7036

                    22                     23                     24
                     A                      A                      A
 Frequencies --   539.0219               557.6791               598.3066
 Red. masses --     3.9637                 5.5014                 4.5281
 Frc consts  --     0.6785                 1.0081                 0.9550
 IR Inten    --     3.3885                 3.2185                 0.2031

                    25                     26                     27
                     A                      A                      A
 Frequencies --   611.2870               663.8641               685.2092
 Red. masses --     4.2582                 3.0599                 4.4702
 Frc consts  --     0.9375                 0.7945                 1.2366
 IR Inten    --    37.4848                 6.6576                 3.4121

                    28                     29                     30
                     A                      A                      A
 Frequencies --   715.1946               763.9100               862.4859
 Red. masses --     6.9622                 5.0750                 1.3592
 Frc consts  --     2.0982                 1.7449                 0.5957
 IR Inten    --     2.7736                10.0714                20.1358

                    31                     32                     33
                     A                      A                      A
 Frequencies --   875.5171               897.6853               946.6178
 Red. masses --     1.3637                 6.4492                 5.6751
 Frc consts  --     0.6159                 3.0620                 2.9962
 IR Inten    --    15.1862                 4.4865                37.2591

                    34                     35                     36
                     A                      A                      A
 Frequencies --   996.0551              1035.8835              1054.1644
 Red. masses --     2.0464                 7.9766                 1.8458
 Frc consts  --     1.1962                 5.0430                 1.2085
 IR Inten    --    14.8730                69.4022                 1.5022

                    37                     38                     39
                     A                      A                      A
 Frequencies --  1081.1905              1116.6979              1158.2599
 Red. masses --     6.2205                 1.8115                 4.0216
 Frc consts  --     4.2843                 1.3310                 3.1788
 IR Inten    --    36.8703                20.0806               253.5224

                    40                     41                     42
                     A                      A                      A
 Frequencies --  1179.3255              1181.3772              1184.8349
 Red. masses --     1.2559                 1.2537                 1.2688
 Frc consts  --     1.0291                 1.0309                 1.0494
 IR Inten    --     1.9879                 7.4137                 1.1334

                    43                     44                     45
                     A                      A                      A
 Frequencies --  1208.0151              1217.8944              1234.0214
 Red. masses --     1.6772                 1.3531                 1.5739
 Frc consts  --     1.4420                 1.1825                 1.4121
 IR Inten    --    43.7380                19.0955                86.1050

                    46                     47                     48
                     A                      A                      A
 Frequencies --  1249.3358              1267.9841              1272.1864
 Red. masses --     3.2019                 1.5619                 2.7759
 Frc consts  --     2.9446                 1.4795                 2.6470
 IR Inten    --   131.0918               113.3232                 9.9124

                    49                     50                     51
                     A                      A                      A
 Frequencies --  1333.5519              1399.5416              1409.5141
 Red. masses --     7.6964                 4.5057                 1.4599
 Frc consts  --     8.0642                 5.1998                 1.7089
 IR Inten    --   165.2656               200.0843                97.1250

                    52                     53                     54
                     A                      A                      A
 Frequencies --  1452.9360              1484.8621              1499.8434
 Red. masses --     2.7463                 1.2924                 1.0574
 Frc consts  --     3.4158                 1.6789                 1.4014
 IR Inten    --   218.9315                17.5190                 9.8267

                    55                     56                     57
                     A                      A                      A
 Frequencies --  1506.4171              1506.9907              1512.6922
 Red. masses --     1.2419                 1.0484                 1.1543
 Frc consts  --     1.6605                 1.4028                 1.5562
 IR Inten    --    11.9066                 9.0382                 4.2937

                    58                     59                     60
                     A                      A                      A
 Frequencies --  1515.4431              1519.2263              1520.1938
 Red. masses --     1.3380                 1.0662                 1.0496
 Frc consts  --     1.8105                 1.4499                 1.4291
 IR Inten    --     2.4394                14.3058                 5.6730

                    61                     62                     63
                     A                      A                      A
 Frequencies --  1528.7952              1531.4464              1540.4205
 Red. masses --     1.0756                 1.3813                 1.2393
 Frc consts  --     1.4811                 1.9087                 1.7327
 IR Inten    --    17.2420                48.2509                 7.8628

                    64                     65                     66
                     A                      A                      A
 Frequencies --  1541.5273              1628.3000              1649.2897
 Red. masses --     1.3683                 7.1916                 6.0175
 Frc consts  --     1.9157                11.2343                 9.6441
 IR Inten    --    39.8741               203.0255                 3.3169

                    67                     68                     69
                     A                      A                      A
 Frequencies --  1772.5413              3033.8487              3035.6226
 Red. masses --    10.7363                 1.0414                 1.0344
 Frc consts  --    19.8746                 5.6476                 5.6160
 IR Inten    --   165.4200                71.3599                39.7504

                    70                     71                     72
                     A                      A                      A
 Frequencies --  3054.8604              3055.4290              3098.1084
 Red. masses --     1.0342                 1.0379                 1.1069
 Frc consts  --     5.6864                 5.7090                 6.2596
 IR Inten    --    72.0885                 1.7698                34.4851

                    73                     74                     75
                     A                      A                      A
 Frequencies --  3115.1415              3123.2946              3131.2647
 Red. masses --     1.0999                 1.0908                 1.1002
 Frc consts  --     6.2890                 6.2693                 6.3556
 IR Inten    --     9.2726                38.8998                40.9788

                    76                     77                     78
                     A                      A                      A
 Frequencies --  3158.4582              3160.2013              3160.4746
 Red. masses --     1.1079                 1.1057                 1.1028
 Frc consts  --     6.5118                 6.5062                 6.4901
 IR Inten    --    21.1506                11.8078                31.3020

                    79                     80                     81
                     A                      A                      A
 Frequencies --  3169.3213              3231.0901              3251.2630
 Red. masses --     1.1016                 1.0898                 1.0893
 Frc consts  --     6.5192                 6.7035                 6.7842
 IR Inten    --    13.5688                 2.0102                 5.1653

 - Thermochemistry -
 -------------------
 Temperature   298.150 Kelvin.  Pressure   1.00000 Atm.
 Atom     1 has atomic number  6 and mass  12.00000

 Molecular mass:   210.08921 amu.
 Principal axes and moments of inertia in atomic units:
                           1         2         3
     Eigenvalues --  2340.237773873.359946052.79944
           X            0.99980  -0.01848  -0.00719
           Y            0.01848   0.99983  -0.00019
           Z            0.00719   0.00005   0.99997
 This molecule is an asymmetric top.
 Rotational symmetry number  1.
 Warning -- assumption of classical behavior for rotation
           may cause significant error
 Rotational temperatures (Kelvin)      0.03701     0.02236     0.01431
 Rotational constants (GHZ):           0.77118     0.46594     0.29817
    1 imaginary frequencies ignored.
 Zero-point vibrational energy     619758.8 (Joules/Mol)
                                  148.12591 (Kcal/Mol)
 Warning -- explicit consideration of  24 degrees of freedom as
           vibrations may cause significant error
 Vibrational temperatures:     82.47    99.84   130.03   163.13   204.12
          (Kelvin)            222.21   225.58   228.24   284.70   314.48
                              332.87   367.93   408.32   423.43   468.28
                              484.91   545.53   607.36   651.51   703.85
                              775.53   802.37   860.83   879.50   955.15
                              985.86  1029.00  1099.09  1240.92  1259.67
                             1291.57  1361.97  1433.10  1490.40  1516.71
                             1555.59  1606.68  1666.48  1696.78  1699.74
                             1704.71  1738.06  1752.28  1775.48  1797.51
                             1824.34  1830.39  1918.68  2013.63  2027.97
                             2090.45  2136.38  2157.94  2167.40  2168.22
                             2176.42  2180.38  2185.83  2187.22  2199.59
                             2203.41  2216.32  2217.91  2342.76  2372.96
                             2550.29  4365.03  4367.58  4395.26  4396.08
                             4457.48  4481.99  4493.72  4505.19  4544.31
                             4546.82  4547.21  4559.94  4648.81  4677.84

 Zero-point correction=                           0.236054 (Hartree/Particle)
 Thermal correction to Energy=                    0.251112
 Thermal correction to Enthalpy=                  0.252056
 Thermal correction to Gibbs Free Energy=         0.194218
 Sum of electronic and zero-point Energies=           -728.214076
 Sum of electronic and thermal Energies=              -728.199018
 Sum of electronic and thermal Enthalpies=            -728.198074
 Sum of electronic and thermal Free Energies=         -728.255912

                     E (Thermal)             CV                S
                      KCal/Mol        Cal/Mol-Kelvin    Cal/Mol-Kelvin
 Total                  157.575             55.374            121.731
 Electronic               0.000              0.000              0.000
 Translational            0.889              2.981             41.931
 Rotational               0.889              2.981             32.373
 Vibrational            155.798             49.413             47.427
 Vibration     1          0.596              1.975              4.547
 Vibration     2          0.598              1.969              4.170
 Vibration     3          0.602              1.956              3.652
 Vibration     4          0.607              1.938              3.210
 Vibration     5          0.615              1.911              2.779
 Vibration     6          0.620              1.898              2.617
 Vibration     7          0.620              1.895              2.588
 Vibration     8          0.621              1.893              2.566
 Vibration     9          0.637              1.843              2.153
 Vibration    10          0.646              1.813              1.971
 Vibration    11          0.653              1.793              1.868
 Vibration    12          0.666              1.753              1.691
 Vibration    13          0.682              1.704              1.511
 Vibration    14          0.689              1.684              1.449
 Vibration    15          0.710              1.625              1.282
 Vibration    16          0.718              1.602              1.226
 Vibration    17          0.749              1.515              1.042
 Vibration    18          0.784              1.422              0.885
 Vibration    19          0.811              1.355              0.787
 Vibration    20          0.845              1.274              0.686
 Vibration    21          0.894              1.164              0.567
 Vibration    22          0.913              1.123              0.528
 Vibration    23          0.956              1.035              0.453
 Vibration    24          0.970              1.008              0.431

 Normal termination of Gaussian 09 at Mon Oct  4 10:21:40 2021.
 Gaussian 09:  AM64L-G09RevA.02 11-Jun-2009

 ----------------------------------------------------------------------
 #p TD(NStates=10, Root=1) b3lyp/6-31G* volume pop=NPA density=current
 Geom=AllCheck Guess=Read
 ----------------------------------------------------------------------

 COc1cc(cc(c1OC)OC)C(=O)C_conf_0
 -------------------------------
 Redundant internal coordinates taken from checkpoint file:
 C11H14O4_d9e1_conf_0.chk
 Charge =  0 Multiplicity = 1

                         Standard orientation:
 ---------------------------------------------------------------------
 Center     Atomic      Atomic             Coordinates (Angstroms)
 Number     Number       Type             X           Y           Z
 ---------------------------------------------------------------------
      1          6           0       -2.554662   -2.686380   -0.167818
      2          8           0       -1.140931   -2.501738   -0.171469
      3          6           0       -0.546004   -1.276986   -0.115106
      4          6           0        0.855658   -1.337330   -0.033817
      5          6           0        1.623439   -0.177770    0.014561
      6          6           0        0.997206    1.079263   -0.029105
      7          6           0       -0.385774    1.154066   -0.119845
      8          6           0       -1.180459   -0.022856   -0.147999
      9          8           0       -2.543753    0.078543   -0.293764
     10          6           0       -3.259369    0.601085    0.830842
     11          8           0       -1.089513    2.321551   -0.199403
     12          6           0       -0.355266    3.538175   -0.226642
     13          6           0        3.117800   -0.206341    0.107477
     14          8           0        3.759288    0.833749    0.154923
     15          6           0        3.827773   -1.550427    0.140531
     16          1           0       -2.690648   -3.769937   -0.208600
     17          1           0       -3.031621   -2.218526   -1.031481
     18          1           0       -3.012092   -2.303201    0.751321
     19          1           0        1.303029   -2.324162   -0.006283
     20          1           0        1.624971    1.960349   -0.001470
     21          1           0       -2.941524    1.620086    1.065272
     22          1           0       -3.125066   -0.040740    1.712173
     23          1           0       -4.312623    0.601966    0.540804
     24          1           0        0.325712    3.574055   -1.085928
     25          1           0        0.221342    3.681769    0.695940
     26          1           0       -1.099476    4.331275   -0.318100
     27          1           0        3.498302   -2.150064    0.997215
     28          1           0        4.902522   -1.375543    0.213006
     29          1           0        3.614378   -2.131174   -0.764647
 ---------------------------------------------------------------------

 SCF Done:  E(RB3LYP) =  -728.450129589     A.U. after    1 cycles

 Excitation energies and oscillator strengths:

 Excited State   1:      Singlet-A      3.8159 eV  324.91 nm  f=0.0001  <S**2>=0.000
      54 -> 57         0.69535
      54 -> 59         0.11835
 This state for optimization and/or second-order correction.
 Total Energy, E(TD-HF/TD-KS) =  -728.309896946
 Copying the excited state density for this state as the 1-particle RhoCI density.

 Excited State   2:      Singlet-A      4.0150 eV  308.80 nm  f=0.0347  <S**2>=0.000
      55 -> 57         0.14285
      55 -> 58        -0.15626
      56 -> 57         0.67156

 Excited State   3:      Singlet-A      4.4642 eV  277.73 nm  f=0.1812  <S**2>=0.000
      55 -> 57         0.67476
      56 -> 57        -0.15132
      56 -> 58         0.11290

 Excited State   4:      Singlet-A      5.4720 eV  226.58 nm  f=0.0005  <S**2>=0.000
      53 -> 57         0.70016

 Excited State   5:      Singlet-A      5.7673 eV  214.98 nm  f=0.1181  <S**2>=0.000
      55 -> 58         0.52168
      55 -> 59         0.10674
      56 -> 57         0.12059
      56 -> 58        -0.31924
      56 -> 59         0.29486

 Excited State   6:      Singlet-A      6.0696 eV  204.27 nm  f=0.1897  <S**2>=0.000
      52 -> 57         0.18850
      55 -> 58         0.31114
      55 -> 59        -0.10109
      56 -> 58         0.56666
      56 -> 59         0.12827

 Excited State   7:      Singlet-A      6.1438 eV  201.80 nm  f=0.0005  <S**2>=0.000
      54 -> 58         0.70244

 Excited State   8:      Singlet-A      6.2792 eV  197.45 nm  f=0.3072  <S**2>=0.000
      52 -> 57         0.65932
      55 -> 59         0.11253
      56 -> 58        -0.15932

 Excited State   9:      Singlet-A      6.7316 eV  184.18 nm  f=0.2389  <S**2>=0.000
      49 -> 57        -0.11563
      53 -> 58        -0.16855
      54 -> 59         0.10241
      55 -> 58        -0.24681
      55 -> 59         0.10596
      56 -> 59         0.52663
      56 -> 60        -0.26111

 Excited State  10:      Singlet-A      6.7664 eV  183.23 nm  f=0.0160  <S**2>=0.000
      51 -> 57         0.22963
      54 -> 57        -0.11311
      54 -> 59         0.62474
      56 -> 59        -0.10081

 The electronic state is 1-A.
 Alpha  occ. eigenvalues --  -19.18344 -19.17665 -19.16949 -19.12894 -10.27024
 Alpha  occ. eigenvalues --  -10.25390 -10.25243 -10.24660 -10.24305 -10.23520
 Alpha  occ. eigenvalues --  -10.23447 -10.19594 -10.18882 -10.18398 -10.18356
 Alpha  occ. eigenvalues --   -1.07570  -1.06237  -1.04395  -1.02807  -0.85353
 Alpha  occ. eigenvalues --   -0.77251  -0.76242  -0.73439  -0.71716  -0.69106
 Alpha  occ. eigenvalues --   -0.67986  -0.61791  -0.59807  -0.55485  -0.52347
 Alpha  occ. eigenvalues --   -0.51669  -0.49949  -0.48781  -0.47867  -0.46828
 Alpha  occ. eigenvalues --   -0.46695  -0.44868  -0.44460  -0.44095  -0.43674
 Alpha  occ. eigenvalues --   -0.42402  -0.41416  -0.40342  -0.38671  -0.38291
 Alpha  occ. eigenvalues --   -0.37239  -0.35835  -0.35187  -0.34715  -0.33508
 Alpha  occ. eigenvalues --   -0.33209  -0.29783  -0.27771  -0.24270  -0.22282
 Alpha  occ. eigenvalues --   -0.21608
 Alpha virt. eigenvalues --   -0.04628   0.01365   0.05173   0.07077   0.09849
 Alpha virt. eigenvalues --    0.10857   0.11550   0.12380   0.13826   0.14687
 Alpha virt. eigenvalues --    0.15038   0.15247   0.15843   0.16180   0.16699

 Mulliken atomic charges:
              1
     1  C   -0.196443
     2  O   -0.530970
     3  C    0.356161
     4  C   -0.294611
     5  C    0.129335
     6  C   -0.287991
     7  C    0.352172
     8  C    0.231503
     9  O   -0.527149
    10  C   -0.207138
    11  O   -0.515035
    12  C   -0.211629
    13  C    0.303381
    14  O   -0.312528
    15  C   -0.511522
    16  H    0.151399
    17  H    0.169768
    18  H    0.143644
    19  H    0.120915
    20  H    0.138262
    21  H    0.165904
    22  H    0.131543
    23  H    0.152353
    24  H    0.156082
    25  H    0.152353
    26  H    0.166264
    27  H    0.196199
    28  H    0.180586
    29  H    0.197195
 Sum of Mulliken atomic charges =  -0.00000

 Dipole moment (field-independent basis, Debye):
    X=              0.4152    Y=             -0.0170    Z=              1.0938  Tot=              1.1701
 Quadrupole moment (field-independent basis, Debye-Ang):
   XX=            -77.3895   YY=            -77.4991   ZZ=            -89.2343
   XY=             -4.2093   XZ=             -3.2279   YZ=             -0.1145

 Summary of Natural Population Analysis:

                                       Natural Population
                Natural  -----------------------------------------------
    Atom  No    Charge         Core      Valence    Rydberg      Total
 -----------------------------------------------------------------------
      C    1   -0.30076      1.99942     4.28795    0.01339     6.30076
      O    2   -0.53126      1.99974     6.51958    0.01194     8.53126
      C    3    0.30623      1.99872     3.67149    0.02356     5.69377
      C    4   -0.30432      1.99898     4.29162    0.01371     6.30432
      C    5   -0.13263      1.99890     4.11844    0.01530     6.13263
      C    6   -0.33954      1.99898     4.32790    0.01266     6.33954
      C    7    0.29820      1.99876     3.68080    0.02224     5.70180
      C    8    0.17079      1.99869     3.80759    0.02292     5.82921
      O    9   -0.55652      1.99976     6.54392    0.01285     8.55652
      C   10   -0.30530      1.99941     4.29329    0.01259     6.30530
      O   11   -0.52498      1.99974     6.51329    0.01195     8.52498
      C   12   -0.31372      1.99943     4.30033    0.01396     6.31372
      C   13    0.36470      1.99929     3.60344    0.03257     5.63530
      O   14   -0.26056      1.99981     6.24276    0.01799     8.26056
      C   15   -0.70696      1.99932     4.70089    0.00675     6.70696
      H   16    0.21438      0.00000     0.78479    0.00083     0.78562
      H   17    0.21732      0.00000     0.78118    0.00150     0.78268
      H   18    0.19680      0.00000     0.80144    0.00176     0.80320
      H   19    0.23929      0.00000     0.75928    0.00142     0.76071
      H   20    0.24052      0.00000     0.75852    0.00096     0.75948
      H   21    0.21356      0.00000     0.78453    0.00191     0.78644
      H   22    0.18906      0.00000     0.80886    0.00208     0.81094
      H   23    0.21423      0.00000     0.78486    0.00091     0.78577
      H   24    0.20554      0.00000     0.79250    0.00197     0.79446
      H   25    0.20243      0.00000     0.79563    0.00193     0.79757
      H   26    0.22607      0.00000     0.77340    0.00053     0.77393
      H   27    0.26053      0.00000     0.73817    0.00131     0.73947
      H   28    0.25575      0.00000     0.74312    0.00113     0.74425
      H   29    0.26113      0.00000     0.73752    0.00135     0.73887
 =======================================================================
   * Total *   -0.00000     29.98894    81.74709    0.26397   112.00000

 Normal termination of Gaussian 09 at Mon Oct  4 15:23:02 2021.
