 Gaussian 09, Revision A.02,

 -----------------------------------
 #p opt b3lyp/6-31G* scf=(xqc,tight)
 -----------------------------------

 -----------------------
 COc1cccc2c1cccc2_conf_0
 -----------------------
 Symbolic Z-matrix:
 Charge =  0 Multiplicity = 1

 SCF Done:  E(RB3LYP) =  -500.402161292     A.U. after   14 cycles
 SCF Done:  E(RB3LYP) =  -500.407110757     A.U. after   13 cycles
 SCF Done:  E(RB3LYP) =  -500.407439515     A.U. after   11 cycles
 SCF Done:  E(RB3LYP) =  -500.407516299     A.U. after   11 cycles
 SCF Done:  E(RB3LYP) =  -500.407831878     A.U. after   12 cycles
 SCF Done:  E(RB3LYP) =  -500.407348772     A.U. after   12 cycles
 SCF Done:  E(RB3LYP) =  -500.408147735     A.U. after   12 cycles
 SCF Done:  E(RB3LYP) =  -500.409480117     A.U. after   12 cycles
 SCF Done:  E(RB3LYP) =  -500.410228117     A.U. after   13 cycles
 SCF Done:  E(RB3LYP) =  -500.410790313     A.U. after   11 cycles
 SCF Done:  E(RB3LYP) =  -500.412406905     A.U. after   15 cycles
 SCF Done:  E(RB3LYP) =  -500.413014805     A.U. after   14 cycles
 SCF Done:  E(RB3LYP) =  -500.414726559     A.U. after   15 cycles
 SCF Done:  E(RB3LYP) =  -500.415566882     A.U. after   12 cycles
 SCF Done:  E(RB3LYP) =  -500.415669934     A.U. after   15 cycles
 SCF Done:  E(RB3LYP) =  -500.415686043     A.U. after   15 cycles
 SCF Done:  E(RB3LYP) =  -500.415689216     A.U. after    8 cycles
 SCF Done:  E(RB3LYP) =  -500.415689346     A.U. after   15 cycles
 Optimization completed.
    -- Stationary point found.
 Normal termination of Gaussian 09 at Tue Sep 28 14:32:22 2021.

 ----------------------------------------------------------------------
 #p freq b3lyp/6-31G* volume NMR pop=NPA density=current Geom=AllCheck
 Guess=Read
 ----------------------------------------------------------------------

 COc1cccc2c1cccc2_conf_0
 -----------------------
 Redundant internal coordinates taken from checkpoint file:
 C11H10O_9eb4_conf_0.chk
 Charge =  0 Multiplicity = 1

 SCF Done:  E(RB3LYP) =  -500.415689346     A.U. after    1 cycles

  1  C    Isotropic =   137.1020   Anisotropy =    65.9136

  2  O    Isotropic =   239.2619   Anisotropy =    99.5104

  3  C    Isotropic =    41.7758   Anisotropy =   119.2138

  4  C    Isotropic =    91.6899   Anisotropy =   135.2459

  5  C    Isotropic =    70.1673   Anisotropy =   158.5023

  6  C    Isotropic =    75.2822   Anisotropy =   133.8741

  7  C    Isotropic =    62.4534   Anisotropy =   195.4771

  8  C    Isotropic =    70.7379   Anisotropy =   175.1299

  9  C    Isotropic =    72.1593   Anisotropy =   167.5887

 10  C    Isotropic =    71.7416   Anisotropy =   160.2222

 11  C    Isotropic =    69.9882   Anisotropy =   162.8571

 12  C    Isotropic =    68.5388   Anisotropy =   144.3667

 13  H    Isotropic =    28.4426   Anisotropy =     8.5204

 14  H    Isotropic =    28.4430   Anisotropy =     8.5201

 15  H    Isotropic =    28.0769   Anisotropy =     8.3342

 16  H    Isotropic =    25.8228   Anisotropy =     7.6689

 17  H    Isotropic =    24.9655   Anisotropy =     5.1488

 18  H    Isotropic =    25.0251   Anisotropy =     6.1796

 19  H    Isotropic =    23.9415   Anisotropy =    10.0420

 20  H    Isotropic =    24.8333   Anisotropy =     5.4541

 21  H    Isotropic =    24.8166   Anisotropy =     5.0222

 22  H    Isotropic =    24.6624   Anisotropy =     6.7813

  Exact polarizability: 165.200 -10.266 139.224   0.002   0.001  44.387
 Approx polarizability: 264.327 -22.250 246.810   0.006   0.004  67.861

                     1                      2                      3
                     A                      A                      A
 Frequencies --    80.8113               138.5693               180.8476
 Red. masses --     3.0955                 3.7546                 3.6943
 Frc consts  --     0.0119                 0.0425                 0.0712
 IR Inten    --     3.8402                 2.3969                 0.0510

                     4                      5                      6
                     A                      A                      A
 Frequencies --   208.5978               237.0780               292.7882
 Red. masses --     3.7206                 1.4823                 2.1203
 Frc consts  --     0.0954                 0.0491                 0.1071
 IR Inten    --     2.4358                 0.2308                 0.0308

                     7                      8                      9
                     A                      A                      A
 Frequencies --   340.8381               431.8844               455.7052
 Red. masses --     3.7152                 3.2519                 5.0664
 Frc consts  --     0.2543                 0.3574                 0.6199
 IR Inten    --     0.5200                 2.2206                 1.9895

                    10                     11                     12
                     A                      A                      A
 Frequencies --   481.2351               494.2663               541.3004
 Red. masses --     3.4726                 6.4563                 6.4621
 Frc consts  --     0.4738                 0.9293                 1.1156
 IR Inten    --     0.1090                 2.8616                 0.7462

                    13                     14                     15
                     A                      A                      A
 Frequencies --   585.6330               615.7670               650.3572
 Red. masses --     3.4003                 5.4995                 3.4726
 Frc consts  --     0.6871                 1.2286                 0.8654
 IR Inten    --     4.9435                 4.2940                 2.0515

                    16                     17                     18
                     A                      A                      A
 Frequencies --   729.5611               746.9957               789.2793
 Red. masses --     5.4349                 1.3595                 1.6319
 Frc consts  --     1.7044                 0.4469                 0.5990
 IR Inten    --    11.1857                 0.4575                46.4192

                    19                     20                     21
                     A                      A                      A
 Frequencies --   802.6044               808.0129               864.8349
 Red. masses --     5.2488                 1.9178                 1.4882
 Frc consts  --     1.9921                 0.7377                 0.6558
 IR Inten    --     1.4620                44.0548                 1.3150

                    22                     23                     24
                     A                      A                      A
 Frequencies --   875.3366               888.5985               955.8401
 Red. masses --     4.6496                 1.5995                 1.2931
 Frc consts  --     2.0990                 0.7441                 0.6961
 IR Inten    --     2.0196                 1.0321                 0.1052

                    25                     26                     27
                     A                      A                      A
 Frequencies --   964.6781               990.6083              1021.6585
 Red. masses --     1.3017                 1.2669                 6.0785
 Frc consts  --     0.7137                 0.7325                 3.7382
 IR Inten    --     1.8601                 0.0095                 5.7147

                    28                     29                     30
                     A                      A                      A
 Frequencies --  1053.9544              1104.2617              1140.3773
 Red. masses --     2.4065                 2.2317                 2.7319
 Frc consts  --     1.5750                 1.6033                 2.0932
 IR Inten    --    10.8800                15.1793                76.1174

                    31                     32                     33
                     A                      A                      A
 Frequencies --  1179.7949              1184.7804              1190.7714
 Red. masses --     1.3612                 1.2714                 1.1488
 Frc consts  --     1.1163                 1.0515                 0.9597
 IR Inten    --     3.3671                 0.8985                 7.8397

                    34                     35                     36
                     A                      A                      A
 Frequencies --  1208.5907              1229.1402              1250.6446
 Red. masses --     1.4154                 1.4158                 2.0818
 Frc consts  --     1.2181                 1.2602                 1.9185
 IR Inten    --     6.9241                 4.1220                 3.2186

                    37                     38                     39
                     A                      A                      A
 Frequencies --  1279.1654              1309.6188              1393.3434
 Red. masses --     1.7463                 2.5763                 3.5875
 Frc consts  --     1.6835                 2.6034                 4.1036
 IR Inten    --    55.3050               150.1989                 2.4478

                    40                     41                     42
                     A                      A                      A
 Frequencies --  1420.0538              1442.6731              1490.0278
 Red. masses --     6.0648                 2.1401                 1.9711
 Frc consts  --     7.2057                 2.6244                 2.5784
 IR Inten    --     1.9595                94.9073                21.4156

                    43                     44                     45
                     A                      A                      A
 Frequencies --  1497.6298              1515.6356              1519.2169
 Red. masses --     1.4773                 1.9124                 1.0481
 Frc consts  --     1.9523                 2.5884                 1.4252
 IR Inten    --     4.9647                20.6787                 5.5315

                    46                     47                     48
                     A                      A                      A
 Frequencies --  1535.2395              1566.3039              1634.8388
 Red. masses --     1.0711                 3.3942                 6.6328
 Frc consts  --     1.4874                 4.9062                10.4448
 IR Inten    --    20.8885                18.3243                63.2064

                    49                     50                     51
                     A                      A                      A
 Frequencies --  1656.2820              1684.1878              3027.1038
 Red. masses --     4.9964                 6.1920                 1.0344
 Frc consts  --     8.0756                10.3482                 5.5847
 IR Inten    --    20.2268                 6.8824                60.4964

                    52                     53                     54
                     A                      A                      A
 Frequencies --  3086.8187              3157.6444              3177.5407
 Red. masses --     1.1068                 1.1001                 1.0860
 Frc consts  --     6.2133                 6.4626                 6.4602
 IR Inten    --    42.2264                23.7375                 1.3992

                    55                     56                     57
                     A                      A                      A
 Frequencies --  3183.2972              3190.0594              3200.8000
 Red. masses --     1.0860                 1.0898                 1.0945
 Frc consts  --     6.4836                 6.5344                 6.6069
 IR Inten    --     1.8642                16.6385                35.4072

                    58                     59                     60
                     A                      A                      A
 Frequencies --  3204.4991              3228.8432              3230.6006
 Red. masses --     1.0952                 1.0915                 1.0927
 Frc consts  --     6.6260                 6.7044                 6.7190
 IR Inten    --    32.5884                15.1089                 7.1150

 - Thermochemistry -
 -------------------
 Temperature   298.150 Kelvin.  Pressure   1.00000 Atm.
 Atom     1 has atomic number  6 and mass  12.00000

 Molecular mass:   158.07317 amu.
 Principal axes and moments of inertia in atomic units:
                           1         2         3
     Eigenvalues --  1100.550572177.889103266.91653
           X            0.99998   0.00686  -0.00000
           Y           -0.00686   0.99998   0.00000
           Z            0.00000  -0.00000   1.00000
 This molecule is an asymmetric top.
 Rotational symmetry number  1.
 Warning -- assumption of classical behavior for rotation
           may cause significant error
 Rotational temperatures (Kelvin)      0.07870     0.03977     0.02651
 Rotational constants (GHZ):           1.63985     0.82867     0.55243
 Zero-point vibrational energy     474603.0 (Joules/Mol)
                                  113.43284 (Kcal/Mol)
 Warning -- explicit consideration of  14 degrees of freedom as
           vibrations may cause significant error
 Vibrational temperatures:    116.27   199.37   260.20   300.13   341.10
          (Kelvin)            421.26   490.39   621.38   655.66   692.39
                              711.14   778.81   842.59   885.95   935.72
                             1049.67  1074.76  1135.60  1154.77  1162.55
                             1244.30  1259.41  1278.49  1375.24  1387.95
                             1425.26  1469.94  1516.40  1588.78  1640.75
                             1697.46  1704.63  1713.25  1738.89  1768.46
                             1799.40  1840.43  1884.25  2004.71  2043.14
                             2075.68  2143.81  2154.75  2180.66  2185.81
                             2208.86  2253.56  2352.17  2383.02  2423.17
                             4355.32  4441.24  4543.14  4571.77  4580.05
                             4589.78  4605.23  4610.55  4645.58  4648.11

 Zero-point correction=                           0.180767 (Hartree/Particle)
 Thermal correction to Energy=                    0.190153
 Thermal correction to Enthalpy=                  0.191097
 Thermal correction to Gibbs Free Energy=         0.146169
 Sum of electronic and zero-point Energies=           -500.234923
 Sum of electronic and thermal Energies=              -500.225536
 Sum of electronic and thermal Enthalpies=            -500.224592
 Sum of electronic and thermal Free Energies=         -500.269520

                     E (Thermal)             CV                S
                      KCal/Mol        Cal/Mol-Kelvin    Cal/Mol-Kelvin
 Total                  119.323             37.902             94.558
 Electronic               0.000              0.000              0.000
 Translational            0.889              2.981             41.083
 Rotational               0.889              2.981             30.438
 Vibrational            117.545             31.940             23.037
 Vibration     1          0.600              1.962              3.871
 Vibration     2          0.614              1.915              2.824
 Vibration     3          0.630              1.866              2.320
 Vibration     4          0.642              1.828              2.056
 Vibration     5          0.656              1.784              1.825
 Vibration     6          0.688              1.687              1.458
 Vibration     7          0.720              1.594              1.208
 Vibration     8          0.793              1.401              0.853
 Vibration     9          0.814              1.348              0.779
 Vibration    10          0.838              1.292              0.707
 Vibration    11          0.850              1.263              0.673
 Vibration    12          0.896              1.159              0.562
 Vibration    13          0.943              1.062              0.475
 Vibration    14          0.975              0.999              0.423

 Optimization completed.
    -- Stationary point found.
 Normal termination of Gaussian 09 at Tue Sep 28 14:40:21 2021.
 Gaussian 09:  AM64L-G09RevA.02 11-Jun-2009

 ----------------------------------------------------------------------
 #p TD(NStates=10, Root=1) b3lyp/6-31G* volume pop=NPA density=current
 Geom=AllCheck Guess=Read
 ----------------------------------------------------------------------

 COc1cccc2c1cccc2_conf_0
 -----------------------
 Redundant internal coordinates taken from checkpoint file:
 C11H10O_9eb4_conf_0.chk
 Charge =  0 Multiplicity = 1

                         Standard orientation:
 ---------------------------------------------------------------------
 Center     Atomic      Atomic             Coordinates (Angstroms)
 Number     Number       Type             X           Y           Z
 ---------------------------------------------------------------------
      1          6           0       -3.343474   -1.121219    0.000171
      2          8           0       -1.930515   -1.237796   -0.000052
      3          6           0       -1.186616   -0.092926   -0.000100
      4          6           0       -1.714791    1.183358   -0.000076
      5          6           0       -0.850439    2.306476   -0.000037
      6          6           0        0.514184    2.153851   -0.000013
      7          6           0        1.087609    0.851839    0.000024
      8          6           0        0.232605   -0.295734   -0.000066
      9          6           0        0.808247   -1.592191   -0.000103
     10          6           0        2.177285   -1.751263   -0.000037
     11          6           0        3.027907   -0.621107    0.000079
     12          6           0        2.493321    0.648072    0.000110
     13          1           0       -3.703321   -0.596204   -0.894457
     14          1           0       -3.703103   -0.596198    0.894886
     15          1           0       -3.728825   -2.142508    0.000240
     16          1           0       -2.786608    1.343432    0.000013
     17          1           0       -1.288501    3.301086   -0.000079
     18          1           0        1.170898    3.019825    0.000023
     19          1           0        0.151016   -2.454482   -0.000169
     20          1           0        2.607324   -2.749269   -0.000142
     21          1           0        4.106162   -0.757727    0.000181
     22          1           0        3.144055    1.519491    0.000211
 ---------------------------------------------------------------------

 SCF Done:  E(RB3LYP) =  -500.415689346     A.U. after    1 cycles

 Excitation energies and oscillator strengths:

 Excited State   1:      Singlet-A      4.2553 eV  291.37 nm  f=0.0897  <S**2>=0.000
      41 -> 44        -0.12954
      42 -> 43         0.68738
 This state for optimization and/or second-order correction.
 Total Energy, E(TD-HF/TD-KS) =  -500.259311299
 Copying the excited state density for this state as the 1-particle RhoCI density.

 Excited State   2:      Singlet-A      4.4491 eV  278.67 nm  f=0.0171  <S**2>=0.000
      41 -> 43         0.42158
      42 -> 44         0.56465

 Excited State   3:      Singlet-A      5.5748 eV  222.40 nm  f=0.0181  <S**2>=0.000
      40 -> 43         0.58641
      41 -> 44         0.15627
      42 -> 45         0.32668

 Excited State   4:      Singlet-A      5.7608 eV  215.22 nm  f=0.4870  <S**2>=0.000
      40 -> 44        -0.34890
      41 -> 43         0.44889
      41 -> 45         0.12992
      42 -> 44        -0.35198
      42 -> 45         0.12318

 Excited State   5:      Singlet-A      6.2169 eV  199.43 nm  f=0.2043  <S**2>=0.000
      40 -> 43        -0.25771
      40 -> 44         0.40277
      41 -> 43         0.18591
      41 -> 45        -0.18513
      42 -> 44        -0.11837
      42 -> 45         0.41731

 Excited State   6:      Singlet-A      6.2762 eV  197.55 nm  f=0.2517  <S**2>=0.000
      40 -> 43        -0.11299
      40 -> 45         0.16799
      41 -> 44         0.65096
      42 -> 43         0.12355

 Excited State   7:      Singlet-A      6.3508 eV  195.23 nm  f=0.3583  <S**2>=0.000
      39 -> 43         0.15715
      40 -> 43        -0.23553
      40 -> 44        -0.32952
      41 -> 43        -0.25552
      41 -> 45         0.16687
      42 -> 44         0.18904
      42 -> 45         0.41061

 Excited State   8:      Singlet-A      6.8877 eV  180.01 nm  f=0.0001  <S**2>=0.000
      38 -> 43         0.69610

 Excited State   9:      Singlet-A      7.0643 eV  175.51 nm  f=0.0041  <S**2>=0.000
      39 -> 43         0.49560
      40 -> 44        -0.10554
      41 -> 45        -0.46860

 Excited State  10:      Singlet-A      7.0766 eV  175.20 nm  f=0.0012  <S**2>=0.000
      42 -> 46         0.67698
      42 -> 49        -0.15270

 The electronic state is 1-A.
 Alpha  occ. eigenvalues --  -19.17988 -10.24640 -10.24237 -10.19258 -10.19100
 Alpha  occ. eigenvalues --  -10.18756 -10.18532 -10.18395 -10.18346 -10.18321
 Alpha  occ. eigenvalues --  -10.18235 -10.17876  -1.06570  -0.86369  -0.81250
 Alpha  occ. eigenvalues --   -0.76958  -0.73697  -0.72050  -0.69291  -0.61579
 Alpha  occ. eigenvalues --   -0.60911  -0.58007  -0.52631  -0.51347  -0.49520
 Alpha  occ. eigenvalues --   -0.46974  -0.46919  -0.45815  -0.42435  -0.42080
 Alpha  occ. eigenvalues --   -0.40690  -0.39893  -0.38828  -0.37208  -0.35126
 Alpha  occ. eigenvalues --   -0.33996  -0.33266  -0.32018  -0.31004  -0.25667
 Alpha  occ. eigenvalues --   -0.23775  -0.19766
 Alpha virt. eigenvalues --   -0.02619  -0.00281   0.04693   0.09532   0.10685
 Alpha virt. eigenvalues --    0.10864   0.11077   0.13075   0.14772   0.15474
 Alpha virt. eigenvalues --    0.16543   0.17465   0.18498   0.19765   0.20542

 Mulliken atomic charges:
              1
     1  C   -0.228341
     2  O   -0.461246
     3  C    0.309016
     4  C   -0.185727
     5  C   -0.142963
     6  C   -0.173551
     7  C    0.140724
     8  C    0.083175
     9  C   -0.220393
    10  C   -0.134935
    11  C   -0.131346
    12  C   -0.246660
    13  H    0.167180
    14  H    0.167182
    15  H    0.182591
    16  H    0.139025
    17  H    0.136141
    18  H    0.143189
    19  H    0.123089
    20  H    0.115463
    21  H    0.112691
    22  H    0.105696
 Sum of Mulliken atomic charges =  -0.00000

 Dipole moment (field-independent basis, Debye):
    X=             -4.0535    Y=              0.9990    Z=              0.0003  Tot=              4.1748
 Quadrupole moment (field-independent basis, Debye-Ang):
   XX=            -57.0095   YY=            -63.7495   ZZ=            -73.7017
   XY=              2.4901   XZ=             -0.0007   YZ=             -0.0000

 Summary of Natural Population Analysis:

                                       Natural Population
                Natural  -----------------------------------------------
    Atom  No    Charge         Core      Valence    Rydberg      Total
 -----------------------------------------------------------------------
      C    1   -0.32332      1.99943     4.30962    0.01427     6.32332
      O    2   -0.46084      1.99974     6.44905    0.01204     8.46084
      C    3    0.36484      1.99874     3.61391    0.02250     5.63516
      C    4   -0.29244      1.99904     4.28014    0.01326     6.29244
      C    5   -0.23391      1.99913     4.21889    0.01589     6.23391
      C    6   -0.15381      1.99904     4.13999    0.01478     6.15381
      C    7   -0.06022      1.99904     4.04581    0.01537     6.06022
      C    8   -0.07410      1.99898     4.05972    0.01540     6.07410
      C    9   -0.29701      1.99907     4.27989    0.01805     6.29701
      C   10   -0.22049      1.99911     4.20569    0.01569     6.22049
      C   11   -0.24428      1.99911     4.22941    0.01576     6.24428
      C   12   -0.29153      1.99906     4.27542    0.01706     6.29153
      H   13    0.21235      0.00000     0.78585    0.00180     0.78765
      H   14    0.21235      0.00000     0.78585    0.00180     0.78765
      H   15    0.23537      0.00000     0.76411    0.00051     0.76463
      H   16    0.23754      0.00000     0.76155    0.00091     0.76246
      H   17    0.23853      0.00000     0.76063    0.00083     0.76147
      H   18    0.23637      0.00000     0.76250    0.00113     0.76363
      H   19    0.23604      0.00000     0.76285    0.00110     0.76396
      H   20    0.22834      0.00000     0.77079    0.00087     0.77166
      H   21    0.22851      0.00000     0.77066    0.00084     0.77149
      H   22    0.22170      0.00000     0.77718    0.00112     0.77830
 =======================================================================
   * Total *   -0.00000     23.98949    59.80954    0.20097    84.00000

 Normal termination of Gaussian 09 at Tue Sep 28 14:54:47 2021.
