 Gaussian 09, Revision A.02,

 -----------------------------------
 #p opt b3lyp/6-31G* scf=(xqc,tight)
 -----------------------------------

 -----------------------------
 CCN(C(=O)Oc1ccccc1F)CC_conf_0
 -----------------------------
 Symbolic Z-matrix:
 Charge =  0 Multiplicity = 1

 SCF Done:  E(RB3LYP) =  -732.651475444     A.U. after   15 cycles
 SCF Done:  E(RB3LYP) =  -732.654937036     A.U. after   16 cycles
 SCF Done:  E(RB3LYP) =  -732.655098770     A.U. after   12 cycles
 SCF Done:  E(RB3LYP) =  -732.656116614     A.U. after   12 cycles
 SCF Done:  E(RB3LYP) =  -732.656462076     A.U. after   12 cycles
 SCF Done:  E(RB3LYP) =  -732.656543762     A.U. after   11 cycles
 SCF Done:  E(RB3LYP) =  -732.656592067     A.U. after   11 cycles
 SCF Done:  E(RB3LYP) =  -732.656626229     A.U. after   10 cycles
 SCF Done:  E(RB3LYP) =  -732.656647353     A.U. after   12 cycles
 SCF Done:  E(RB3LYP) =  -732.656656163     A.U. after   11 cycles
 SCF Done:  E(RB3LYP) =  -732.656662018     A.U. after   11 cycles
 SCF Done:  E(RB3LYP) =  -732.656663435     A.U. after    9 cycles
 SCF Done:  E(RB3LYP) =  -732.656663879     A.U. after    8 cycles
 SCF Done:  E(RB3LYP) =  -732.656664069     A.U. after    7 cycles
 SCF Done:  E(RB3LYP) =  -732.656664146     A.U. after    6 cycles
 SCF Done:  E(RB3LYP) =  -732.656664199     A.U. after    6 cycles
 SCF Done:  E(RB3LYP) =  -732.656664252     A.U. after    6 cycles
 SCF Done:  E(RB3LYP) =  -732.656664294     A.U. after    6 cycles
 Optimization completed.
    -- Stationary point found.
 Normal termination of Gaussian 09 at Thu Sep 30 17:52:16 2021.

 ----------------------------------------------------------------------
 #p freq b3lyp/6-31G* volume NMR pop=NPA density=current Geom=AllCheck
 Guess=Read
 ----------------------------------------------------------------------

 CCN(C(=O)Oc1ccccc1F)CC_conf_0
 -----------------------------
 Redundant internal coordinates taken from checkpoint file:
 C11H14FNO2_0756_conf_0.chk
 Charge =  0 Multiplicity = 1

 SCF Done:  E(RB3LYP) =  -732.656664294     A.U. after    1 cycles

  1  C    Isotropic =   175.5928   Anisotropy =    21.9689

  2  C    Isotropic =   146.7649   Anisotropy =    40.9445

  3  N    Isotropic =   157.6675   Anisotropy =    67.4088

  4  C    Isotropic =    46.9111   Anisotropy =    81.3163

  5  O    Isotropic =    66.9811   Anisotropy =   375.9376

  6  O    Isotropic =   160.3229   Anisotropy =   164.3085

  7  C    Isotropic =    55.0940   Anisotropy =    99.9130

  8  C    Isotropic =    69.1764   Anisotropy =   153.2863

  9  C    Isotropic =    73.2095   Anisotropy =   157.8804

 10  C    Isotropic =    71.5572   Anisotropy =   160.1833

 11  C    Isotropic =    79.4602   Anisotropy =   135.9273

 12  C    Isotropic =    41.2139   Anisotropy =    90.2811

 13  F    Isotropic =   322.1466   Anisotropy =   128.3556

 14  C    Isotropic =   146.4391   Anisotropy =    44.0875

 15  C    Isotropic =   175.0679   Anisotropy =    22.1913

 16  H    Isotropic =    31.4084   Anisotropy =    10.3570

 17  H    Isotropic =    30.2140   Anisotropy =     8.7224

 18  H    Isotropic =    31.0920   Anisotropy =     7.1988

 19  H    Isotropic =    28.4420   Anisotropy =     4.6776

 20  H    Isotropic =    29.4089   Anisotropy =     6.2100

 21  H    Isotropic =    24.7963   Anisotropy =     8.6320

 22  H    Isotropic =    25.2088   Anisotropy =     4.3244

 23  H    Isotropic =    25.1766   Anisotropy =     3.7031

 24  H    Isotropic =    25.3971   Anisotropy =     5.2357

 25  H    Isotropic =    29.5540   Anisotropy =     6.6554

 26  H    Isotropic =    28.2879   Anisotropy =     5.5961

 27  H    Isotropic =    31.0467   Anisotropy =     6.7555

 28  H    Isotropic =    31.3707   Anisotropy =    10.6041

 29  H    Isotropic =    30.7868   Anisotropy =     7.2377

  Exact polarizability: 171.588   5.587 129.605   4.537  -3.768  75.793
 Approx polarizability: 224.456  12.246 207.714  10.697  -5.166 117.491

                     1                      2                      3
                     A                      A                      A
 Frequencies --    21.9101                36.7352                48.5394
 Red. masses --     4.5115                 3.1924                 4.6578
 Frc consts  --     0.0013                 0.0025                 0.0065
 IR Inten    --     0.3718                 0.3216                 2.6227

                     4                      5                      6
                     A                      A                      A
 Frequencies --    85.2009                93.1362               105.4152
 Red. masses --     4.0007                 5.3340                 3.1495
 Frc consts  --     0.0171                 0.0273                 0.0206
 IR Inten    --     1.8125                 0.9313                 1.9336

                     7                      8                      9
                     A                      A                      A
 Frequencies --   122.1467               191.8336               229.0624
 Red. masses --     3.7879                 3.3717                 2.4562
 Frc consts  --     0.0333                 0.0731                 0.0759
 IR Inten    --     0.1071                 0.0948                 1.2206

                    10                     11                     12
                     A                      A                      A
 Frequencies --   238.9724               263.2513               285.7529
 Red. masses --     1.1112                 1.9690                 3.1295
 Frc consts  --     0.0374                 0.0804                 0.1506
 IR Inten    --     0.9054                 0.6564                 0.1277

                    13                     14                     15
                     A                      A                      A
 Frequencies --   311.6623               334.5415               373.8004
 Red. masses --     5.0119                 2.8858                 3.3810
 Frc consts  --     0.2868                 0.1903                 0.2783
 IR Inten    --     0.1001                 1.4649                16.6096

                    16                     17                     18
                     A                      A                      A
 Frequencies --   433.3724               467.2846               474.1189
 Red. masses --     2.6779                 3.4874                 5.1114
 Frc consts  --     0.2963                 0.4487                 0.6770
 IR Inten    --     3.5427                 2.3361                 5.2566

                    19                     20                     21
                     A                      A                      A
 Frequencies --   517.4488               545.1679               566.0723
 Red. masses --     3.8848                 5.0445                 5.4975
 Frc consts  --     0.6128                 0.8833                 1.0379
 IR Inten    --     2.4767                 0.9517                 3.3423

                    22                     23                     24
                     A                      A                      A
 Frequencies --   612.5454               636.0831               696.9035
 Red. masses --     5.2613                 4.4651                 5.2924
 Frc consts  --     1.1631                 1.0644                 1.5144
 IR Inten    --     3.9270                 1.6104                 0.7697

                    25                     26                     27
                     A                      A                      A
 Frequencies --   743.0219               762.6501               785.8992
 Red. masses --     9.7837                 1.3016                 1.7660
 Frc consts  --     3.1824                 0.4460                 0.6427
 IR Inten    --    18.9635                52.4236                20.4134

                    28                     29                     30
                     A                      A                      A
 Frequencies --   798.5816               807.4738               830.8302
 Red. masses --     1.2497                 2.2997                 2.4130
 Frc consts  --     0.4696                 0.8834                 0.9814
 IR Inten    --     9.2903                 2.4083                 6.4439

                    31                     32                     33
                     A                      A                      A
 Frequencies --   860.0633               861.0861               935.1995
 Red. masses --     4.2819                 1.7130                 1.3640
 Frc consts  --     1.8662                 0.7484                 0.7029
 IR Inten    --     9.8173                 0.7160                 2.3836

                    34                     35                     36
                     A                      A                      A
 Frequencies --   954.2650               969.5896               971.7048
 Red. masses --     2.2867                 1.2586                 2.6522
 Frc consts  --     1.2269                 0.6971                 1.4755
 IR Inten    --    10.6320                 1.7136                48.9499

                    37                     38                     39
                     A                      A                      A
 Frequencies --  1057.0215              1064.7042              1103.6464
 Red. masses --     2.5122                 2.3457                 1.9460
 Frc consts  --     1.6537                 1.5667                 1.3965
 IR Inten    --     3.7412                24.3428                13.3218

                    40                     41                     42
                     A                      A                      A
 Frequencies --  1116.8368              1128.7821              1134.4716
 Red. masses --     1.7972                 1.7099                 1.7429
 Frc consts  --     1.3208                 1.2836                 1.3216
 IR Inten    --    14.2530                28.5254                30.4580

                    43                     44                     45
                     A                      A                      A
 Frequencies --  1185.2898              1190.1759              1228.8688
 Red. masses --     1.5825                 1.4605                 3.2346
 Frc consts  --     1.3099                 1.2189                 2.8780
 IR Inten    --   129.6707               148.3198               220.9627

                    46                     47                     48
                     A                      A                      A
 Frequencies --  1260.0518              1299.4474              1305.1112
 Red. masses --     2.7690                 1.6314                 2.9346
 Frc consts  --     2.5903                 1.6230                 2.9451
 IR Inten    --    28.3681               143.9697               271.1325

                    49                     50                     51
                     A                      A                      A
 Frequencies --  1312.2711              1354.6217              1357.7533
 Red. masses --     1.6129                 4.5535                 1.4932
 Frc consts  --     1.6365                 4.9231                 1.6219
 IR Inten    --    43.8497                11.4162                 7.3805

                    52                     53                     54
                     A                      A                      A
 Frequencies --  1399.7351              1421.0894              1438.0573
 Red. masses --     1.2750                 1.2865                 1.2901
 Frc consts  --     1.4718                 1.5307                 1.5719
 IR Inten    --    17.7774                12.4532                15.5032

                    55                     56                     57
                     A                      A                      A
 Frequencies --  1443.3025              1462.4674              1503.9966
 Red. masses --     1.2546                 2.0613                 2.3780
 Frc consts  --     1.5398                 2.5975                 3.1692
 IR Inten    --    21.0099               249.8449                11.5491

                    58                     59                     60
                     A                      A                      A
 Frequencies --  1508.1338              1522.0925              1523.6957
 Red. masses --     1.0730                 1.0433                 1.0622
 Frc consts  --     1.4380                 1.4241                 1.4530
 IR Inten    --     7.0170                 5.5055                 3.5209

                    61                     62                     63
                     A                      A                      A
 Frequencies --  1530.6667              1533.8692              1543.1052
 Red. masses --     1.0737                 1.0964                 1.0932
 Frc consts  --     1.4821                 1.5198                 1.5336
 IR Inten    --    29.4116                38.7647                18.7848

                    64                     65                     66
                     A                      A                      A
 Frequencies --  1555.1875              1654.1669              1663.8467
 Red. masses --     2.9799                 6.8297                 6.9702
 Frc consts  --     4.2463                11.0105                11.3689
 IR Inten    --   117.7038                16.7108                 2.6393

                    67                     68                     69
                     A                      A                      A
 Frequencies --  1819.5549              3051.8034              3055.0873
 Red. masses --    11.3604                 1.0357                 1.0375
 Frc consts  --    22.1603                 5.6831                 5.7053
 IR Inten    --   373.7188                20.2460                20.6559

                    70                     71                     72
                     A                      A                      A
 Frequencies --  3062.0941              3076.9974              3113.8997
 Red. masses --     1.0683                 1.0661                 1.1019
 Frc consts  --     5.9020                 5.9469                 6.2952
 IR Inten    --    30.7404                35.3786                 6.1217

                    73                     74                     75
                     A                      A                      A
 Frequencies --  3114.4439              3132.0435              3132.5685
 Red. masses --     1.1025                 1.0995                 1.0985
 Frc consts  --     6.3008                 6.3548                 6.3512
 IR Inten    --    33.3234                16.2534                35.3843

                    76                     77                     78
                     A                      A                      A
 Frequencies --  3148.2977              3153.4291              3197.1728
 Red. masses --     1.1003                 1.1026                 1.0865
 Frc consts  --     6.4254                 6.4602                 6.5433
 IR Inten    --    15.6055                20.0472                 2.5453

                    79                     80                     81
                     A                      A                      A
 Frequencies --  3211.6519              3224.5710              3246.8628
 Red. masses --     1.0922                 1.0950                 1.0933
 Frc consts  --     6.6373                 6.7085                 6.7910
 IR Inten    --    19.1001                 7.5926                 1.2907

 - Thermochemistry -
 -------------------
 Temperature   298.150 Kelvin.  Pressure   1.00000 Atm.
 Atom     1 has atomic number  6 and mass  12.00000

 Molecular mass:   211.10086 amu.
 Principal axes and moments of inertia in atomic units:
                           1         2         3
     Eigenvalues --  1555.044275038.289346243.58258
           X            0.99993   0.01134   0.00177
           Y           -0.01133   0.99993  -0.00365
           Z           -0.00181   0.00363   0.99999
 This molecule is an asymmetric top.
 Rotational symmetry number  1.
 Warning -- assumption of classical behavior for rotation
           may cause significant error
 Rotational temperatures (Kelvin)      0.05570     0.01719     0.01387
 Rotational constants (GHZ):           1.16057     0.35821     0.28906
 Zero-point vibrational energy     625134.1 (Joules/Mol)
                                  149.41064 (Kcal/Mol)
 Warning -- explicit consideration of  22 degrees of freedom as
           vibrations may cause significant error
 Vibrational temperatures:     31.52    52.85    69.84   122.58   134.00
          (Kelvin)            151.67   175.74   276.01   329.57   343.83
                              378.76   411.13   448.41   481.33   537.81
                              623.53   672.32   682.15   744.49   784.37
                              814.45   881.32   915.18  1002.69  1069.04
                             1097.28  1130.73  1148.98  1161.77  1195.38
                             1237.44  1238.91  1345.54  1372.97  1395.02
                             1398.06  1520.82  1531.87  1587.90  1606.88
                             1624.06  1632.25  1705.37  1712.40  1768.07
                             1812.93  1869.61  1877.76  1888.06  1949.00
                             1953.50  2013.90  2044.63  2069.04  2076.59
                             2104.16  2163.91  2169.87  2189.95  2192.26
                             2202.29  2206.89  2220.18  2237.57  2379.97
                             2393.90  2617.93  4390.86  4395.58  4405.66
                             4427.11  4480.20  4480.98  4506.31  4507.06
                             4529.69  4537.08  4600.01  4620.84  4639.43
                             4671.51

 Zero-point correction=                           0.238101 (Hartree/Particle)
 Thermal correction to Energy=                    0.252972
 Thermal correction to Enthalpy=                  0.253916
 Thermal correction to Gibbs Free Energy=         0.194294
 Sum of electronic and zero-point Energies=           -732.418563
 Sum of electronic and thermal Energies=              -732.403692
 Sum of electronic and thermal Enthalpies=            -732.402748
 Sum of electronic and thermal Free Energies=         -732.462371

                     E (Thermal)             CV                S
                      KCal/Mol        Cal/Mol-Kelvin    Cal/Mol-Kelvin
 Total                  158.742             54.760            125.486
 Electronic               0.000              0.000              0.000
 Translational            0.889              2.981             41.945
 Rotational               0.889              2.981             32.259
 Vibrational            156.965             48.799             51.282
 Vibration     1          0.593              1.985              6.453
 Vibration     2          0.594              1.982              5.428
 Vibration     3          0.595              1.978              4.876
 Vibration     4          0.601              1.959              3.767
 Vibration     5          0.602              1.954              3.593
 Vibration     6          0.605              1.945              3.352
 Vibration     7          0.610              1.931              3.066
 Vibration     8          0.634              1.851              2.210
 Vibration     9          0.652              1.797              1.886
 Vibration    10          0.657              1.781              1.811
 Vibration    11          0.670              1.740              1.640
 Vibration    12          0.684              1.700              1.499
 Vibration    13          0.700              1.651              1.353
 Vibration    14          0.716              1.607              1.238
 Vibration    15          0.745              1.526              1.064
 Vibration    16          0.794              1.398              0.848
 Vibration    17          0.825              1.323              0.745
 Vibration    18          0.831              1.307              0.726
 Vibration    19          0.872              1.211              0.616
 Vibration    20          0.900              1.150              0.554
 Vibration    21          0.922              1.105              0.512
 Vibration    22          0.972              1.005              0.429

 Optimization completed.
    -- Stationary point found.
 Normal termination of Gaussian 09 at Thu Sep 30 18:56:09 2021.
 Gaussian 09:  AM64L-G09RevA.02 11-Jun-2009

 ----------------------------------------------------------------------
 #p TD(NStates=10, Root=1) b3lyp/6-31G* volume pop=NPA density=current
 Geom=AllCheck Guess=Read
 ----------------------------------------------------------------------

 CCN(C(=O)Oc1ccccc1F)CC_conf_0
 -----------------------------
 Redundant internal coordinates taken from checkpoint file:
 C11H14FNO2_0756_conf_0.chk
 Charge =  0 Multiplicity = 1

                         Standard orientation:
 ---------------------------------------------------------------------
 Center     Atomic      Atomic             Coordinates (Angstroms)
 Number     Number       Type             X           Y           Z
 ---------------------------------------------------------------------
      1          6           0        2.034455    2.509682   -0.013155
      2          6           0        2.348833    1.237770    0.779486
      3          7           0        2.163739    0.005340    0.000975
      4          6           0        0.949291   -0.569356   -0.205197
      5          8           0        0.727514   -1.565248   -0.866523
      6          8           0       -0.032804    0.147710    0.463137
      7          6           0       -1.360986   -0.175049    0.257191
      8          6           0       -1.897414   -1.441440    0.483042
      9          6           0       -3.269406   -1.647747    0.327153
     10          6           0       -4.106326   -0.594150   -0.044740
     11          6           0       -3.574213    0.676840   -0.269993
     12          6           0       -2.207754    0.868829   -0.121919
     13          9           0       -1.677840    2.090751   -0.343633
     14          6           0        3.326431   -0.601613   -0.654551
     15          6           0        4.078563   -1.582474    0.248214
     16          1           0        2.244359    3.396481    0.596406
     17          1           0        0.978789    2.530383   -0.297314
     18          1           0        2.644081    2.570506   -0.921919
     19          1           0        1.726763    1.188452    1.675961
     20          1           0        3.391884    1.242675    1.113694
     21          1           0       -1.236114   -2.251708    0.764163
     22          1           0       -3.682379   -2.637160    0.499288
     23          1           0       -5.173656   -0.756921   -0.161431
     24          1           0       -4.194714    1.517939   -0.561679
     25          1           0        3.987799    0.212177   -0.974583
     26          1           0        2.971455   -1.113103   -1.551271
     27          1           0        4.426285   -1.096968    1.167470
     28          1           0        4.954333   -1.985391   -0.273624
     29          1           0        3.428973   -2.418939    0.524620
 ---------------------------------------------------------------------

 SCF Done:  E(RB3LYP) =  -732.656664294     A.U. after    2 cycles

 Excitation energies and oscillator strengths:

 Excited State   1:      Singlet-A      5.3496 eV  231.76 nm  f=0.0234  <S**2>=0.000
      54 -> 57         0.15837
      54 -> 58         0.35299
      55 -> 57        -0.24261
      56 -> 57         0.48543
      56 -> 58        -0.22695
 This state for optimization and/or second-order correction.
 Total Energy, E(TD-HF/TD-KS) =  -732.460070412
 Copying the excited state density for this state as the 1-particle RhoCI density.

 Excited State   2:      Singlet-A      5.7739 eV  214.73 nm  f=0.0431  <S**2>=0.000
      55 -> 57         0.56929
      56 -> 57         0.37989
      56 -> 58         0.16387

 Excited State   3:      Singlet-A      6.0087 eV  206.34 nm  f=0.0649  <S**2>=0.000
      54 -> 57        -0.30550
      54 -> 58         0.16168
      55 -> 57        -0.21588
      55 -> 58         0.20784
      56 -> 57         0.13052
      56 -> 58         0.51707

 Excited State   4:      Singlet-A      6.1154 eV  202.74 nm  f=0.0030  <S**2>=0.000
      54 -> 57         0.34025
      55 -> 58         0.59349

 Excited State   5:      Singlet-A      6.3411 eV  195.53 nm  f=0.0295  <S**2>=0.000
      53 -> 57         0.62445
      53 -> 58         0.15829
      53 -> 59         0.17999
      54 -> 57         0.14745

 Excited State   6:      Singlet-A      6.6708 eV  185.86 nm  f=0.1554  <S**2>=0.000
      53 -> 57        -0.20195
      53 -> 58         0.57321
      53 -> 59         0.13643
      54 -> 58         0.23261
      55 -> 59        -0.11160
      56 -> 57        -0.12486

 Excited State   7:      Singlet-A      6.8549 eV  180.87 nm  f=0.3223  <S**2>=0.000
      52 -> 57         0.12850
      53 -> 57        -0.17019
      53 -> 58         0.10949
      53 -> 59         0.17841
      54 -> 57         0.12619
      54 -> 58        -0.34276
      55 -> 57        -0.13167
      55 -> 59        -0.13938
      56 -> 57         0.13454
      56 -> 59         0.45033

 Excited State   8:      Singlet-A      6.9668 eV  177.97 nm  f=0.2504  <S**2>=0.000
      52 -> 57        -0.23653
      52 -> 58         0.11464
      53 -> 57        -0.12423
      53 -> 58        -0.24143
      54 -> 57         0.35992
      54 -> 58         0.12151
      54 -> 59         0.10844
      55 -> 58        -0.26261
      56 -> 57        -0.10863
      56 -> 58         0.30943
      56 -> 59         0.11407

 Excited State   9:      Singlet-A      7.0313 eV  176.33 nm  f=0.1678  <S**2>=0.000
      53 -> 58        -0.25254
      53 -> 59         0.49036
      54 -> 57        -0.17127
      54 -> 58         0.16222
      54 -> 59         0.13113
      55 -> 59        -0.28533
      56 -> 58        -0.10552

 Excited State  10:      Singlet-A      7.1802 eV  172.68 nm  f=0.1004  <S**2>=0.000
      52 -> 57        -0.21145
      52 -> 58        -0.18870
      53 -> 57         0.10508
      53 -> 59        -0.17891
      54 -> 57        -0.15401
      54 -> 58         0.22668
      54 -> 59        -0.15192
      55 -> 57         0.12105
      56 -> 58        -0.11010
      56 -> 59         0.42596
      56 -> 60        -0.19450

 The electronic state is 1-A.
 Alpha  occ. eigenvalues --  -24.70822 -19.19645 -19.11755 -14.36502 -10.33172
 Alpha  occ. eigenvalues --  -10.27238 -10.25475 -10.22606 -10.22291 -10.19790
 Alpha  occ. eigenvalues --  -10.19724 -10.19637 -10.19383 -10.18143 -10.17832
 Alpha  occ. eigenvalues --   -1.21849  -1.10672  -1.01565  -0.94148  -0.85957
 Alpha  occ. eigenvalues --   -0.77492  -0.76265  -0.75123  -0.73591  -0.66564
 Alpha  occ. eigenvalues --   -0.64334  -0.62761  -0.60997  -0.56927  -0.53431
 Alpha  occ. eigenvalues --   -0.52648  -0.50312  -0.48630  -0.48164  -0.46690
 Alpha  occ. eigenvalues --   -0.46021  -0.44592  -0.44232  -0.43706  -0.43227
 Alpha  occ. eigenvalues --   -0.41392  -0.40662  -0.39685  -0.38917  -0.37755
 Alpha  occ. eigenvalues --   -0.37256  -0.37100  -0.35682  -0.35523  -0.35355
 Alpha  occ. eigenvalues --   -0.34735  -0.31343  -0.27362  -0.25147  -0.24363
 Alpha  occ. eigenvalues --   -0.23530
 Alpha virt. eigenvalues --   -0.00598   0.00325   0.05199   0.07535   0.08509
 Alpha virt. eigenvalues --    0.11904   0.12466   0.13792   0.14599   0.14710
 Alpha virt. eigenvalues --    0.15286   0.15438   0.16064   0.16427   0.16924

 Mulliken atomic charges:
              1
     1  C   -0.451675
     2  C   -0.140091
     3  N   -0.436151
     4  C    0.790359
     5  O   -0.506352
     6  O   -0.536462
     7  C    0.281543
     8  C   -0.162034
     9  C   -0.141692
    10  C   -0.128589
    11  C   -0.222669
    12  C    0.337326
    13  F   -0.266738
    14  C   -0.149271
    15  C   -0.442901
    16  H    0.147581
    17  H    0.177991
    18  H    0.148435
    19  H    0.175034
    20  H    0.150309
    21  H    0.151168
    22  H    0.140131
    23  H    0.137210
    24  H    0.143353
    25  H    0.147811
    26  H    0.187837
    27  H    0.147129
    28  H    0.150605
    29  H    0.170802
 Sum of Mulliken atomic charges =  -0.00000

 Dipole moment (field-independent basis, Debye):
    X=              1.8903    Y=              1.0474    Z=              1.1300  Tot=              2.4387
 Quadrupole moment (field-independent basis, Debye-Ang):
   XX=            -71.2251   YY=            -88.0472   ZZ=            -89.3490
   XY=              3.3421   XZ=              0.7968   YZ=             -2.5550

 Summary of Natural Population Analysis:

                                       Natural Population
                Natural  -----------------------------------------------
    Atom  No    Charge         Core      Valence    Rydberg      Total
 -----------------------------------------------------------------------
      C    1   -0.69068      1.99944     4.68365    0.00759     6.69068
      C    2   -0.25990      1.99935     4.24554    0.01502     6.25990
      N    3   -0.48787      1.99930     5.47498    0.01359     7.48787
      C    4    0.93693      1.99936     3.01831    0.04541     5.06307
      O    5   -0.63462      1.99978     6.61565    0.01919     8.63462
      O    6   -0.53254      1.99969     6.52133    0.01151     8.53254
      C    7    0.23721      1.99869     3.73936    0.02475     5.76279
      C    8   -0.30577      1.99906     4.28770    0.01901     6.30577
      C    9   -0.20389      1.99914     4.18753    0.01722     6.20389
      C   10   -0.22735      1.99915     4.21067    0.01754     6.22735
      C   11   -0.34110      1.99905     4.32202    0.02003     6.34110
      C   12    0.40822      1.99839     3.56532    0.02807     5.59178
      F   13   -0.30621      1.99994     7.30043    0.00584     9.30621
      C   14   -0.25620      1.99935     4.24151    0.01534     6.25620
      C   15   -0.68769      1.99945     4.68083    0.00742     6.68769
      H   16    0.23526      0.00000     0.76384    0.00090     0.76474
      H   17    0.24597      0.00000     0.75173    0.00231     0.75403
      H   18    0.22728      0.00000     0.77177    0.00095     0.77272
      H   19    0.25136      0.00000     0.74705    0.00159     0.74864
      H   20    0.23290      0.00000     0.76574    0.00136     0.76710
      H   21    0.25122      0.00000     0.74774    0.00104     0.74878
      H   22    0.23520      0.00000     0.76398    0.00081     0.76480
      H   23    0.23472      0.00000     0.76448    0.00080     0.76528
      H   24    0.24416      0.00000     0.75469    0.00115     0.75584
      H   25    0.22856      0.00000     0.77010    0.00134     0.77144
      H   26    0.26127      0.00000     0.73673    0.00200     0.73873
      H   27    0.22537      0.00000     0.77371    0.00092     0.77463
      H   28    0.23685      0.00000     0.76228    0.00087     0.76315
      H   29    0.24134      0.00000     0.75747    0.00119     0.75866
 =======================================================================
   * Total *   -0.00000     29.98913    81.72613    0.28474   112.00000

 Normal termination of Gaussian 09 at Thu Sep 30 23:21:04 2021.
