 Gaussian 09, Revision A.02,

 -----------------------------------
 #p opt b3lyp/6-31G* scf=(xqc,tight)
 -----------------------------------

 --------------------------
 COc1ccc(cc1)n1cccc1_conf_0
 --------------------------
 Symbolic Z-matrix:
 Charge =  0 Multiplicity = 1

 SCF Done:  E(RB3LYP) =  -555.736474608     A.U. after   14 cycles
 SCF Done:  E(RB3LYP) =  -555.737893653     A.U. after   15 cycles
 SCF Done:  E(RB3LYP) =  -555.738041692     A.U. after   10 cycles
 SCF Done:  E(RB3LYP) =  -555.738050674     A.U. after    8 cycles
 SCF Done:  E(RB3LYP) =  -555.738053428     A.U. after    8 cycles
 SCF Done:  E(RB3LYP) =  -555.738058744     A.U. after    9 cycles
 SCF Done:  E(RB3LYP) =  -555.719073793     A.U. after   13 cycles
 SCF Done:  E(RB3LYP) =  -555.738061650     A.U. after   13 cycles
 SCF Done:  E(RB3LYP) =  -555.738224974     A.U. after   12 cycles
 SCF Done:  E(RB3LYP) =  -555.738269114     A.U. after   12 cycles
 SCF Done:  E(RB3LYP) =  -555.740173838     A.U. after   12 cycles
 SCF Done:  E(RB3LYP) =  -555.740395807     A.U. after   11 cycles
 SCF Done:  E(RB3LYP) =  -555.740671111     A.U. after   11 cycles
 SCF Done:  E(RB3LYP) =  -555.740907521     A.U. after   11 cycles
 SCF Done:  E(RB3LYP) =  -555.740976959     A.U. after   11 cycles
 SCF Done:  E(RB3LYP) =  -555.740981601     A.U. after    9 cycles
 SCF Done:  E(RB3LYP) =  -555.740982003     A.U. after    8 cycles
 SCF Done:  E(RB3LYP) =  -555.740982149     A.U. after    7 cycles
 Optimization completed.
    -- Stationary point found.
 Normal termination of Gaussian 09 at Tue Sep 28 23:30:29 2021.

 ----------------------------------------------------------------------
 #p freq b3lyp/6-31G* volume NMR pop=NPA density=current Geom=AllCheck
 Guess=Read
 ----------------------------------------------------------------------

 COc1ccc(cc1)n1cccc1_conf_0
 --------------------------
 Redundant internal coordinates taken from checkpoint file:
 C11H11NO_f632_conf_0.chk
 Charge =  0 Multiplicity = 1

 SCF Done:  E(RB3LYP) =  -555.740982149     A.U. after    1 cycles

  1  C    Isotropic =   137.3721   Anisotropy =    65.2815

  2  O    Isotropic =   238.8990   Anisotropy =    78.7987

  3  C    Isotropic =    41.0274   Anisotropy =   125.0104

  4  C    Isotropic =    85.7918   Anisotropy =   143.2692

  5  C    Isotropic =    73.2892   Anisotropy =   142.5615

  6  C    Isotropic =    61.0781   Anisotropy =   128.0763

  7  C    Isotropic =    72.6925   Anisotropy =   143.2207

  8  C    Isotropic =    77.3564   Anisotropy =   135.8406

  9  N    Isotropic =    80.0703   Anisotropy =   132.7367

 10  C    Isotropic =    78.5735   Anisotropy =    88.9469

 11  C    Isotropic =    85.1971   Anisotropy =   121.7135

 12  C    Isotropic =    85.1769   Anisotropy =   121.8621

 13  C    Isotropic =    78.4506   Anisotropy =    89.4575

 14  H    Isotropic =    28.2704   Anisotropy =     8.0791

 15  H    Isotropic =    28.6336   Anisotropy =     7.9700

 16  H    Isotropic =    28.6405   Anisotropy =     8.0149

 17  H    Isotropic =    25.7737   Anisotropy =     7.2715

 18  H    Isotropic =    25.1629   Anisotropy =     8.2492

 19  H    Isotropic =    25.1197   Anisotropy =     7.8544

 20  H    Isotropic =    25.4456   Anisotropy =     5.7192

 21  H    Isotropic =    25.6742   Anisotropy =     5.0899

 22  H    Isotropic =    26.1825   Anisotropy =     3.0148

 23  H    Isotropic =    26.1693   Anisotropy =     3.0122

 24  H    Isotropic =    25.6659   Anisotropy =     5.1164

  Exact polarizability: 197.883   0.842 113.706   0.588   2.396  58.121
 Approx polarizability: 272.202  -2.933 200.263   2.243   2.765  90.105

                     1                      2                      3
                     A                      A                      A
 Frequencies --    56.9064                69.3362               100.0090
 Red. masses --     3.5888                 3.7587                 4.1839
 Frc consts  --     0.0068                 0.0106                 0.0247
 IR Inten    --     1.0258                 0.8998                 1.0675

                     4                      5                      6
                     A                      A                      A
 Frequencies --   115.6253               200.9132               241.4665
 Red. masses --     4.1845                 2.8159                 2.5628
 Frc consts  --     0.0330                 0.0670                 0.0880
 IR Inten    --     2.3881                 1.1052                 1.9500

                     7                      8                      9
                     A                      A                      A
 Frequencies --   263.8126               313.5297               391.3318
 Red. masses --     1.4961                 6.5099                 5.4779
 Frc consts  --     0.0613                 0.3770                 0.4943
 IR Inten    --     0.8261                 0.3041                 1.0678

                    10                     11                     12
                     A                      A                      A
 Frequencies --   429.8285               435.7117               500.5796
 Red. masses --     3.3600                 4.3940                 3.8108
 Frc consts  --     0.3657                 0.4915                 0.5626
 IR Inten    --     0.0275                 0.6730                 0.5910

                    13                     14                     15
                     A                      A                      A
 Frequencies --   549.4430               619.0135               624.7779
 Red. masses --     2.4293                 4.4994                 4.3626
 Frc consts  --     0.4321                 1.0158                 1.0033
 IR Inten    --     8.3114                21.3632                 6.4173

                    16                     17                     18
                     A                      A                      A
 Frequencies --   629.2614               660.2799               678.6767
 Red. masses --     5.0435                 5.7257                 1.2836
 Frc consts  --     1.1766                 1.4707                 0.3483
 IR Inten    --     5.3510                 4.2401                 0.9065

                    19                     20                     21
                     A                      A                      A
 Frequencies --   723.6378               735.3698               812.7586
 Red. masses --     4.1964                 1.1741                 1.2576
 Frc consts  --     1.2947                 0.3741                 0.4895
 IR Inten    --     1.7959                80.3712                 1.4236

                    22                     23                     24
                     A                      A                      A
 Frequencies --   815.7493               821.9069               850.5469
 Red. masses --     4.7125                 1.3211                 1.6550
 Frc consts  --     1.8476                 0.5258                 0.7054
 IR Inten    --     3.3269                 4.2166                49.9515

                    25                     26                     27
                     A                      A                      A
 Frequencies --   865.3245               885.4522               939.9522
 Red. masses --     1.2438                 5.7659                 1.3356
 Frc consts  --     0.5487                 2.6635                 0.6953
 IR Inten    --     0.0206                 0.0589                 0.7553

                    28                     29                     30
                     A                      A                      A
 Frequencies --   942.6745               957.7818              1027.6996
 Red. masses --     3.7372                 1.2892                 2.7506
 Frc consts  --     1.9567                 0.6968                 1.7116
 IR Inten    --    19.5668                 0.1058                 1.8939

                    31                     32                     33
                     A                      A                      A
 Frequencies --  1048.2641              1079.7859              1100.5637
 Red. masses --     1.7108                 5.4764                 1.5874
 Frc consts  --     1.1076                 3.7620                 1.1328
 IR Inten    --    10.5354                58.6481                51.5902

                    34                     35                     36
                     A                      A                      A
 Frequencies --  1102.1918              1141.9511              1149.3949
 Red. masses --     1.2937                 1.2966                 2.2828
 Frc consts  --     0.9260                 0.9962                 1.7769
 IR Inten    --    20.4248                10.4972                 7.5644

                    37                     38                     39
                     A                      A                      A
 Frequencies --  1184.7480              1205.4407              1218.3096
 Red. masses --     1.2705                 1.1489                 1.3869
 Frc consts  --     1.0507                 0.9836                 1.2129
 IR Inten    --     0.8090                13.8573                 8.2362

                    40                     41                     42
                     A                      A                      A
 Frequencies --  1282.8927              1298.3438              1330.7212
 Red. masses --     1.7187                 3.3438                 1.6756
 Frc consts  --     1.6666                 3.3210                 1.7482
 IR Inten    --    20.3294               310.4235                 9.2308

                    43                     44                     45
                     A                      A                      A
 Frequencies --  1348.4002              1367.4025              1380.9176
 Red. masses --     2.4350                 3.9599                 5.2305
 Frc consts  --     2.6084                 4.3624                 5.8767
 IR Inten    --    45.6923                27.7103                 3.1758

                    46                     47                     48
                     A                      A                      A
 Frequencies --  1446.0285              1475.0371              1500.0470
 Red. masses --     4.5105                 3.3937                 1.2102
 Frc consts  --     5.5568                 4.3503                 1.6044
 IR Inten    --    17.7830                 0.3221                22.4239

                    49                     50                     51
                     A                      A                      A
 Frequencies --  1520.9514              1532.4469              1534.6090
 Red. masses --     1.0481                 2.9061                 1.0820
 Frc consts  --     1.4285                 4.0209                 1.5013
 IR Inten    --     5.6625                24.1629                71.8037

                    52                     53                     54
                     A                      A                      A
 Frequencies --  1570.3264              1582.6435              1636.9630
 Red. masses --     2.7185                 4.3025                 6.9312
 Frc consts  --     3.9496                 6.3495                10.9429
 IR Inten    --   340.2206                 2.3418                 7.9455

                    55                     56                     57
                     A                      A                      A
 Frequencies --  1677.8880              3024.7001              3083.2343
 Red. masses --     5.9217                 1.0349                 1.1067
 Frc consts  --     9.8225                 5.5786                 6.1988
 IR Inten    --     7.7805                59.6047                44.0386

                    58                     59                     60
                     A                      A                      A
 Frequencies --  3158.6119              3206.0246              3208.2822
 Red. masses --     1.0995                 1.0877                 1.0888
 Frc consts  --     6.4633                 6.5874                 6.6031
 IR Inten    --    27.4532                14.1792                 3.8582

                    61                     62                     63
                     A                      A                      A
 Frequencies --  3221.8422              3228.3586              3250.9023
 Red. masses --     1.0947                 1.0927                 1.0884
 Frc consts  --     6.6948                 6.7097                 6.7774
 IR Inten    --     5.6229                 8.2603                 4.9088

                    64                     65                     66
                     A                      A                      A
 Frequencies --  3263.4219              3283.9359              3288.6359
 Red. masses --     1.0941                 1.0983                 1.1041
 Frc consts  --     6.8651                 6.9782                 7.0355
 IR Inten    --     7.5765                 3.0180                 1.4568

 - Thermochemistry -
 -------------------
 Temperature   298.150 Kelvin.  Pressure   1.00000 Atm.
 Atom     1 has atomic number  6 and mass  12.00000

 Molecular mass:   173.08406 amu.
 Principal axes and moments of inertia in atomic units:
                           1         2         3
     Eigenvalues --   572.993094857.831245302.12380
           X            0.99996   0.00905  -0.00164
           Y           -0.00904   0.99995   0.00384
           Z            0.00168  -0.00382   0.99999
 This molecule is an asymmetric top.
 Rotational symmetry number  1.
 Warning -- assumption of classical behavior for rotation
           may cause significant error
 Rotational temperatures (Kelvin)      0.15116     0.01783     0.01634
 Rotational constants (GHZ):           3.14967     0.37151     0.34038
 Zero-point vibrational energy     515552.1 (Joules/Mol)
                                  123.21990 (Kcal/Mol)
 Warning -- explicit consideration of  14 degrees of freedom as
           vibrations may cause significant error
 Vibrational temperatures:     81.88    99.76   143.89   166.36   289.07
          (Kelvin)            347.42   379.57   451.10   563.04   618.43
                              626.89   720.22   790.52   890.62   898.91
                              905.37   949.99   976.46  1041.15  1058.03
                             1169.38  1173.68  1182.54  1223.75  1245.01
                             1273.97  1352.38  1356.30  1378.03  1478.63
                             1508.22  1553.57  1583.46  1585.81  1643.01
                             1653.72  1704.59  1734.36  1752.87  1845.79
                             1868.02  1914.61  1940.04  1967.38  1986.83
                             2080.51  2122.25  2158.23  2188.31  2204.85
                             2207.96  2259.35  2277.07  2355.22  2414.10
                             4351.86  4436.08  4544.53  4612.75  4616.00
                             4635.51  4644.88  4677.32  4695.33  4724.85
                             4731.61

 Zero-point correction=                           0.196363 (Hartree/Particle)
 Thermal correction to Energy=                    0.207237
 Thermal correction to Enthalpy=                  0.208181
 Thermal correction to Gibbs Free Energy=         0.159115
 Sum of electronic and zero-point Energies=           -555.544619
 Sum of electronic and thermal Energies=              -555.533745
 Sum of electronic and thermal Enthalpies=            -555.532801
 Sum of electronic and thermal Free Energies=         -555.581867

                     E (Thermal)             CV                S
                      KCal/Mol        Cal/Mol-Kelvin    Cal/Mol-Kelvin
 Total                  130.043             42.639            103.269
 Electronic               0.000              0.000              0.000
 Translational            0.889              2.981             41.353
 Rotational               0.889              2.981             31.068
 Vibrational            128.266             36.677             30.848
 Vibration     1          0.596              1.975              4.562
 Vibration     2          0.598              1.969              4.172
 Vibration     3          0.604              1.949              3.454
 Vibration     4          0.608              1.936              3.172
 Vibration     5          0.638              1.839              2.125
 Vibration     6          0.658              1.777              1.792
 Vibration     7          0.670              1.739              1.636
 Vibration     8          0.701              1.648              1.344
 Vibration     9          0.759              1.489              0.995
 Vibration    10          0.791              1.405              0.859
 Vibration    11          0.796              1.392              0.840
 Vibration    12          0.856              1.249              0.657
 Vibration    13          0.905              1.141              0.545
 Vibration    14          0.979              0.992              0.418

 Optimization completed.
    -- Stationary point found.
 Normal termination of Gaussian 09 at Wed Sep 29 00:03:20 2021.
 Gaussian 09:  AM64L-G09RevA.02 11-Jun-2009

 ----------------------------------------------------------------------
 #p TD(NStates=10, Root=1) b3lyp/6-31G* volume pop=NPA density=current
 Geom=AllCheck Guess=Read
 ----------------------------------------------------------------------

 COc1ccc(cc1)n1cccc1_conf_0
 --------------------------
 Redundant internal coordinates taken from checkpoint file:
 C11H11NO_f632_conf_0.chk
 Charge =  0 Multiplicity = 1

                         Standard orientation:
 ---------------------------------------------------------------------
 Center     Atomic      Atomic             Coordinates (Angstroms)
 Number     Number       Type             X           Y           Z
 ---------------------------------------------------------------------
      1          6           0       -4.526408   -0.651558    0.154539
      2          8           0       -3.677685    0.456915   -0.095737
      3          6           0       -2.327575    0.257988   -0.054162
      4          6           0       -1.707623   -0.965672    0.222109
      5          6           0       -0.313637   -1.049038    0.250086
      6          6           0        0.475244    0.071033   -0.017893
      7          6           0       -0.151863    1.292517   -0.306013
      8          6           0       -1.536333    1.387115   -0.313141
      9          7           0        1.890950   -0.022220   -0.000327
     10          6           0        2.637862   -1.080213   -0.487249
     11          6           0        3.969714   -0.800271   -0.285661
     12          6           0        4.044891    0.472473    0.351590
     13          6           0        2.756631    0.927898    0.511989
     14          1           0       -5.546506   -0.272755    0.069294
     15          1           0       -4.374279   -1.057610    1.163532
     16          1           0       -4.374529   -1.451711   -0.582286
     17          1           0       -2.291670   -1.853683    0.434381
     18          1           0        0.162000   -1.991776    0.502028
     19          1           0        0.452160    2.162907   -0.542530
     20          1           0       -2.030874    2.327309   -0.535633
     21          1           0        2.152222   -1.912769   -0.974399
     22          1           0        4.798390   -1.432862   -0.574400
     23          1           0        4.941040    0.990497    0.665932
     24          1           0        2.371463    1.819035    0.985109
 ---------------------------------------------------------------------

 SCF Done:  E(RB3LYP) =  -555.740982148     A.U. after    1 cycles

 Excitation energies and oscillator strengths:

 Excited State   1:      Singlet-A      4.5900 eV  270.12 nm  f=0.0001  <S**2>=0.000
      46 -> 47         0.70530
 This state for optimization and/or second-order correction.
 Total Energy, E(TD-HF/TD-KS) =  -555.572304081
 Copying the excited state density for this state as the 1-particle RhoCI density.

 Excited State   2:      Singlet-A      4.6558 eV  266.30 nm  f=0.0276  <S**2>=0.000
      43 -> 48        -0.19488
      45 -> 47         0.66679

 Excited State   3:      Singlet-A      4.8966 eV  253.21 nm  f=0.0080  <S**2>=0.000
      46 -> 48         0.69821

 Excited State   4:      Singlet-A      5.1162 eV  242.34 nm  f=0.4819  <S**2>=0.000
      43 -> 47         0.11263
      45 -> 48         0.68019

 Excited State   5:      Singlet-A      5.8047 eV  213.59 nm  f=0.0010  <S**2>=0.000
      43 -> 47        -0.18231
      43 -> 48         0.22069
      44 -> 47         0.62888
      44 -> 48         0.11943

 Excited State   6:      Singlet-A      6.1574 eV  201.36 nm  f=0.0062  <S**2>=0.000
      43 -> 47        -0.19603
      44 -> 47        -0.13945
      44 -> 48         0.60903
      45 -> 49        -0.22121

 Excited State   7:      Singlet-A      6.3966 eV  193.83 nm  f=0.0510  <S**2>=0.000
      43 -> 47        -0.30417
      44 -> 47        -0.11298
      45 -> 49         0.58515
      46 -> 50        -0.15615
      46 -> 51         0.12368

 Excited State   8:      Singlet-A      6.6882 eV  185.38 nm  f=0.0291  <S**2>=0.000
      43 -> 48         0.37296
      44 -> 47        -0.13692
      45 -> 50         0.13933
      46 -> 49         0.52676

 Excited State   9:      Singlet-A      6.7789 eV  182.90 nm  f=0.1731  <S**2>=0.000
      42 -> 47        -0.16947
      43 -> 48         0.45592
      44 -> 47        -0.18328
      45 -> 47         0.13258
      45 -> 50        -0.21428
      46 -> 49        -0.37093

 Excited State  10:      Singlet-A      6.9294 eV  178.93 nm  f=0.6725  <S**2>=0.000
      43 -> 47         0.51414
      43 -> 48         0.10379
      44 -> 48         0.19705
      44 -> 49         0.13159
      45 -> 48        -0.14217
      45 -> 49         0.14275
      46 -> 50        -0.28442
      46 -> 51         0.14635

 The electronic state is 1-A.
 Alpha  occ. eigenvalues --  -19.18215 -14.38086 -10.25171 -10.24546 -10.23018
 Alpha  occ. eigenvalues --  -10.19824 -10.19735 -10.19598 -10.19591 -10.19590
 Alpha  occ. eigenvalues --  -10.19210 -10.16326 -10.16281  -1.06805  -0.97973
 Alpha  occ. eigenvalues --   -0.85914  -0.79258  -0.75795  -0.73757  -0.71260
 Alpha  occ. eigenvalues --   -0.69195  -0.62231  -0.60868  -0.55888  -0.55632
 Alpha  occ. eigenvalues --   -0.54133  -0.52747  -0.48856  -0.47257  -0.45824
 Alpha  occ. eigenvalues --   -0.44248  -0.43263  -0.42613  -0.41684  -0.40429
 Alpha  occ. eigenvalues --   -0.39098  -0.38039  -0.37687  -0.36684  -0.36284
 Alpha  occ. eigenvalues --   -0.33183  -0.32410  -0.25901  -0.25120  -0.20415
 Alpha  occ. eigenvalues --   -0.20367
 Alpha virt. eigenvalues --   -0.00939  -0.00021   0.05655   0.08351   0.09494
 Alpha virt. eigenvalues --    0.10467   0.12318   0.12937   0.13494   0.15053
 Alpha virt. eigenvalues --    0.15836   0.16321   0.16481   0.17434   0.18132

 Mulliken atomic charges:
              1
     1  C   -0.195437
     2  O   -0.514166
     3  C    0.393795
     4  C   -0.265179
     5  C   -0.261591
     6  C    0.284113
     7  C   -0.224366
     8  C   -0.269736
     9  N   -0.493096
    10  C    0.157616
    11  C   -0.176595
    12  C   -0.172919
    13  C    0.156507
    14  H    0.146860
    15  H    0.139222
    16  H    0.138742
    17  H    0.078992
    18  H    0.055324
    19  H    0.061422
    20  H    0.078816
    21  H    0.248336
    22  H    0.191764
    23  H    0.193549
    24  H    0.248028
 Sum of Mulliken atomic charges =  -0.00000

 Dipole moment (field-independent basis, Debye):
    X=             10.4903    Y=             -1.7103    Z=              0.3850  Tot=             10.6357
 Quadrupole moment (field-independent basis, Debye-Ang):
   XX=            -47.0366   YY=            -70.9310   ZZ=            -78.2082
   XY=              4.8346   XZ=             -0.6819   YZ=              4.2361

 Summary of Natural Population Analysis:

                                       Natural Population
                Natural  -----------------------------------------------
    Atom  No    Charge         Core      Valence    Rydberg      Total
 -----------------------------------------------------------------------
      C    1   -0.30935      1.99944     4.29634    0.01358     6.30935
      O    2   -0.52478      1.99974     6.51350    0.01154     8.52478
      C    3    0.36164      1.99878     3.61643    0.02315     5.63836
      C    4   -0.42905      1.99903     4.41270    0.01732     6.42905
      C    5   -0.39570      1.99907     4.37743    0.01920     6.39570
      C    6    0.06090      1.99891     3.92087    0.01932     5.93910
      C    7   -0.34274      1.99906     4.32723    0.01646     6.34274
      C    8   -0.43345      1.99905     4.41345    0.02096     6.43345
      N    9   -0.36720      1.99932     5.35624    0.01164     7.36720
      C   10    0.20029      1.99916     3.78499    0.01556     5.79971
      C   11   -0.27500      1.99915     4.26201    0.01383     6.27500
      C   12   -0.26040      1.99915     4.24749    0.01376     6.26040
      C   13    0.19727      1.99916     3.78797    0.01560     5.80273
      H   14    0.21406      0.00000     0.78536    0.00058     0.78594
      H   15    0.19627      0.00000     0.80112    0.00261     0.80373
      H   16    0.19614      0.00000     0.80122    0.00265     0.80386
      H   17    0.21494      0.00000     0.78437    0.00069     0.78506
      H   18    0.19614      0.00000     0.80354    0.00032     0.80386
      H   19    0.19902      0.00000     0.80060    0.00038     0.80098
      H   20    0.22158      0.00000     0.77748    0.00094     0.77842
      H   21    0.27384      0.00000     0.72557    0.00058     0.72616
      H   22    0.26593      0.00000     0.73405    0.00002     0.73407
      H   23    0.26591      0.00000     0.73409    0.00000     0.73409
      H   24    0.27375      0.00000     0.72571    0.00055     0.72625
 =======================================================================
   * Total *   -0.00001     25.98903    65.78975    0.22124    92.00001

 Normal termination of Gaussian 09 at Wed Sep 29 02:47:36 2021.
