 Gaussian 09, Revision A.02,

 -----------------------------------
 #p opt b3lyp/6-31G* scf=(xqc,tight)
 -----------------------------------

 ---------------------------------
 CN(C(=O)Oc1ccc(cc1)N(C)C)C_conf_0
 ---------------------------------
 Symbolic Z-matrix:
 Charge =  0 Multiplicity = 1

 SCF Done:  E(RB3LYP) =  -688.751124714     A.U. after   15 cycles
 SCF Done:  E(RB3LYP) =  -688.756383667     A.U. after   12 cycles
 SCF Done:  E(RB3LYP) =  -688.757272585     A.U. after   12 cycles
 SCF Done:  E(RB3LYP) =  -688.757588924     A.U. after   12 cycles
 SCF Done:  E(RB3LYP) =  -688.758307006     A.U. after   12 cycles
 SCF Done:  E(RB3LYP) =  -688.758617430     A.U. after   12 cycles
 SCF Done:  E(RB3LYP) =  -688.758752829     A.U. after   11 cycles
 SCF Done:  E(RB3LYP) =  -688.758799028     A.U. after   11 cycles
 SCF Done:  E(RB3LYP) =  -688.758832298     A.U. after   10 cycles
 SCF Done:  E(RB3LYP) =  -688.758850648     A.U. after   10 cycles
 SCF Done:  E(RB3LYP) =  -688.759786335     A.U. after    7 cycles
 SCF Done:  E(RB3LYP) =  -688.759786361     A.U. after    6 cycles
 SCF Done:  E(RB3LYP) =  -688.759786385     A.U. after    6 cycles
 SCF Done:  E(RB3LYP) =  -688.759786401     A.U. after    6 cycles
 SCF Done:  E(RB3LYP) =  -688.759786409     A.U. after    6 cycles
 SCF Done:  E(RB3LYP) =  -688.759786415     A.U. after    6 cycles
 SCF Done:  E(RB3LYP) =  -688.759786422     A.U. after    6 cycles
 SCF Done:  E(RB3LYP) =  -688.759786426     A.U. after    6 cycles
 Optimization completed.
    -- Stationary point found.
 Normal termination of Gaussian 09 at Thu Sep 30 04:38:49 2021.

 ----------------------------------------------------------------------
 #p freq b3lyp/6-31G* volume NMR pop=NPA density=current Geom=AllCheck
 Guess=Read
 ----------------------------------------------------------------------

 CN(C(=O)Oc1ccc(cc1)N(C)C)C_conf_0
 ---------------------------------
 Redundant internal coordinates taken from checkpoint file:
 C11H16N2O2_2334_conf_0.chk
 Charge =  0 Multiplicity = 1

 SCF Done:  E(RB3LYP) =  -688.759786425     A.U. after    1 cycles

  1  C    Isotropic =   155.7428   Anisotropy =    49.3585

  2  N    Isotropic =   181.5607   Anisotropy =    84.8502

  3  C    Isotropic =    46.3574   Anisotropy =    73.7400

  4  O    Isotropic =    68.2788   Anisotropy =   389.8544

  5  O    Isotropic =   152.1872   Anisotropy =   126.3964

  6  C    Isotropic =    53.4872   Anisotropy =    97.6718

  7  C    Isotropic =    75.1390   Anisotropy =   138.4036

  8  C    Isotropic =    84.5790   Anisotropy =   137.3192

  9  C    Isotropic =    52.8110   Anisotropy =   149.0168

 10  C    Isotropic =    83.9529   Anisotropy =   136.9052

 11  C    Isotropic =    71.6005   Anisotropy =   151.3007

 12  N    Isotropic =   205.2124   Anisotropy =    82.8279

 13  C    Isotropic =   149.7259   Anisotropy =    52.0580

 14  C    Isotropic =   149.6679   Anisotropy =    52.2485

 15  C    Isotropic =   155.3869   Anisotropy =    51.0386

 16  H    Isotropic =    28.2794   Anisotropy =     5.1735

 17  H    Isotropic =    29.8236   Anisotropy =     8.9135

 18  H    Isotropic =    29.7007   Anisotropy =     9.1717

 19  H    Isotropic =    25.5682   Anisotropy =     6.7074

 20  H    Isotropic =    25.9084   Anisotropy =     8.6993

 21  H    Isotropic =    25.8633   Anisotropy =     8.8491

 22  H    Isotropic =    25.0967   Anisotropy =     8.5480

 23  H    Isotropic =    28.9907   Anisotropy =     8.8615

 24  H    Isotropic =    29.7266   Anisotropy =     8.0171

 25  H    Isotropic =    29.3005   Anisotropy =     8.8872

 26  H    Isotropic =    28.9921   Anisotropy =     8.8863

 27  H    Isotropic =    29.3499   Anisotropy =     8.8865

 28  H    Isotropic =    29.7289   Anisotropy =     8.0158

 29  H    Isotropic =    29.9392   Anisotropy =     9.3775

 30  H    Isotropic =    29.9875   Anisotropy =     9.2124

 31  H    Isotropic =    28.1764   Anisotropy =     6.8347

  Exact polarizability: 213.908   5.070 126.348  -6.270   8.400  82.656
 Approx polarizability: 267.594  10.094 207.067 -10.763  15.621 125.431

                     1                      2                      3
                     A                      A                      A
 Frequencies --    26.5912                37.6381                52.9846
 Red. masses --     3.3775                 3.4970                 1.4613
 Frc consts  --     0.0014                 0.0029                 0.0024
 IR Inten    --     1.4875                 2.8465                 0.3060

                     4                      5                      6
                     A                      A                      A
 Frequencies --    61.5447                70.4478               110.9314
 Red. masses --     3.3475                 3.1468                 2.9040
 Frc consts  --     0.0075                 0.0092                 0.0211
 IR Inten    --     1.7228                 1.8604                 3.5680

                     7                      8                      9
                     A                      A                      A
 Frequencies --   116.9264               149.1237               155.9667
 Red. masses --     3.4126                 1.3604                 1.4764
 Frc consts  --     0.0275                 0.0178                 0.0212
 IR Inten    --     0.6994                 2.7405                 3.4752

                    10                     11                     12
                     A                      A                      A
 Frequencies --   192.0938               219.9979               224.6869
 Red. masses --     1.6299                 1.9308                 4.3591
 Frc consts  --     0.0354                 0.0551                 0.1297
 IR Inten    --     0.3123                 4.6416                 3.0402

                    13                     14                     15
                     A                      A                      A
 Frequencies --   237.1398               264.3308               353.6864
 Red. masses --     2.2071                 1.7928                 3.3850
 Frc consts  --     0.0731                 0.0738                 0.2495
 IR Inten    --     3.4905                 0.3886                10.6575

                    16                     17                     18
                     A                      A                      A
 Frequencies --   388.8789               399.1755               410.1849
 Red. masses --     3.9761                 4.8273                 3.3941
 Frc consts  --     0.3543                 0.4532                 0.3365
 IR Inten    --     8.4136                 1.9216                 4.7674

                    19                     20                     21
                     A                      A                      A
 Frequencies --   429.2604               471.3779               490.4083
 Red. masses --     3.2396                 2.9442                 3.6275
 Frc consts  --     0.3517                 0.3854                 0.5140
 IR Inten    --     0.5439                 3.2128                 5.2706

                    22                     23                     24
                     A                      A                      A
 Frequencies --   528.3559               573.2813               625.1839
 Red. masses --     2.4964                 3.9867                 4.9575
 Frc consts  --     0.4106                 0.7720                 1.1416
 IR Inten    --     6.3647                 6.1861                 1.9990

                    25                     26                     27
                     A                      A                      A
 Frequencies --   658.0052               714.2161               739.9692
 Red. masses --     6.8762                 3.9754                 6.4081
 Frc consts  --     1.7541                 1.1948                 2.0673
 IR Inten    --     2.2933                 0.4667                12.1321

                    28                     29                     30
                     A                      A                      A
 Frequencies --   741.0206               802.7452               818.8491
 Red. masses --     7.7778                 1.2559                 2.1729
 Frc consts  --     2.5163                 0.4768                 0.8584
 IR Inten    --    11.5844                 0.2459                36.7711

                    31                     32                     33
                     A                      A                      A
 Frequencies --   855.9838               865.8709               930.5391
 Red. masses --     5.5116                 4.8225                 1.3034
 Frc consts  --     2.3794                 2.1302                 0.6650
 IR Inten    --    10.8760                47.1683                 0.2138

                    34                     35                     36
                     A                      A                      A
 Frequencies --   934.8413               971.3163              1026.6397
 Red. masses --     1.3504                 3.1189                 3.0647
 Frc consts  --     0.6953                 1.7337                 1.9031
 IR Inten    --     1.4414                24.3246                 5.0843

                    37                     38                     39
                     A                      A                      A
 Frequencies --  1045.9200              1091.0265              1093.8506
 Red. masses --     2.4885                 1.5239                 1.3587
 Frc consts  --     1.6040                 1.0687                 0.9578
 IR Inten    --     9.4790                25.8502                 7.2827

                    40                     41                     42
                     A                      A                      A
 Frequencies --  1144.0028              1151.4350              1155.3882
 Red. masses --     1.2152                 1.2367                 1.3546
 Frc consts  --     0.9370                 0.9660                 1.0654
 IR Inten    --     0.2107                 1.2820                 3.6877

                    43                     44                     45
                     A                      A                      A
 Frequencies --  1157.2881              1187.7665              1192.0433
 Red. masses --     1.3735                 1.9508                 1.5409
 Frc consts  --     1.0838                 1.6215                 1.2900
 IR Inten    --   102.7108               357.8477               125.1546

                    46                     47                     48
                     A                      A                      A
 Frequencies --  1203.2699              1221.2493              1258.7147
 Red. masses --     1.5544                 1.5334                 3.0731
 Frc consts  --     1.3260                 1.3474                 2.8687
 IR Inten    --    42.4130               153.3220               489.4511

                    49                     50                     51
                     A                      A                      A
 Frequencies --  1280.3309              1301.1671              1351.2443
 Red. masses --     3.3021                 5.7979                 1.6623
 Frc consts  --     3.1892                 5.7835                 1.7883
 IR Inten    --    46.5110                18.1153                 1.7347

                    52                     53                     54
                     A                      A                      A
 Frequencies --  1368.7263              1385.2881              1439.2204
 Red. masses --     3.9771                 3.8476                 2.6122
 Frc consts  --     4.3898                 4.3503                 3.1880
 IR Inten    --     2.9536               104.5913               327.2136

                    55                     56                     57
                     A                      A                      A
 Frequencies --  1458.7990              1466.0478              1482.2507
 Red. masses --     1.1899                 1.5637                 1.7989
 Frc consts  --     1.4919                 1.9802                 2.3287
 IR Inten    --    33.1173                 0.1863                 2.9961

                    58                     59                     60
                     A                      A                      A
 Frequencies --  1488.3223              1512.3264              1513.4379
 Red. masses --     1.2211                 1.0934                 1.1608
 Frc consts  --     1.5936                 1.4734                 1.5665
 IR Inten    --    79.7677                 8.3808                18.0302

                    61                     62                     63
                     A                      A                      A
 Frequencies --  1519.2777              1519.9142              1530.7690
 Red. masses --     1.0437                 1.0626                 1.0462
 Frc consts  --     1.4194                 1.4463                 1.4444
 IR Inten    --     1.7264                13.7479                14.5005

                    64                     65                     66
                     A                      A                      A
 Frequencies --  1531.8399              1544.0818              1560.3294
 Red. masses --     1.0489                 1.0667                 1.0611
 Frc consts  --     1.4502                 1.4984                 1.5221
 IR Inten    --    18.0488                 3.6565                37.4404

                    67                     68                     69
                     A                      A                      A
 Frequencies --  1564.0067              1574.1399              1631.3235
 Red. masses --     1.3053                 2.0739                 6.7443
 Frc consts  --     1.8812                 3.0278                10.5747
 IR Inten    --   173.2117               111.1815                 1.9251

                    70                     71                     72
                     A                      A                      A
 Frequencies --  1677.1377              1813.9071              2987.0797
 Red. masses --     5.7323                10.9223                 1.0529
 Frc consts  --     9.4998                21.1736                 5.5354
 IR Inten    --    44.7243               363.7214                74.1606

                    73                     74                     75
                     A                      A                      A
 Frequencies --  2995.5584              3023.4251              3031.6614
 Red. masses --     1.0573                 1.0413                 1.0420
 Frc consts  --     5.5900                 5.6080                 5.6429
 IR Inten    --    95.3705                30.6788               128.5926

                    76                     77                     78
                     A                      A                      A
 Frequencies --  3069.3745              3072.7724              3074.0606
 Red. masses --     1.1025                 1.0852                 1.1044
 Frc consts  --     6.1199                 6.0372                 6.1488
 IR Inten    --    61.4910                30.7745                19.0580

                    79                     80                     81
                     A                      A                      A
 Frequencies --  3075.7948              3136.0537              3147.4045
 Red. masses --     1.0855                 1.0987                 1.0959
 Frc consts  --     6.0505                 6.3665                 6.3961
 IR Inten    --    47.1231                 3.0033                49.5634

                    82                     83                     84
                     A                      A                      A
 Frequencies --  3193.6386              3205.1445              3210.4560
 Red. masses --     1.0957                 1.0894                 1.0940
 Frc consts  --     6.5844                 6.5938                 6.6434
 IR Inten    --     1.0117                12.0594                 3.2702

                    85                     86                     87
                     A                      A                      A
 Frequencies --  3226.3051              3234.0500              3242.2712
 Red. masses --     1.0871                 1.0911                 1.0940
 Frc consts  --     6.6673                 6.7239                 6.7758
 IR Inten    --    12.1664                14.9137                 4.6730

 - Thermochemistry -
 -------------------
 Temperature   298.150 Kelvin.  Pressure   1.00000 Atm.
 Atom     1 has atomic number  6 and mass  12.00000

 Molecular mass:   208.12118 amu.
 Principal axes and moments of inertia in atomic units:
                           1         2         3
     Eigenvalues --   908.193037625.420288156.07943
           X            0.99998   0.00491  -0.00389
           Y           -0.00481   0.99963   0.02666
           Z            0.00402  -0.02665   0.99964
 This molecule is an asymmetric top.
 Rotational symmetry number  1.
 Warning -- assumption of classical behavior for rotation
           may cause significant error
 Rotational temperatures (Kelvin)      0.09537     0.01136     0.01062
 Rotational constants (GHZ):           1.98718     0.23667     0.22128
 Zero-point vibrational energy     687799.4 (Joules/Mol)
                                  164.38801 (Kcal/Mol)
 Warning -- explicit consideration of  23 degrees of freedom as
           vibrations may cause significant error
 Vibrational temperatures:     38.26    54.15    76.23    88.55   101.36
          (Kelvin)            159.61   168.23   214.56   224.40   276.38
                              316.53   323.27   341.19   380.31   508.88
                              559.51   574.32   590.16   617.61   678.21
                              705.59   760.19   824.82   899.50   946.72
                             1027.60  1064.65  1066.16  1154.97  1178.14
                             1231.57  1245.79  1338.84  1345.03  1397.51
                             1477.10  1504.84  1569.74  1573.81  1645.96
                             1656.66  1662.34  1665.08  1708.93  1715.08
                             1731.23  1757.10  1811.01  1842.11  1872.09
                             1944.14  1969.29  1993.12  2070.71  2098.88
                             2109.31  2132.63  2141.36  2175.90  2177.50
                             2185.90  2186.81  2202.43  2203.97  2221.59
                             2244.96  2250.25  2264.83  2347.11  2413.02
                             2609.80  4297.74  4309.94  4350.03  4361.88
                             4416.14  4421.03  4422.88  4425.38  4512.08
                             4528.41  4594.93  4611.48  4619.12  4641.93
                             4653.07  4664.90

 Zero-point correction=                           0.261969 (Hartree/Particle)
 Thermal correction to Energy=                    0.278092
 Thermal correction to Enthalpy=                  0.279036
 Thermal correction to Gibbs Free Energy=         0.216655
 Sum of electronic and zero-point Energies=           -688.497817
 Sum of electronic and thermal Energies=              -688.481694
 Sum of electronic and thermal Enthalpies=            -688.480750
 Sum of electronic and thermal Free Energies=         -688.543131

                     E (Thermal)             CV                S
                      KCal/Mol        Cal/Mol-Kelvin    Cal/Mol-Kelvin
 Total                  174.505             57.703            131.292
 Electronic               0.000              0.000              0.000
 Translational            0.889              2.981             41.903
 Rotational               0.889              2.981             32.402
 Vibrational            172.728             51.741             56.988
 Vibration     1          0.593              1.984              6.069
 Vibration     2          0.594              1.982              5.380
 Vibration     3          0.596              1.976              4.703
 Vibration     4          0.597              1.973              4.407
 Vibration     5          0.598              1.968              4.141
 Vibration     6          0.607              1.940              3.253
 Vibration     7          0.608              1.935              3.151
 Vibration     8          0.618              1.904              2.683
 Vibration     9          0.620              1.896              2.598
 Vibration    10          0.634              1.851              2.208
 Vibration    11          0.647              1.811              1.959
 Vibration    12          0.649              1.803              1.921
 Vibration    13          0.656              1.784              1.824
 Vibration    14          0.671              1.738              1.633
 Vibration    15          0.730              1.568              1.150
 Vibration    16          0.757              1.494              1.004
 Vibration    17          0.765              1.472              0.966
 Vibration    18          0.774              1.448              0.926
 Vibration    19          0.791              1.407              0.861
 Vibration    20          0.828              1.314              0.734
 Vibration    21          0.846              1.271              0.683
 Vibration    22          0.883              1.187              0.591
 Vibration    23          0.930              1.089              0.498

 Optimization completed.
    -- Stationary point found.
 Normal termination of Gaussian 09 at Thu Sep 30 05:37:56 2021.
 Gaussian 09:  AM64L-G09RevA.02 11-Jun-2009

 ----------------------------------------------------------------------
 #p TD(NStates=10, Root=1) b3lyp/6-31G* volume pop=NPA density=current
 Geom=AllCheck Guess=Read
 ----------------------------------------------------------------------

 CN(C(=O)Oc1ccc(cc1)N(C)C)C_conf_0
 ---------------------------------
 Redundant internal coordinates taken from checkpoint file:
 C11H16N2O2_2334_conf_0.chk
 Charge =  0 Multiplicity = 1

                         Standard orientation:
 ---------------------------------------------------------------------
 Center     Atomic      Atomic             Coordinates (Angstroms)
 Number     Number       Type             X           Y           Z
 ---------------------------------------------------------------------
      1          6           0        4.226661    1.228250   -0.720953
      2          7           0        3.825768    0.027139   -0.006300
      3          6           0        2.531296   -0.348137    0.226792
      4          8           0        2.190018   -1.333447    0.853839
      5          8           0        1.655109    0.537955   -0.355285
      6          6           0        0.280557    0.317879   -0.232010
      7          6           0       -0.497418    1.386348    0.199129
      8          6           0       -1.883721    1.270456    0.259342
      9          6           0       -2.531997    0.073479   -0.116723
     10          6           0       -1.713704   -0.999947   -0.535852
     11          6           0       -0.328947   -0.877963   -0.601935
     12          7           0       -3.922687   -0.039871   -0.090217
     13          6           0       -4.522248   -1.355102   -0.236338
     14          6           0       -4.694522    0.976323    0.603778
     15          6           0        4.895291   -0.775735    0.562414
     16          1           0        3.355980    1.720059   -1.147356
     17          1           0        4.921363    0.967739   -1.530477
     18          1           0        4.739491    1.928389   -0.046199
     19          1           0       -0.012152    2.313336    0.489751
     20          1           0       -2.456050    2.122740    0.604671
     21          1           0       -2.155063   -1.948704   -0.815596
     22          1           0        0.274222   -1.719496   -0.920880
     23          1           0       -4.260671   -1.797670   -1.204438
     24          1           0       -5.609504   -1.255916   -0.206417
     25          1           0       -4.217071   -2.061180    0.553928
     26          1           0       -4.545913    1.961238    0.145680
     27          1           0       -4.440432    1.057382    1.673921
     28          1           0       -5.756615    0.735625    0.521274
     29          1           0        5.468268   -0.194834    1.298462
     30          1           0        5.584393   -1.105058   -0.226435
     31          1           0        4.459683   -1.645687    1.051435
 ---------------------------------------------------------------------

 SCF Done:  E(RB3LYP) =  -688.759786426     A.U. after    1 cycles

 Excitation energies and oscillator strengths:

 Excited State   1:      Singlet-A      4.5473 eV  272.65 nm  f=0.0353  <S**2>=0.000
      54 -> 58         0.18305
      56 -> 57         0.67882
 This state for optimization and/or second-order correction.
 Total Energy, E(TD-HF/TD-KS) =  -688.592675017
 Copying the excited state density for this state as the 1-particle RhoCI density.

 Excited State   2:      Singlet-A      5.2509 eV  236.12 nm  f=0.4575  <S**2>=0.000
      54 -> 57        -0.14075
      56 -> 58         0.68224

 Excited State   3:      Singlet-A      6.0767 eV  204.03 nm  f=0.0040  <S**2>=0.000
      54 -> 57        -0.11285
      56 -> 59         0.69066

 Excited State   4:      Singlet-A      6.0954 eV  203.41 nm  f=0.0018  <S**2>=0.000
      54 -> 57         0.16702
      55 -> 57         0.68361

 Excited State   5:      Singlet-A      6.3557 eV  195.08 nm  f=0.0203  <S**2>=0.000
      52 -> 57        -0.44304
      53 -> 57        -0.18444
      54 -> 58         0.45048
      55 -> 58        -0.16389
      56 -> 57        -0.10950

 Excited State   6:      Singlet-A      6.3800 eV  194.33 nm  f=0.0084  <S**2>=0.000
      56 -> 60         0.69814

 Excited State   7:      Singlet-A      6.5035 eV  190.64 nm  f=0.2153  <S**2>=0.000
      52 -> 57        -0.13585
      53 -> 57         0.22240
      54 -> 57         0.28465
      54 -> 58         0.14698
      55 -> 58         0.56092

 Excited State   8:      Singlet-A      6.5486 eV  189.33 nm  f=0.1060  <S**2>=0.000
      52 -> 57        -0.13268
      53 -> 57         0.41272
      54 -> 57         0.35222
      54 -> 58        -0.12245
      55 -> 58        -0.37186

 Excited State   9:      Singlet-A      6.6555 eV  186.29 nm  f=0.0037  <S**2>=0.000
      52 -> 57         0.19804
      52 -> 58        -0.18478
      52 -> 59         0.11767
      53 -> 57         0.13193
      53 -> 58         0.47847
      53 -> 59        -0.33718
      54 -> 58         0.11523
      54 -> 59        -0.17360

 Excited State  10:      Singlet-A      6.8688 eV  180.50 nm  f=0.2991  <S**2>=0.000
      52 -> 57        -0.20192
      52 -> 58        -0.16357
      53 -> 57         0.44222
      54 -> 57        -0.42598
      55 -> 57         0.10165

 The electronic state is 1-A.
 Alpha  occ. eigenvalues --  -19.18327 -19.10695 -14.36258 -14.34675 -10.32405
 Alpha  occ. eigenvalues --  -10.22891 -10.21903 -10.21688 -10.21418 -10.21368
 Alpha  occ. eigenvalues --  -10.21176 -10.18049 -10.17889 -10.17718 -10.17626
 Alpha  occ. eigenvalues --   -1.09452  -1.00345  -0.94007  -0.93408  -0.83465
 Alpha  occ. eigenvalues --   -0.74699  -0.74255  -0.72044  -0.71668  -0.69907
 Alpha  occ. eigenvalues --   -0.65109  -0.60613  -0.59047  -0.55094  -0.52677
 Alpha  occ. eigenvalues --   -0.51340  -0.48662  -0.47845  -0.46993  -0.45963
 Alpha  occ. eigenvalues --   -0.44643  -0.44156  -0.43147  -0.41736  -0.41549
 Alpha  occ. eigenvalues --   -0.40470  -0.40266  -0.40143  -0.39670  -0.39150
 Alpha  occ. eigenvalues --   -0.38168  -0.37914  -0.36558  -0.35074  -0.33729
 Alpha  occ. eigenvalues --   -0.30340  -0.26627  -0.26333  -0.23923  -0.23655
 Alpha  occ. eigenvalues --   -0.18157
 Alpha virt. eigenvalues --    0.00962   0.02459   0.06451   0.08644   0.09606
 Alpha virt. eigenvalues --    0.11024   0.12234   0.12840   0.13659   0.14769
 Alpha virt. eigenvalues --    0.15472   0.15900   0.16387   0.16688   0.16835

 Mulliken atomic charges:
              1
     1  C   -0.315169
     2  N   -0.434771
     3  C    0.783187
     4  O   -0.507162
     5  O   -0.553629
     6  C    0.379782
     7  C   -0.217736
     8  C   -0.227829
     9  C    0.349853
    10  C   -0.232960
    11  C   -0.188415
    12  N   -0.404340
    13  C   -0.324254
    14  C   -0.323963
    15  C   -0.315685
    16  H    0.201346
    17  H    0.151710
    18  H    0.151519
    19  H    0.105329
    20  H    0.096298
    21  H    0.098177
    22  H    0.121308
    23  H    0.195870
    24  H    0.164607
    25  H    0.192263
    26  H    0.194865
    27  H    0.190919
    28  H    0.164865
    29  H    0.150229
    30  H    0.149788
    31  H    0.203998
 Sum of Mulliken atomic charges =  -0.00000

 Dipole moment (field-independent basis, Debye):
    X=             -3.5278    Y=              1.0393    Z=             -0.4161  Tot=              3.7012
 Quadrupole moment (field-independent basis, Debye-Ang):
   XX=            -43.4592   YY=            -87.4762   ZZ=            -91.9611
   XY=              5.6398   XZ=             -4.7714   YZ=              3.7722

 Summary of Natural Population Analysis:

                                       Natural Population
                Natural  -----------------------------------------------
    Atom  No    Charge         Core      Valence    Rydberg      Total
 -----------------------------------------------------------------------
      C    1   -0.46987      1.99946     4.45893    0.01148     6.46987
      N    2   -0.48975      1.99932     5.47949    0.01094     7.48975
      C    3    0.94419      1.99937     3.01124    0.04519     5.05581
      O    4   -0.64243      1.99978     6.62367    0.01898     8.64243
      O    5   -0.54957      1.99969     6.53966    0.01023     8.54957
      C    6    0.36483      1.99866     3.61402    0.02249     5.63517
      C    7   -0.35356      1.99902     4.33421    0.02033     6.35356
      C    8   -0.33364      1.99909     4.31638    0.01816     6.33364
      C    9    0.14015      1.99901     3.84072    0.02011     5.85985
      C   10   -0.33220      1.99909     4.31502    0.01809     6.33220
      C   11   -0.34899      1.99901     4.33066    0.01931     6.34899
      N   12   -0.25685      1.99933     5.24704    0.01047     7.25685
      C   13   -0.48339      1.99945     4.47166    0.01229     6.48339
      C   14   -0.48319      1.99945     4.47144    0.01230     6.48319
      C   15   -0.46803      1.99947     4.45675    0.01181     6.46803
      H   16    0.25863      0.00000     0.74048    0.00089     0.74137
      H   17    0.21945      0.00000     0.77903    0.00152     0.78055
      H   18    0.21699      0.00000     0.78133    0.00168     0.78301
      H   19    0.23099      0.00000     0.76784    0.00118     0.76901
      H   20    0.21648      0.00000     0.78246    0.00106     0.78352
      H   21    0.21717      0.00000     0.78176    0.00107     0.78283
      H   22    0.24119      0.00000     0.75775    0.00106     0.75881
      H   23    0.25180      0.00000     0.74635    0.00185     0.74820
      H   24    0.23466      0.00000     0.76461    0.00072     0.76534
      H   25    0.24663      0.00000     0.75117    0.00220     0.75337
      H   26    0.25095      0.00000     0.74723    0.00183     0.74905
      H   27    0.24591      0.00000     0.75187    0.00221     0.75409
      H   28    0.23487      0.00000     0.76440    0.00073     0.76513
      H   29    0.21622      0.00000     0.78231    0.00148     0.78378
      H   30    0.21752      0.00000     0.78113    0.00136     0.78248
      H   31    0.26284      0.00000     0.73551    0.00164     0.73716
 =======================================================================
   * Total *    0.00000     29.98921    81.72613    0.28467   112.00000

 Normal termination of Gaussian 09 at Thu Sep 30 10:32:49 2021.
