 Gaussian 09, Revision A.02,

 -----------------------------------
 #p opt b3lyp/6-31G* scf=(xqc,tight)
 -----------------------------------

 -------------------------
 COc1ccc2c(c1)CCCC2_conf_0
 -------------------------
 Symbolic Z-matrix:
 Charge =  0 Multiplicity = 1

 SCF Done:  E(RB3LYP) =  -502.826636063     A.U. after   14 cycles
 SCF Done:  E(RB3LYP) =  -502.828430502     A.U. after   12 cycles
 SCF Done:  E(RB3LYP) =  -502.828573547     A.U. after   11 cycles
 SCF Done:  E(RB3LYP) =  -502.828635477     A.U. after   11 cycles
 SCF Done:  E(RB3LYP) =  -502.828666476     A.U. after   10 cycles
 SCF Done:  E(RB3LYP) =  -502.828674497     A.U. after   10 cycles
 SCF Done:  E(RB3LYP) =  -502.828675036     A.U. after    8 cycles
 Optimization completed.
    -- Stationary point found.
 Normal termination of Gaussian 09 at Thu Sep 30 08:22:21 2021.

 ----------------------------------------------------------------------
 #p freq b3lyp/6-31G* volume NMR pop=NPA density=current Geom=AllCheck
 Guess=Read
 ----------------------------------------------------------------------

 COc1ccc2c(c1)CCCC2_conf_0
 -------------------------
 Redundant internal coordinates taken from checkpoint file:
 C11H14O_50db_conf_0.chk
 Charge =  0 Multiplicity = 1

 SCF Done:  E(RB3LYP) =  -502.828675036     A.U. after    1 cycles

  1  C    Isotropic =   137.6749   Anisotropy =    64.3529

  2  O    Isotropic =   241.0703   Anisotropy =    72.6641

  3  C    Isotropic =    40.7887   Anisotropy =   123.0886

  4  C    Isotropic =    80.1859   Anisotropy =   130.8781

  5  C    Isotropic =    65.9831   Anisotropy =   146.2333

  6  C    Isotropic =    67.8815   Anisotropy =   164.3778

  7  C    Isotropic =    58.6665   Anisotropy =   173.7830

  8  C    Isotropic =    85.8041   Anisotropy =   126.0645

  9  C    Isotropic =   157.9337   Anisotropy =    19.3372

 10  C    Isotropic =   164.4859   Anisotropy =     6.4743

 11  C    Isotropic =   164.3659   Anisotropy =     6.1542

 12  C    Isotropic =   159.1941   Anisotropy =    16.7881

 13  H    Isotropic =    28.3621   Anisotropy =     8.1424

 14  H    Isotropic =    28.6911   Anisotropy =     7.7634

 15  H    Isotropic =    28.6831   Anisotropy =     7.7666

 16  H    Isotropic =    25.7027   Anisotropy =     5.2785

 17  H    Isotropic =    25.3751   Anisotropy =     6.6981

 18  H    Isotropic =    26.1472   Anisotropy =     9.7535

 19  H    Isotropic =    29.5950   Anisotropy =     7.5832

 20  H    Isotropic =    29.3856   Anisotropy =     7.0351

 21  H    Isotropic =    30.4581   Anisotropy =     7.5264

 22  H    Isotropic =    30.4708   Anisotropy =     9.1265

 23  H    Isotropic =    30.4479   Anisotropy =     9.2734

 24  H    Isotropic =    30.4738   Anisotropy =     7.5627

 25  H    Isotropic =    29.4432   Anisotropy =     7.5750

 26  H    Isotropic =    29.6129   Anisotropy =     7.9874

  Exact polarizability: 155.087   2.901 121.976  -0.306  -1.086  67.679
 Approx polarizability: 212.691   2.545 194.512  -0.721  -2.771 103.661

                     1                      2                      3
                     A                      A                      A
 Frequencies --    68.3753                93.6407               144.5696
 Red. masses --     2.8136                 2.7127                 3.1602
 Frc consts  --     0.0078                 0.0140                 0.0389
 IR Inten    --     2.0224                 1.2956                 1.4782

                     4                      5                      6
                     A                      A                      A
 Frequencies --   191.5297               198.7370               264.0656
 Red. masses --     3.3332                 2.0241                 1.2819
 Frc consts  --     0.0720                 0.0471                 0.0527
 IR Inten    --     1.0682                 0.1301                 0.1903

                     7                      8                      9
                     A                      A                      A
 Frequencies --   300.9489               338.4370               351.2921
 Red. masses --     1.8696                 3.7257                 2.8923
 Frc consts  --     0.0998                 0.2514                 0.2103
 IR Inten    --     0.8767                 1.4016                 3.0653

                    10                     11                     12
                     A                      A                      A
 Frequencies --   410.0595               442.0649               458.1824
 Red. masses --     4.3592                 2.7618                 3.2154
 Frc consts  --     0.4319                 0.3180                 0.3977
 IR Inten    --     3.9806                 1.0607                 1.5093

                    13                     14                     15
                     A                      A                      A
 Frequencies --   502.9182               543.1581               579.0579
 Red. masses --     3.7050                 3.4691                 2.7389
 Frc consts  --     0.5521                 0.6030                 0.5411
 IR Inten    --     0.2588                 4.3531                 0.3848

                    16                     17                     18
                     A                      A                      A
 Frequencies --   619.8441               710.8579               720.7209
 Red. masses --     3.4842                 2.9973                 3.8048
 Frc consts  --     0.7887                 0.8924                 1.1644
 IR Inten    --     0.1690                 1.1494                 5.4681

                    19                     20                     21
                     A                      A                      A
 Frequencies --   749.3140               824.8734               845.7327
 Red. masses --     4.4715                 1.3841                 1.5154
 Frc consts  --     1.4792                 0.5549                 0.6386
 IR Inten    --     1.3359                10.7989                20.0156

                    22                     23                     24
                     A                      A                      A
 Frequencies --   865.8518               875.5817               924.5190
 Red. masses --     1.4909                 2.5294                 2.2261
 Frc consts  --     0.6586                 1.1425                 1.1211
 IR Inten    --     7.6691                 1.8083                 7.8695

                    25                     26                     27
                     A                      A                      A
 Frequencies --   932.9953               957.2287               960.4103
 Red. masses --     1.7473                 1.4856                 2.1299
 Frc consts  --     0.8961                 0.8020                 1.1575
 IR Inten    --     5.6254                 0.2446                 1.4818

                    28                     29                     30
                     A                      A                      A
 Frequencies --  1007.9074              1077.5320              1088.3262
 Red. masses --     2.3547                 3.0301                 2.2556
 Frc consts  --     1.4094                 2.0728                 1.5741
 IR Inten    --     0.9407                23.1025                23.6932

                    31                     32                     33
                     A                      A                      A
 Frequencies --  1114.3506              1140.1277              1168.1688
 Red. masses --     1.8488                 1.8182                 1.1618
 Frc consts  --     1.3527                 1.3925                 0.9341
 IR Inten    --     1.2242                19.4698                 1.8452

                    34                     35                     36
                     A                      A                      A
 Frequencies --  1185.2055              1192.6278              1197.3085
 Red. masses --     1.2716                 1.7395                 1.3673
 Frc consts  --     1.0524                 1.4578                 1.1548
 IR Inten    --     0.7343                14.9297                 2.2421

                    37                     38                     39
                     A                      A                      A
 Frequencies --  1221.5145              1228.8926              1272.3623
 Red. masses --     1.5171                 2.0742                 1.6580
 Frc consts  --     1.3337                 1.8455                 1.5814
 IR Inten    --     1.0074                13.5780                48.8301

                    40                     41                     42
                     A                      A                      A
 Frequencies --  1289.0699              1298.4244              1325.9100
 Red. masses --     1.2669                 2.9775                 1.2542
 Frc consts  --     1.2404                 2.9575                 1.2992
 IR Inten    --    14.3513               149.5357                 9.3602

                    43                     44                     45
                     A                      A                      A
 Frequencies --  1364.5016              1377.7563              1388.4406
 Red. masses --     2.7082                 1.7836                 1.4697
 Frc consts  --     2.9708                 1.9947                 1.6693
 IR Inten    --    47.5835                17.5715                 2.8892

                    46                     47                     48
                     A                      A                      A
 Frequencies --  1394.2404              1406.6507              1464.8124
 Red. masses --     1.5607                 1.5621                 3.1748
 Frc consts  --     1.7875                 1.8211                 4.0135
 IR Inten    --     1.9331                11.5875                10.4531

                    49                     50                     51
                     A                      A                      A
 Frequencies --  1500.8778              1505.8125              1512.5538
 Red. masses --     1.2555                 1.1229                 1.0873
 Frc consts  --     1.6664                 1.5001                 1.4656
 IR Inten    --    11.3258                 0.2171                 3.0253

                    52                     53                     54
                     A                      A                      A
 Frequencies --  1519.5576              1520.5832              1531.6799
 Red. masses --     1.0488                 1.0891                 1.1030
 Frc consts  --     1.4268                 1.4837                 1.5247
 IR Inten    --     4.9995                 3.7972                 1.2484

                    55                     56                     57
                     A                      A                      A
 Frequencies --  1535.6400              1558.2126              1635.9820
 Red. masses --     1.0882                 2.3579                 7.1541
 Frc consts  --     1.5120                 3.3731                11.2814
 IR Inten    --    56.9379                77.1658                14.9239

                    58                     59                     60
                     A                      A                      A
 Frequencies --  1669.3427              3005.9369              3010.3701
 Red. masses --     5.7730                 1.0703                 1.0694
 Frc consts  --     9.4785                 5.6979                 5.7099
 IR Inten    --    80.3877                34.9109                18.6249

                    61                     62                     63
                     A                      A                      A
 Frequencies --  3021.2651              3028.7548              3033.9263
 Red. masses --     1.0349                 1.0679                 1.0618
 Frc consts  --     5.5659                 5.7719                 5.7584
 IR Inten    --    54.2242                19.1469                26.6562

                    64                     65                     66
                     A                      A                      A
 Frequencies --  3059.2807              3060.8497              3077.9954
 Red. masses --     1.0907                 1.0921                 1.1064
 Frc consts  --     6.0144                 6.0281                 6.1758
 IR Inten    --    52.5259                30.2537                45.0157

                    67                     68                     69
                     A                      A                      A
 Frequencies --  3078.4506              3081.7227              3152.8600
 Red. masses --     1.0958                 1.1052                 1.0994
 Frc consts  --     6.1185                 6.1843                 6.4389
 IR Inten    --    73.0025                61.4222                31.0174

                    70                     71                     72
                     A                      A                      A
 Frequencies --  3172.1995              3204.6395              3213.8420
 Red. masses --     1.0886                 1.0889                 1.0929
 Frc consts  --     6.4544                 6.5887                 6.6510
 IR Inten    --    19.9676                12.3911                10.7532

 - Thermochemistry -
 -------------------
 Temperature   298.150 Kelvin.  Pressure   1.00000 Atm.
 Atom     1 has atomic number  6 and mass  12.00000

 Molecular mass:   162.10447 amu.
 Principal axes and moments of inertia in atomic units:
                           1         2         3
     Eigenvalues --   852.975073117.114423884.37701
           X            0.99992   0.01262  -0.00024
           Y           -0.01262   0.99992  -0.00090
           Z            0.00023   0.00091   1.00000
 This molecule is an asymmetric top.
 Rotational symmetry number  1.
 Warning -- assumption of classical behavior for rotation
           may cause significant error
 Rotational temperatures (Kelvin)      0.10154     0.02779     0.02230
 Rotational constants (GHZ):           2.11582     0.57898     0.46462
 Zero-point vibrational energy     596765.7 (Joules/Mol)
                                  142.63042 (Kcal/Mol)
 Warning -- explicit consideration of  16 degrees of freedom as
           vibrations may cause significant error
 Vibrational temperatures:     98.38   134.73   208.00   275.57   285.94
          (Kelvin)            379.93   433.00   486.93   505.43   589.98
                              636.03   659.22   723.59   781.48   833.13
                              891.82  1022.76  1036.96  1078.09  1186.81
                             1216.82  1245.77  1259.77  1330.17  1342.37
                             1377.24  1381.81  1450.15  1550.33  1565.86
                             1603.30  1640.39  1680.73  1705.24  1715.92
                             1722.66  1757.48  1768.10  1830.64  1854.68
                             1868.14  1907.69  1963.21  1982.28  1997.65
                             2006.00  2023.85  2107.54  2159.43  2166.53
                             2176.22  2186.30  2187.78  2203.74  2209.44
                             2241.92  2353.81  2401.81  4324.87  4331.25
                             4346.92  4357.70  4365.14  4401.62  4403.87
                             4428.54  4429.20  4433.91  4536.26  4564.08
                             4610.76  4624.00

 Zero-point correction=                           0.227296 (Hartree/Particle)
 Thermal correction to Energy=                    0.237762
 Thermal correction to Enthalpy=                  0.238707
 Thermal correction to Gibbs Free Energy=         0.191341
 Sum of electronic and zero-point Energies=           -502.601379
 Sum of electronic and thermal Energies=              -502.590913
 Sum of electronic and thermal Enthalpies=            -502.589968
 Sum of electronic and thermal Free Energies=         -502.637334

                     E (Thermal)             CV                S
                      KCal/Mol        Cal/Mol-Kelvin    Cal/Mol-Kelvin
 Total                  149.198             41.676             99.689
 Electronic               0.000              0.000              0.000
 Translational            0.889              2.981             41.158
 Rotational               0.889              2.981             30.714
 Vibrational            147.421             35.714             27.818
 Vibration     1          0.598              1.969              4.200
 Vibration     2          0.603              1.954              3.583
 Vibration     3          0.616              1.909              2.743
 Vibration     4          0.634              1.852              2.213
 Vibration     5          0.637              1.842              2.145
 Vibration     6          0.671              1.739              1.635
 Vibration     7          0.693              1.672              1.412
 Vibration     8          0.719              1.599              1.220
 Vibration     9          0.728              1.573              1.160
 Vibration    10          0.774              1.448              0.926
 Vibration    11          0.802              1.378              0.820
 Vibration    12          0.816              1.343              0.771
 Vibration    13          0.858              1.244              0.651
 Vibration    14          0.898              1.155              0.559
 Vibration    15          0.936              1.077              0.487
 Vibration    16          0.980              0.990              0.417

 Normal termination of Gaussian 09 at Thu Sep 30 09:07:45 2021.
 Gaussian 09:  AM64L-G09RevA.02 11-Jun-2009

 ----------------------------------------------------------------------
 #p TD(NStates=10, Root=1) b3lyp/6-31G* volume pop=NPA density=current
 Geom=AllCheck Guess=Read
 ----------------------------------------------------------------------

 COc1ccc2c(c1)CCCC2_conf_0
 -------------------------
 Redundant internal coordinates taken from checkpoint file:
 C11H14O_50db_conf_0.chk
 Charge =  0 Multiplicity = 1

                         Standard orientation:
 ---------------------------------------------------------------------
 Center     Atomic      Atomic             Coordinates (Angstroms)
 Number     Number       Type             X           Y           Z
 ---------------------------------------------------------------------
      1          6           0       -3.756278   -1.140664    0.035774
      2          8           0       -3.229455    0.173930    0.001602
      3          6           0       -1.869420    0.325309   -0.004110
      4          6           0       -1.404528    1.648533   -0.032539
      5          6           0       -0.039939    1.891807   -0.042014
      6          6           0        0.902019    0.849280   -0.023667
      7          6           0        0.432364   -0.471508    0.007634
      8          6           0       -0.950434   -0.723723    0.015674
      9          6           0        1.389829   -1.651157    0.068770
     10          6           0        2.824279   -1.292060   -0.339536
     11          6           0        3.272217   -0.004866    0.361557
     12          6           0        2.386500    1.170965   -0.069786
     13          1           0       -4.842493   -1.029487    0.037795
     14          1           0       -3.446181   -1.678768    0.941920
     15          1           0       -3.454234   -1.722248   -0.845895
     16          1           0       -2.127827    2.457973   -0.044958
     17          1           0        0.313557    2.921028   -0.063661
     18          1           0       -1.288994   -1.754806    0.038416
     19          1           0        1.008658   -2.468508   -0.557228
     20          1           0        1.401154   -2.043506    1.097555
     21          1           0        2.875488   -1.147569   -1.428112
     22          1           0        3.498137   -2.123461   -0.099110
     23          1           0        4.322778    0.216563    0.137182
     24          1           0        3.202400   -0.142792    1.450002
     25          1           0        2.660272    1.461475   -1.096298
     26          1           0        2.593268    2.051163    0.553033
 ---------------------------------------------------------------------

 SCF Done:  E(RB3LYP) =  -502.828675036     A.U. after    1 cycles

 Excitation energies and oscillator strengths:

 Excited State   1:      Singlet-A      4.9821 eV  248.86 nm  f=0.0386  <S**2>=0.000
      43 -> 46        -0.30464
      44 -> 45         0.63583
 This state for optimization and/or second-order correction.
 Total Energy, E(TD-HF/TD-KS) =  -502.645587982
 Copying the excited state density for this state as the 1-particle RhoCI density.

 Excited State   2:      Singlet-A      5.7622 eV  215.17 nm  f=0.1061  <S**2>=0.000
      43 -> 45         0.34754
      44 -> 46         0.61045

 Excited State   3:      Singlet-A      6.6154 eV  187.42 nm  f=0.5379  <S**2>=0.000
      42 -> 45        -0.12988
      43 -> 45         0.58722
      43 -> 46        -0.12663
      44 -> 46        -0.32275

 Excited State   4:      Singlet-A      6.7372 eV  184.03 nm  f=0.4367  <S**2>=0.000
      42 -> 45         0.13623
      43 -> 45         0.12538
      43 -> 46         0.59770
      44 -> 45         0.28659

 Excited State   5:      Singlet-A      7.2742 eV  170.44 nm  f=0.0014  <S**2>=0.000
      41 -> 45         0.69049

 Excited State   6:      Singlet-A      7.3120 eV  169.56 nm  f=0.0031  <S**2>=0.000
      44 -> 47         0.61347
      44 -> 48         0.26609
      44 -> 49        -0.20448

 Excited State   7:      Singlet-A      7.5064 eV  165.17 nm  f=0.0172  <S**2>=0.000
      40 -> 45        -0.19954
      42 -> 45         0.45682
      44 -> 47         0.16126
      44 -> 48        -0.44105

 Excited State   8:      Singlet-A      7.5426 eV  164.38 nm  f=0.0018  <S**2>=0.000
      40 -> 45         0.62325
      44 -> 47         0.13023
      44 -> 48        -0.25282

 Excited State   9:      Singlet-A      7.5992 eV  163.15 nm  f=0.0640  <S**2>=0.000
      40 -> 45         0.15646
      41 -> 46        -0.27573
      42 -> 45         0.42859
      43 -> 46        -0.10787
      44 -> 47        -0.17476
      44 -> 48         0.36928

 Excited State  10:      Singlet-A      7.6685 eV  161.68 nm  f=0.0275  <S**2>=0.000
      40 -> 45         0.12347
      41 -> 46         0.62448
      42 -> 45         0.18076
      44 -> 48         0.14265

 The electronic state is 1-A.
 Alpha  occ. eigenvalues --  -19.17029 -10.23660 -10.23625 -10.18691 -10.18264
 Alpha  occ. eigenvalues --  -10.18021 -10.17898 -10.17882 -10.17831 -10.17815
 Alpha  occ. eigenvalues --  -10.17581 -10.17410  -1.05567  -0.85248  -0.80277
 Alpha  occ. eigenvalues --   -0.75901  -0.74167  -0.70911  -0.68959  -0.62129
 Alpha  occ. eigenvalues --   -0.59961  -0.58815  -0.54209  -0.51335  -0.48762
 Alpha  occ. eigenvalues --   -0.46699  -0.46199  -0.44561  -0.43723  -0.42322
 Alpha  occ. eigenvalues --   -0.41466  -0.40660  -0.38812  -0.38013  -0.36997
 Alpha  occ. eigenvalues --   -0.35523  -0.35411  -0.32945  -0.32767  -0.30981
 Alpha  occ. eigenvalues --   -0.30200  -0.29675  -0.23431  -0.20414
 Alpha virt. eigenvalues --    0.00606   0.02203   0.09532   0.10338   0.11498
 Alpha virt. eigenvalues --    0.12740   0.13356   0.14487   0.14574   0.15911
 Alpha virt. eigenvalues --    0.16326   0.17005   0.17094   0.17368   0.18812

 Mulliken atomic charges:
              1
     1  C   -0.223271
     2  O   -0.456860
     3  C    0.361373
     4  C   -0.183334
     5  C   -0.224672
     6  C    0.146782
     7  C    0.101139
     8  C   -0.273173
     9  C   -0.332950
    10  C   -0.263632
    11  C   -0.265207
    12  C   -0.346704
    13  H    0.175164
    14  H    0.169170
    15  H    0.168958
    16  H    0.123468
    17  H    0.109028
    18  H    0.111504
    19  H    0.131738
    20  H    0.136021
    21  H    0.133369
    22  H    0.128057
    23  H    0.130497
    24  H    0.136909
    25  H    0.158468
    26  H    0.148156
 Sum of Mulliken atomic charges =  -0.00000

 Dipole moment (field-independent basis, Debye):
    X=             -0.7420    Y=             -1.6853    Z=              0.0064  Tot=              1.8415
 Quadrupole moment (field-independent basis, Debye-Ang):
   XX=            -62.3481   YY=            -69.2205   ZZ=            -74.0632
   XY=              6.9010   XZ=             -0.3648   YZ=             -0.2038

 Summary of Natural Population Analysis:

                                       Natural Population
                Natural  -----------------------------------------------
    Atom  No    Charge         Core      Valence    Rydberg      Total
 -----------------------------------------------------------------------
      C    1   -0.32397      1.99942     4.31042    0.01413     6.32397
      O    2   -0.43781      1.99975     6.42634    0.01172     8.43781
      C    3    0.33725      1.99878     3.64073    0.02323     5.66275
      C    4   -0.30386      1.99906     4.28491    0.01989     6.30386
      C    5   -0.29078      1.99908     4.27274    0.01896     6.29078
      C    6    0.04442      1.99899     3.94115    0.01543     5.95558
      C    7   -0.05904      1.99901     4.04278    0.01725     6.05904
      C    8   -0.34809      1.99900     4.33163    0.01746     6.34809
      C    9   -0.46797      1.99929     4.45712    0.01156     6.46797
      C   10   -0.45427      1.99934     4.44273    0.01220     6.45427
      C   11   -0.45547      1.99933     4.44384    0.01230     6.45547
      C   12   -0.47815      1.99927     4.46702    0.01186     6.47815
      H   13    0.23019      0.00000     0.76927    0.00054     0.76981
      H   14    0.21544      0.00000     0.78264    0.00192     0.78456
      H   15    0.21530      0.00000     0.78274    0.00196     0.78470
      H   16    0.23607      0.00000     0.76269    0.00123     0.76393
      H   17    0.22514      0.00000     0.77383    0.00103     0.77486
      H   18    0.22321      0.00000     0.77563    0.00116     0.77679
      H   19    0.23489      0.00000     0.76226    0.00285     0.76511
      H   20    0.22855      0.00000     0.76721    0.00424     0.77145
      H   21    0.22698      0.00000     0.77102    0.00200     0.77302
      H   22    0.23670      0.00000     0.76157    0.00173     0.76330
      H   23    0.23782      0.00000     0.76083    0.00134     0.76218
      H   24    0.22860      0.00000     0.76937    0.00203     0.77140
      H   25    0.25060      0.00000     0.74730    0.00210     0.74940
      H   26    0.24824      0.00000     0.74942    0.00234     0.75176
 =======================================================================
   * Total *    0.00000     23.99032    63.79722    0.21246    88.00000

 Normal termination of Gaussian 09 at Thu Sep 30 12:26:11 2021.
