 Gaussian 09, Revision A.02,

 -----------------------------------
 #p opt b3lyp/6-31G* scf=(xqc,tight)
 -----------------------------------

 --------------------------------
 COc1ccc(cc1)[C@H](N(C)C)C_conf_0
 --------------------------------
 Symbolic Z-matrix:
 Charge =  0 Multiplicity = 1

 SCF Done:  E(RB3LYP) =  -559.355730988     A.U. after   14 cycles
 SCF Done:  E(RB3LYP) =  -559.358733957     A.U. after   14 cycles
 SCF Done:  E(RB3LYP) =  -559.359596459     A.U. after   15 cycles
 SCF Done:  E(RB3LYP) =  -559.359781569     A.U. after   15 cycles
 SCF Done:  E(RB3LYP) =  -559.359785812     A.U. after   11 cycles
 SCF Done:  E(RB3LYP) =  -559.359833342     A.U. after   10 cycles
 SCF Done:  E(RB3LYP) =  -559.359840371     A.U. after   10 cycles
 SCF Done:  E(RB3LYP) =  -559.359844067     A.U. after    8 cycles
 SCF Done:  E(RB3LYP) =  -559.359846844     A.U. after    8 cycles
 Optimization completed.
    -- Stationary point found.
 Normal termination of Gaussian 09 at Tue Sep 28 14:23:44 2021.

 ----------------------------------------------------------------------
 #p freq b3lyp/6-31G* volume NMR pop=NPA density=current Geom=AllCheck
 Guess=Read
 ----------------------------------------------------------------------

 COc1ccc(cc1)[C@H](N(C)C)C_conf_0
 --------------------------------
 Redundant internal coordinates taken from checkpoint file:
 C11H17NO_9080_conf_0.chk
 Charge =  0 Multiplicity = 1

 SCF Done:  E(RB3LYP) =  -559.359846844     A.U. after    1 cycles

  1  C    Isotropic =   137.5813   Anisotropy =    64.7875

  2  O    Isotropic =   238.8151   Anisotropy =    76.1382

  3  C    Isotropic =    39.7765   Anisotropy =   125.4320

  4  C    Isotropic =    87.2829   Anisotropy =   140.6792

  5  C    Isotropic =    67.7475   Anisotropy =   145.4484

  6  C    Isotropic =    57.8976   Anisotropy =   171.1847

  7  C    Isotropic =    68.6183   Anisotropy =   166.9104

  8  C    Isotropic =    77.7776   Anisotropy =   135.2048

  9  C    Isotropic =   123.6401   Anisotropy =    36.2363

 10  N    Isotropic =   211.7722   Anisotropy =    46.8157

 11  C    Isotropic =   147.9799   Anisotropy =    54.4477

 12  C    Isotropic =   145.9281   Anisotropy =    57.4933

 13  C    Isotropic =   164.6530   Anisotropy =    26.6231

 14  H    Isotropic =    28.3318   Anisotropy =     8.2118

 15  H    Isotropic =    28.6732   Anisotropy =     8.0301

 16  H    Isotropic =    28.6753   Anisotropy =     8.0637

 17  H    Isotropic =    25.9233   Anisotropy =     7.1795

 18  H    Isotropic =    25.2818   Anisotropy =     7.7306

 19  H    Isotropic =    24.5900   Anisotropy =     9.5952

 20  H    Isotropic =    25.4804   Anisotropy =     5.9369

 21  H    Isotropic =    29.2094   Anisotropy =     5.0800

 22  H    Isotropic =    30.0179   Anisotropy =     9.4830

 23  H    Isotropic =    29.4494   Anisotropy =     8.3067

 24  H    Isotropic =    30.2955   Anisotropy =     9.0252

 25  H    Isotropic =    30.2280   Anisotropy =     9.6011

 26  H    Isotropic =    30.5619   Anisotropy =     8.3788

 27  H    Isotropic =    29.9759   Anisotropy =     4.9966

 28  H    Isotropic =    30.9731   Anisotropy =     6.7429

 29  H    Isotropic =    31.2452   Anisotropy =     7.2050

 30  H    Isotropic =    30.6749   Anisotropy =     8.5817

  Exact polarizability: 177.642   4.192  92.738   2.989 -11.474 109.848
 Approx polarizability: 229.632   9.237 133.846   2.083 -31.104 186.377

                     1                      2                      3
                     A                      A                      A
 Frequencies --    38.9547                67.7637                73.5515
 Red. masses --     3.2438                 3.3079                 2.6929
 Frc consts  --     0.0029                 0.0089                 0.0086
 IR Inten    --     0.6872                 0.5000                 0.5925

                     4                      5                      6
                     A                      A                      A
 Frequencies --   104.7240               156.8416               197.5082
 Red. masses --     3.6231                 3.5188                 2.6878
 Frc consts  --     0.0234                 0.0510                 0.0618
 IR Inten    --     2.7074                 0.9861                 0.8298

                     7                      8                      9
                     A                      A                      A
 Frequencies --   226.4966               236.4737               246.8432
 Red. masses --     2.0824                 1.1042                 1.1625
 Frc consts  --     0.0629                 0.0364                 0.0417
 IR Inten    --     0.6489                 0.5271                 0.0835

                    10                     11                     12
                     A                      A                      A
 Frequencies --   262.1576               263.3628               308.3396
 Red. masses --     1.4692                 1.3716                 2.4657
 Frc consts  --     0.0595                 0.0560                 0.1381
 IR Inten    --     1.1915                 0.6168                 0.6867

                    13                     14                     15
                     A                      A                      A
 Frequencies --   355.4822               375.7802               417.6818
 Red. masses --     2.6368                 2.7464                 2.5667
 Frc consts  --     0.1963                 0.2285                 0.2638
 IR Inten    --     5.3467                 1.7971                 0.7091

                    16                     17                     18
                     A                      A                      A
 Frequencies --   429.0117               462.4710               473.8655
 Red. masses --     3.0406                 3.5718                 2.9547
 Frc consts  --     0.3297                 0.4501                 0.3909
 IR Inten    --     0.4193                 0.7408                 0.0594

                    19                     20                     21
                     A                      A                      A
 Frequencies --   510.5755               567.2797               589.1951
 Red. masses --     2.8200                 2.3365                 4.0449
 Frc consts  --     0.4331                 0.4430                 0.8273
 IR Inten    --     0.9348                 9.5380                11.7538

                    22                     23                     24
                     A                      A                      A
 Frequencies --   651.9529               732.8975               743.3731
 Red. masses --     6.8650                 3.0810                 4.2775
 Frc consts  --     1.7192                 0.9751                 1.3927
 IR Inten    --     1.0223                 1.3468                 3.8165

                    25                     26                     27
                     A                      A                      A
 Frequencies --   812.2063               825.7624               845.3245
 Red. masses --     2.8784                 1.3985                 3.1721
 Frc consts  --     1.1188                 0.5619                 1.3355
 IR Inten    --    17.5972                10.7117                 4.3512

                    28                     29                     30
                     A                      A                      A
 Frequencies --   854.8341               938.9476               970.2797
 Red. masses --     1.6952                 1.3216                 1.6087
 Frc consts  --     0.7299                 0.6865                 0.8923
 IR Inten    --    32.4431                 0.0226                 8.9430

                    31                     32                     33
                     A                      A                      A
 Frequencies --   976.7284              1030.9370              1037.5533
 Red. masses --     1.7594                 2.8094                 1.8054
 Frc consts  --     0.9889                 1.7592                 1.1451
 IR Inten    --    24.9062                 0.8165                10.7415

                    34                     35                     36
                     A                      A                      A
 Frequencies --  1070.3329              1081.0260              1095.8989
 Red. masses --     1.6439                 5.7854                 1.9343
 Frc consts  --     1.1096                 3.9834                 1.3687
 IR Inten    --    10.1720                66.4639                 1.7262

                    37                     38                     39
                     A                      A                      A
 Frequencies --  1109.6707              1133.3666              1142.6008
 Red. masses --     1.7760                 1.3090                 1.3135
 Frc consts  --     1.2885                 0.9907                 1.0103
 IR Inten    --    22.4787                11.5051                 9.1842

                    40                     41                     42
                     A                      A                      A
 Frequencies --  1185.3522              1193.7416              1206.7275
 Red. masses --     1.2710                 1.4875                 1.1903
 Frc consts  --     1.0522                 1.2489                 1.0212
 IR Inten    --     0.7858                18.6122                23.6080

                    43                     44                     45
                     A                      A                      A
 Frequencies --  1217.5753              1224.1816              1258.9530
 Red. masses --     1.4120                 2.6380                 2.2602
 Frc consts  --     1.2333                 2.3292                 2.1107
 IR Inten    --     8.2951                 5.6610                 7.5679

                    46                     47                     48
                     A                      A                      A
 Frequencies --  1293.2042              1305.7065              1329.8027
 Red. masses --     5.1339                 2.3478                 1.6940
 Frc consts  --     5.0586                 2.3583                 1.7650
 IR Inten    --   289.7156                17.7089                 7.1507

                    49                     50                     51
                     A                      A                      A
 Frequencies --  1351.8384              1371.7096              1398.5703
 Red. masses --     2.7963                 1.3034                 1.8300
 Frc consts  --     3.0108                 1.4449                 2.1089
 IR Inten    --    29.7501                17.4650                56.4837

                    52                     53                     54
                     A                      A                      A
 Frequencies --  1431.5022              1464.8563              1468.9015
 Red. masses --     1.2322                 1.2619                 2.2699
 Frc consts  --     1.4877                 1.5954                 2.8857
 IR Inten    --     7.4804                 4.8694                 1.8797

                    55                     56                     57
                     A                      A                      A
 Frequencies --  1499.0193              1499.1925              1514.7934
 Red. masses --     1.1990                 1.1883                 1.0457
 Frc consts  --     1.5874                 1.5736                 1.4138
 IR Inten    --    15.3238                 4.6150                 7.7732

                    58                     59                     60
                     A                      A                      A
 Frequencies --  1519.8294              1521.0944              1527.8527
 Red. masses --     1.0484                 1.0530                 1.0492
 Frc consts  --     1.4269                 1.4355                 1.4430
 IR Inten    --     5.2427                 1.8695                12.0801

                    61                     62                     63
                     A                      A                      A
 Frequencies --  1529.5751              1534.8688              1537.9002
 Red. masses --     1.0673                 1.0637                 1.0474
 Frc consts  --     1.4712                 1.4764                 1.4596
 IR Inten    --     8.9921                42.4398                 2.7729

                    64                     65                     66
                     A                      A                      A
 Frequencies --  1547.2580              1563.6806              1634.5957
 Red. masses --     1.0514                 2.3946                 6.3879
 Frc consts  --     1.4829                 3.4497                10.0560
 IR Inten    --     4.1425                96.2765                12.0768

                    67                     68                     69
                     A                      A                      A
 Frequencies --  1673.8876              2891.6441              2925.8542
 Red. masses --     5.8003                 1.0811                 1.0626
 Frc consts  --     9.5753                 5.3260                 5.3595
 IR Inten    --    58.0547                43.9384                46.2045

                    70                     71                     72
                     A                      A                      A
 Frequencies --  2938.3129              3022.1710              3057.5277
 Red. masses --     1.0636                 1.0350                 1.0356
 Frc consts  --     5.4102                 5.5694                 5.7039
 IR Inten    --   158.5909                60.1404                19.3591

                    73                     74                     75
                     A                      A                      A
 Frequencies --  3079.6608              3086.6681              3092.0590
 Red. masses --     1.1066                 1.0739                 1.0715
 Frc consts  --     6.1837                 6.0284                 6.0357
 IR Inten    --    45.7259                14.9330                59.2512

                    76                     77                     78
                     A                      A                      A
 Frequencies --  3127.7688              3132.7299              3143.7690
 Red. masses --     1.1032                 1.1019                 1.0991
 Frc consts  --     6.3588                 6.3715                 6.4002
 IR Inten    --    35.9690                24.2191                33.7417

                    79                     80                     81
                     A                      A                      A
 Frequencies --  3147.4804              3154.6878              3173.7223
 Red. masses --     1.0994                 1.0994                 1.0888
 Frc consts  --     6.4171                 6.4462                 6.4617
 IR Inten    --    25.9394                29.7073                15.7378

                    82                     83                     84
                     A                      A                      A
 Frequencies --  3200.2270              3215.2516              3222.0757
 Red. masses --     1.0871                 1.0944                 1.0912
 Frc consts  --     6.5597                 6.6657                 6.6746
 IR Inten    --     5.5226                 9.5067                13.6428

 - Thermochemistry -
 -------------------
 Temperature   298.150 Kelvin.  Pressure   1.00000 Atm.
 Atom     1 has atomic number  6 and mass  12.00000

 Molecular mass:   179.13101 amu.
 Principal axes and moments of inertia in atomic units:
                           1         2         3
     Eigenvalues --   861.809514962.505595070.36440
           X            0.99998  -0.00211   0.00652
           Y            0.00171   0.99822   0.05960
           Z           -0.00664  -0.05959   0.99820
 This molecule is an asymmetric top.
 Rotational symmetry number  1.
 Warning -- assumption of classical behavior for rotation
           may cause significant error
 Rotational temperatures (Kelvin)      0.10050     0.01745     0.01708
 Rotational constants (GHZ):           2.09413     0.36368     0.35594
 Zero-point vibrational energy     692852.1 (Joules/Mol)
                                  165.59564 (Kcal/Mol)
 Warning -- explicit consideration of  21 degrees of freedom as
           vibrations may cause significant error
 Vibrational temperatures:     56.05    97.50   105.82   150.67   225.66
          (Kelvin)            284.17   325.88   340.23   355.15   377.19
                              378.92   443.63   511.46   540.66   600.95
                              617.25   665.39   681.79   734.60   816.19
                              847.72   938.01  1054.47  1069.55  1168.58
                             1188.09  1216.23  1229.91  1350.93  1396.01
                             1405.29  1483.29  1492.81  1539.97  1555.35
                             1576.75  1596.57  1630.66  1643.95  1705.46
                             1717.53  1736.21  1751.82  1761.32  1811.35
                             1860.63  1878.62  1913.29  1944.99  1973.58
                             2012.23  2059.61  2107.60  2113.42  2156.75
                             2157.00  2179.45  2186.69  2188.51  2198.24
                             2200.71  2208.33  2212.69  2226.16  2249.78
                             2351.82  2408.35  4160.43  4209.65  4227.57
                             4348.22  4399.09  4430.94  4441.02  4448.78
                             4500.16  4507.29  4523.18  4528.52  4538.89
                             4566.27  4604.41  4626.02  4635.84

 Zero-point correction=                           0.263893 (Hartree/Particle)
 Thermal correction to Energy=                    0.277448
 Thermal correction to Enthalpy=                  0.278392
 Thermal correction to Gibbs Free Energy=         0.223834
 Sum of electronic and zero-point Energies=           -559.095953
 Sum of electronic and thermal Energies=              -559.082399
 Sum of electronic and thermal Enthalpies=            -559.081454
 Sum of electronic and thermal Free Energies=         -559.136013

                     E (Thermal)             CV                S
                      KCal/Mol        Cal/Mol-Kelvin    Cal/Mol-Kelvin
 Total                  174.101             51.490            114.827
 Electronic               0.000              0.000              0.000
 Translational            0.889              2.981             41.456
 Rotational               0.889              2.981             31.451
 Vibrational            172.324             45.529             41.921
 Vibration     1          0.594              1.981              5.312
 Vibration     2          0.598              1.970              4.217
 Vibration     3          0.599              1.966              4.056
 Vibration     4          0.605              1.945              3.364
 Vibration     5          0.621              1.895              2.588
 Vibration     6          0.637              1.843              2.156
 Vibration     7          0.650              1.801              1.907
 Vibration     8          0.655              1.785              1.829
 Vibration     9          0.661              1.768              1.753
 Vibration    10          0.669              1.742              1.647
 Vibration    11          0.670              1.740              1.639
 Vibration    12          0.698              1.658              1.371
 Vibration    13          0.731              1.564              1.142
 Vibration    14          0.747              1.522              1.056
 Vibration    15          0.781              1.432              0.900
 Vibration    16          0.790              1.407              0.862
 Vibration    17          0.820              1.333              0.759
 Vibration    18          0.831              1.308              0.727
 Vibration    19          0.866              1.227              0.632
 Vibration    20          0.923              1.102              0.509
 Vibration    21          0.946              1.055              0.469

 Normal termination of Gaussian 09 at Tue Sep 28 14:32:14 2021.
 Gaussian 09:  AM64L-G09RevA.02 11-Jun-2009

 ----------------------------------------------------------------------
 #p TD(NStates=10, Root=1) b3lyp/6-31G* volume pop=NPA density=current
 Geom=AllCheck Guess=Read
 ----------------------------------------------------------------------

 COc1ccc(cc1)[C@H](N(C)C)C_conf_0
 --------------------------------
 Redundant internal coordinates taken from checkpoint file:
 C11H17NO_9080_conf_0.chk
 Charge =  0 Multiplicity = 1

                         Standard orientation:
 ---------------------------------------------------------------------
 Center     Atomic      Atomic             Coordinates (Angstroms)
 Number     Number       Type             X           Y           Z
 ---------------------------------------------------------------------
      1          6           0       -4.660340   -0.047997   -0.423786
      2          8           0       -3.689349   -0.386010    0.551594
      3          6           0       -2.376342   -0.127999    0.269943
      4          6           0       -1.912869    0.448370   -0.916404
      5          6           0       -0.539835    0.657469   -1.089200
      6          6           0        0.385750    0.311270   -0.105068
      7          6           0       -0.099551   -0.268235    1.079395
      8          6           0       -1.457065   -0.488435    1.267448
      9          6           0        1.870378    0.612014   -0.278952
     10          7           0        2.686864   -0.557317    0.098121
     11          6           0        4.119917   -0.287139    0.139458
     12          6           0        2.423918   -1.695305   -0.779424
     13          6           0        2.235180    1.862864    0.543213
     14          1           0       -5.624783   -0.334118    0.000389
     15          1           0       -4.500578   -0.596821   -1.361796
     16          1           0       -4.663856    1.029769   -0.635901
     17          1           0       -2.598085    0.729497   -1.708223
     18          1           0       -0.190955    1.101392   -2.019589
     19          1           0        0.608823   -0.564735    1.847546
     20          1           0       -1.834447   -0.941329    2.179393
     21          1           0        2.039397    0.861519   -1.347731
     22          1           0        4.645878   -1.213992    0.391554
     23          1           0        4.359165    0.446808    0.912237
     24          1           0        4.526592    0.077931   -0.825321
     25          1           0        2.983211   -2.566874   -0.422665
     26          1           0        2.720875   -1.505338   -1.830363
     27          1           0        1.360249   -1.943259   -0.767475
     28          1           0        2.183987    1.647677    1.616552
     29          1           0        1.520321    2.661579    0.323533
     30          1           0        3.236092    2.238335    0.308514
 ---------------------------------------------------------------------

 SCF Done:  E(RB3LYP) =  -559.359846844     A.U. after    1 cycles

 Excitation energies and oscillator strengths:

 Excited State   1:      Singlet-A      5.0148 eV  247.24 nm  f=0.0128  <S**2>=0.000
      47 -> 51        -0.18275
      49 -> 50         0.67921
 This state for optimization and/or second-order correction.
 Total Energy, E(TD-HF/TD-KS) =  -559.175557621
 Copying the excited state density for this state as the 1-particle RhoCI density.

 Excited State   2:      Singlet-A      5.1410 eV  241.17 nm  f=0.0140  <S**2>=0.000
      47 -> 51         0.24215
      48 -> 50         0.65676

 Excited State   3:      Singlet-A      5.3434 eV  232.03 nm  f=0.0037  <S**2>=0.000
      48 -> 51         0.38453
      49 -> 51         0.58630

 Excited State   4:      Singlet-A      5.8366 eV  212.43 nm  f=0.2076  <S**2>=0.000
      47 -> 50        -0.29491
      48 -> 51         0.53358
      49 -> 51        -0.34245

 Excited State   5:      Singlet-A      6.8854 eV  180.07 nm  f=0.3048  <S**2>=0.000
      46 -> 50         0.20215
      47 -> 50        -0.27168
      47 -> 51         0.52704
      48 -> 50        -0.21398
      48 -> 51        -0.11645
      49 -> 50         0.15197
      49 -> 51         0.10538

 Excited State   6:      Singlet-A      6.9271 eV  178.99 nm  f=0.7297  <S**2>=0.000
      46 -> 50         0.10424
      47 -> 50         0.56743
      47 -> 51         0.27364
      48 -> 51         0.19698
      49 -> 51        -0.14640

 Excited State   7:      Singlet-A      7.1811 eV  172.65 nm  f=0.0409  <S**2>=0.000
      48 -> 52         0.30490
      48 -> 53        -0.16553
      49 -> 52         0.57985
      49 -> 53        -0.16778

 Excited State   8:      Singlet-A      7.3182 eV  169.42 nm  f=0.0032  <S**2>=0.000
      48 -> 52         0.43308
      48 -> 53         0.27147
      49 -> 52        -0.25557
      49 -> 53        -0.37634
      49 -> 54         0.12770

 Excited State   9:      Singlet-A      7.6102 eV  162.92 nm  f=0.0029  <S**2>=0.000
      45 -> 50         0.65480
      48 -> 52         0.12564
      48 -> 53        -0.10314
      49 -> 53         0.11775

 Excited State  10:      Singlet-A      7.6329 eV  162.43 nm  f=0.0062  <S**2>=0.000
      45 -> 50        -0.20530
      48 -> 52         0.40683
      48 -> 53        -0.31026
      49 -> 52        -0.18787
      49 -> 53         0.38417

 The electronic state is 1-A.
 Alpha  occ. eigenvalues --  -19.17295 -14.32004 -10.24031 -10.23825 -10.21322
 Alpha  occ. eigenvalues --  -10.19617 -10.19148 -10.18393 -10.18219 -10.17974
 Alpha  occ. eigenvalues --  -10.17915 -10.17762 -10.17201  -1.05852  -0.91467
 Alpha  occ. eigenvalues --   -0.84359  -0.77151  -0.74180  -0.72801  -0.70015
 Alpha  occ. eigenvalues --   -0.68120  -0.64252  -0.60478  -0.59024  -0.55232
 Alpha  occ. eigenvalues --   -0.52661  -0.48656  -0.47895  -0.46448  -0.45886
 Alpha  occ. eigenvalues --   -0.44698  -0.44133  -0.42185  -0.42000  -0.41136
 Alpha  occ. eigenvalues --   -0.39731  -0.38780  -0.38315  -0.37023  -0.36178
 Alpha  occ. eigenvalues --   -0.35653  -0.34693  -0.34261  -0.32670  -0.31909
 Alpha  occ. eigenvalues --   -0.30529  -0.24368  -0.21124  -0.20674
 Alpha virt. eigenvalues --    0.00512   0.01784   0.09186   0.09893   0.11178
 Alpha virt. eigenvalues --    0.12647   0.13412   0.14164   0.14773   0.15506
 Alpha virt. eigenvalues --    0.15799   0.16273   0.16755   0.16875   0.17085

 Mulliken atomic charges:
              1
     1  C   -0.204314
     2  O   -0.490775
     3  C    0.368768
     4  C   -0.232700
     5  C   -0.268155
     6  C    0.153292
     7  C   -0.234889
     8  C   -0.233417
     9  C   -0.051305
    10  N   -0.259808
    11  C   -0.328147
    12  C   -0.334508
    13  C   -0.464567
    14  H    0.154879
    15  H    0.147343
    16  H    0.149286
    17  H    0.088760
    18  H    0.068517
    19  H    0.076478
    20  H    0.088250
    21  H    0.164447
    22  H    0.179268
    23  H    0.199276
    24  H    0.181805
    25  H    0.172644
    26  H    0.174378
    27  H    0.238471
    28  H    0.174363
    29  H    0.189644
    30  H    0.132718
 Sum of Mulliken atomic charges =  -0.00000

 Dipole moment (field-independent basis, Debye):
    X=              7.2019    Y=             -0.5640    Z=             -2.1703  Tot=              7.5429
 Quadrupole moment (field-independent basis, Debye-Ang):
   XX=            -53.8980   YY=            -78.3048   ZZ=            -80.4460
   XY=             -3.7655   XZ=              2.7270   YZ=              1.1968

 Summary of Natural Population Analysis:

                                       Natural Population
                Natural  -----------------------------------------------
    Atom  No    Charge         Core      Valence    Rydberg      Total
 -----------------------------------------------------------------------
      C    1   -0.31429      1.99943     4.30104    0.01381     6.31429
      O    2   -0.49251      1.99975     6.48111    0.01166     8.49251
      C    3    0.34470      1.99878     3.63336    0.02316     5.65530
      C    4   -0.39504      1.99904     4.37847    0.01753     6.39504
      C    5   -0.34115      1.99904     4.32272    0.01939     6.34115
      C    6   -0.07650      1.99900     4.05883    0.01867     6.07650
      C    7   -0.33191      1.99904     4.31540    0.01747     6.33191
      C    8   -0.39158      1.99905     4.37145    0.02108     6.39158
      C    9   -0.08453      1.99911     4.06683    0.01859     6.08453
      N   10   -0.20828      1.99932     5.19724    0.01172     7.20828
      C   11   -0.50223      1.99945     4.48996    0.01282     6.50223
      C   12   -0.50358      1.99944     4.49045    0.01369     6.50358
      C   13   -0.68228      1.99940     4.67410    0.00878     6.68228
      H   14    0.21857      0.00000     0.78082    0.00060     0.78143
      H   15    0.20163      0.00000     0.79586    0.00251     0.79837
      H   16    0.20288      0.00000     0.79459    0.00253     0.79712
      H   17    0.21652      0.00000     0.78260    0.00088     0.78348
      H   18    0.20341      0.00000     0.79577    0.00082     0.79659
      H   19    0.20914      0.00000     0.79058    0.00028     0.79086
      H   20    0.22344      0.00000     0.77544    0.00112     0.77656
      H   21    0.26668      0.00000     0.73120    0.00213     0.73332
      H   22    0.24447      0.00000     0.75478    0.00075     0.75553
      H   23    0.25415      0.00000     0.74537    0.00048     0.74585
      H   24    0.24383      0.00000     0.75482    0.00135     0.75617
      H   25    0.23990      0.00000     0.75939    0.00072     0.76010
      H   26    0.23882      0.00000     0.76000    0.00118     0.76118
      H   27    0.28275      0.00000     0.71697    0.00028     0.71725
      H   28    0.24712      0.00000     0.75180    0.00108     0.75288
      H   29    0.26780      0.00000     0.73136    0.00084     0.73220
      H   30    0.21806      0.00000     0.78040    0.00154     0.78194
 =======================================================================
   * Total *    0.00000     25.98985    71.78270    0.22745    98.00000

 Normal termination of Gaussian 09 at Tue Sep 28 14:46:17 2021.
