 Gaussian 09, Revision A.02,

 -----------------------------------
 #p opt b3lyp/6-31G* scf=(xqc,tight)
 -----------------------------------

 ----------------------------------------------
 COc1nc(Oc2ccc(cc2)[N+](=O)[O-])nc(n1)OC_conf_0
 ----------------------------------------------
 Symbolic Z-matrix:
 Charge =  0 Multiplicity = 1

 SCF Done:  E(RB3LYP) =  -1020.21633798     A.U. after   15 cycles
 SCF Done:  E(RB3LYP) =  -1020.22508062     A.U. after   14 cycles
 SCF Done:  E(RB3LYP) =  -1020.22667067     A.U. after   16 cycles
 SCF Done:  E(RB3LYP) =  -1020.22627600     A.U. after   14 cycles
 SCF Done:  E(RB3LYP) =  -1020.22715982     A.U. after   14 cycles
 SCF Done:  E(RB3LYP) =  -1020.22431294     A.U. after   15 cycles
 SCF Done:  E(RB3LYP) =  -1020.22742992     A.U. after   14 cycles
 SCF Done:  E(RB3LYP) =  -1020.22783400     A.U. after   13 cycles
 SCF Done:  E(RB3LYP) =  -1020.22800205     A.U. after   13 cycles
 SCF Done:  E(RB3LYP) =  -1020.22804656     A.U. after   12 cycles
 SCF Done:  E(RB3LYP) =  -1020.22809840     A.U. after   12 cycles
 SCF Done:  E(RB3LYP) =  -1020.22811189     A.U. after   12 cycles
 SCF Done:  E(RB3LYP) =  -1020.22812410     A.U. after   12 cycles
 SCF Done:  E(RB3LYP) =  -1020.22813032     A.U. after   13 cycles
 SCF Done:  E(RB3LYP) =  -1020.22813175     A.U. after   10 cycles
 SCF Done:  E(RB3LYP) =  -1020.22813213     A.U. after   10 cycles
 SCF Done:  E(RB3LYP) =  -1020.22813224     A.U. after    9 cycles
 SCF Done:  E(RB3LYP) =  -1020.22813223     A.U. after    7 cycles
 Optimization completed.
    -- Stationary point found.
 Normal termination of Gaussian 09 at Tue Sep 28 20:24:32 2021.

 ----------------------------------------------------------------------
 #p freq b3lyp/6-31G* volume NMR pop=NPA density=current Geom=AllCheck
 Guess=Read
 ----------------------------------------------------------------------

 COc1nc(Oc2ccc(cc2)[N+](=O)[O-])nc(n1)OC_conf_0
 ----------------------------------------------
 Redundant internal coordinates taken from checkpoint file:
 C11H10N4O5_7391_conf_0.chk
 Charge =  0 Multiplicity = 1

 SCF Done:  E(RB3LYP) =  -1020.22813223     A.U. after    1 cycles

  1  C    Isotropic =   136.0616   Anisotropy =    66.0589

  2  O    Isotropic =   189.0709   Anisotropy =    93.9401

  3  C    Isotropic =    23.7975   Anisotropy =    99.5218

  4  N    Isotropic =    64.6745   Anisotropy =   277.5584

  5  C    Isotropic =    24.8054   Anisotropy =    89.1532

  6  O    Isotropic =   136.9082   Anisotropy =   123.9227

  7  C    Isotropic =    39.5764   Anisotropy =   116.8273

  8  C    Isotropic =    72.1011   Anisotropy =   154.3003

  9  C    Isotropic =    70.5474   Anisotropy =   167.2595

 10  C    Isotropic =    51.5115   Anisotropy =   101.5217

 11  C    Isotropic =    69.8250   Anisotropy =   168.6295

 12  C    Isotropic =    74.7240   Anisotropy =   140.7549

 13  N    Isotropic =  -109.5527   Anisotropy =   263.8125

 14  O    Isotropic =  -264.8070   Anisotropy =   704.4262

 15  O    Isotropic =  -264.3208   Anisotropy =   702.6954

 16  N    Isotropic =    62.5634   Anisotropy =   280.9750

 17  C    Isotropic =    22.9303   Anisotropy =   101.5841

 18  N    Isotropic =    59.4535   Anisotropy =   286.7217

 19  O    Isotropic =   188.3548   Anisotropy =    95.4397

 20  C    Isotropic =   136.0336   Anisotropy =    65.3667

 21  H    Isotropic =    28.5173   Anisotropy =     7.8291

 22  H    Isotropic =    28.2896   Anisotropy =     8.1265

 23  H    Isotropic =    28.3211   Anisotropy =     8.2822

 24  H    Isotropic =    24.8403   Anisotropy =     8.7600

 25  H    Isotropic =    23.9928   Anisotropy =     5.6462

 26  H    Isotropic =    23.9630   Anisotropy =     5.2248

 27  H    Isotropic =    25.2146   Anisotropy =     6.7022

 28  H    Isotropic =    28.4259   Anisotropy =     7.6074

 29  H    Isotropic =    28.2140   Anisotropy =     7.6318

 30  H    Isotropic =    28.2157   Anisotropy =     7.9812

  Exact polarizability: 240.162  12.013 152.803  -8.552  18.943  97.281
 Approx polarizability: 325.092  22.020 251.826 -19.506  51.222 172.442

                     1                      2                      3
                     A                      A                      A
 Frequencies --    14.1029                26.7365                47.6525
 Red. masses --     5.3603                 7.9356                 8.1083
 Frc consts  --     0.0006                 0.0033                 0.0108
 IR Inten    --     0.2409                 0.1485                 0.3206

                     4                      5                      6
                     A                      A                      A
 Frequencies --    68.3411               102.2549               114.7705
 Red. masses --     6.4281                 3.4102                 3.3882
 Frc consts  --     0.0177                 0.0210                 0.0263
 IR Inten    --     0.3470                 7.0821                 0.3153

                     7                      8                      9
                     A                      A                      A
 Frequencies --   120.6911               152.1861               161.9945
 Red. masses --     6.4983                 1.2735                 1.2352
 Frc consts  --     0.0558                 0.0174                 0.0191
 IR Inten    --     3.8579                 0.2721                 0.1256

                    10                     11                     12
                     A                      A                      A
 Frequencies --   167.7560               191.8735               212.3694
 Red. masses --     3.7668                 4.1417                 4.6174
 Frc consts  --     0.0625                 0.0898                 0.1227
 IR Inten    --     2.3421                 0.9815                 1.3235

                    13                     14                     15
                     A                      A                      A
 Frequencies --   230.1092               239.6977               257.1587
 Red. masses --     6.0787                 7.7914                 6.0250
 Frc consts  --     0.1896                 0.2638                 0.2348
 IR Inten    --     0.4911                 1.8884                 8.0285

                    16                     17                     18
                     A                      A                      A
 Frequencies --   292.4498               316.9929               381.5631
 Red. masses --     6.8841                 4.8410                 6.6486
 Frc consts  --     0.3469                 0.2866                 0.5703
 IR Inten    --     1.5595                 3.7191                 1.6093

                    19                     20                     21
                     A                      A                      A
 Frequencies --   425.8302               443.9700               460.4837
 Red. masses --     3.1288                 7.2085                 5.5405
 Frc consts  --     0.3343                 0.8371                 0.6922
 IR Inten    --     0.2701                17.4321                18.5987

                    22                     23                     24
                     A                      A                      A
 Frequencies --   503.1653               535.3102               553.2589
 Red. masses --     3.6797                 6.8968                 7.3477
 Frc consts  --     0.5489                 1.1644                 1.3251
 IR Inten    --     0.8498                 0.8649                 0.7902

                    25                     26                     27
                     A                      A                      A
 Frequencies --   607.4536               621.5774               648.2724
 Red. masses --     7.3572                 7.0455                 7.2396
 Frc consts  --     1.5995                 1.6038                 1.7926
 IR Inten    --     1.4014                 1.2368                 0.2373

                    28                     29                     30
                     A                      A                      A
 Frequencies --   682.9014               696.7613               734.5646
 Red. masses --     8.5999                 4.1141                11.8823
 Frc consts  --     2.3630                 1.1768                 3.7775
 IR Inten    --     5.4455                10.7325                 5.2078

                    31                     32                     33
                     A                      A                      A
 Frequencies --   750.3008               752.1865               784.5249
 Red. masses --     9.7046                 5.8279                 6.4235
 Frc consts  --     3.2188                 1.9427                 2.3293
 IR Inten    --     4.1959                18.2351                 3.2657

                    34                     35                     36
                     A                      A                      A
 Frequencies --   826.5775               832.7613               833.6099
 Red. masses --    11.0022                 6.8844                 1.2848
 Frc consts  --     4.4289                 2.8129                 0.5260
 IR Inten    --    33.5630                17.5321                 0.1748

                    37                     38                     39
                     A                      A                      A
 Frequencies --   875.6793               882.5281               975.8950
 Red. masses --     2.8446                 3.4206                 1.3310
 Frc consts  --     1.2852                 1.5697                 0.7468
 IR Inten    --    48.8174                43.0804                 0.4987

                    40                     41                     42
                     A                      A                      A
 Frequencies --   977.2598               982.6194               998.3784
 Red. masses --     6.6455                 1.3403                13.7829
 Frc consts  --     3.7393                 0.7625                 8.0944
 IR Inten    --    12.6596                 2.6475                 0.2063

                    43                     44                     45
                     A                      A                      A
 Frequencies --  1031.2963              1036.6837              1129.4642
 Red. masses --     4.3561                 3.7636                 4.2325
 Frc consts  --     2.7297                 2.3831                 3.1812
 IR Inten    --     4.8543                 6.2704               100.2376

                    46                     47                     48
                     A                      A                      A
 Frequencies --  1132.9136              1133.9688              1159.0102
 Red. masses --     1.3345                 2.9529                 3.5237
 Frc consts  --     1.0091                 2.2372                 2.7888
 IR Inten    --     9.3354                79.0988               147.9997

                    49                     50                     51
                     A                      A                      A
 Frequencies --  1184.5174              1184.8987              1197.2972
 Red. masses --     1.2652                 1.2659                 1.2783
 Frc consts  --     1.0459                 1.0471                 1.0797
 IR Inten    --     0.1717                 1.3177                52.5600

                    52                     53                     54
                     A                      A                      A
 Frequencies --  1220.6940              1237.6824              1269.2590
 Red. masses --     1.5853                 2.0503                 4.8710
 Frc consts  --     1.3918                 1.8505                 4.6234
 IR Inten    --     7.8624               122.1545               789.8088

                    55                     56                     57
                     A                      A                      A
 Frequencies --  1317.0860              1324.2436              1376.5167
 Red. masses --     6.2524                 1.4440                 9.5709
 Frc consts  --     6.3903                 1.4919                10.6848
 IR Inten    --     1.8992                 5.1129                34.2296

                    58                     59                     60
                     A                      A                      A
 Frequencies --  1389.5150              1412.4265              1419.7823
 Red. masses --    10.1853                 6.7124                 3.1333
 Frc consts  --    11.5865                 7.8897                 3.7213
 IR Inten    --  1118.8243               351.3896               577.3278

                    61                     62                     63
                     A                      A                      A
 Frequencies --  1459.3545              1470.1432              1512.2859
 Red. masses --     3.1037                 1.6958                 1.0480
 Frc consts  --     3.8946                 2.1594                 1.4121
 IR Inten    --     9.1021                31.5948                 6.4784

                    64                     65                     66
                     A                      A                      A
 Frequencies --  1512.9179              1518.4489              1520.9814
 Red. masses --     1.0479                 1.1903                 1.0819
 Frc consts  --     1.4132                 1.6170                 1.4746
 IR Inten    --     6.9833               116.7804                13.8569

                    67                     68                     69
                     A                      A                      A
 Frequencies --  1525.4726              1537.3164              1569.4828
 Red. masses --     1.4289                 2.4186                 3.6461
 Frc consts  --     1.9592                 3.3677                 5.2916
 IR Inten    --    47.1062               140.7466                 1.6028

                    70                     71                     72
                     A                      A                      A
 Frequencies --  1603.6898              1619.0832              1631.3540
 Red. masses --     8.4139                10.6662                10.2589
 Frc consts  --    12.7494                16.4740                16.0859
 IR Inten    --   823.9481               251.6687               549.1217

                    73                     74                     75
                     A                      A                      A
 Frequencies --  1656.1683              1673.7631              3078.9533
 Red. masses --     6.1734                 9.2553                 1.0292
 Frc consts  --     9.9766                15.2767                 5.7485
 IR Inten    --    29.1412               109.2946                47.3583

                    76                     77                     78
                     A                      A                      A
 Frequencies --  3079.1155              3156.7418              3156.8064
 Red. masses --     1.0293                 1.1079                 1.1079
 Frc consts  --     5.7496                 6.5047                 6.5051
 IR Inten    --    21.2160                 2.5209                32.5340

                    79                     80                     81
                     A                      A                      A
 Frequencies --  3184.9590              3185.5601              3227.6412
 Red. masses --     1.1075                 1.1076                 1.0910
 Frc consts  --     6.6193                 6.6220                 6.6963
 IR Inten    --    22.3270                17.6825                 1.8432

                    82                     83                     84
                     A                      A                      A
 Frequencies --  3248.4447              3256.1892              3259.5174
 Red. masses --     1.0891                 1.0930                 1.0950
 Frc consts  --     6.7711                 6.8278                 6.8544
 IR Inten    --     1.0283                 1.3827                 3.4456

 - Thermochemistry -
 -------------------
 Temperature   298.150 Kelvin.  Pressure   1.00000 Atm.
 Atom     1 has atomic number  6 and mass  12.00000

 Molecular mass:   278.06512 amu.
 Principal axes and moments of inertia in atomic units:
                           1         2         3
     Eigenvalues --  2439.56370********************
           X            1.00000  -0.00136  -0.00079
           Y            0.00136   1.00000   0.00215
           Z            0.00079  -0.00215   1.00000
 This molecule is an asymmetric top.
 Rotational symmetry number  1.
 Warning -- assumption of classical behavior for rotation
           may cause significant error
 Rotational temperatures (Kelvin)      0.03550     0.00696     0.00605
 Rotational constants (GHZ):           0.73978     0.14505     0.12605
 Zero-point vibrational energy     575919.5 (Joules/Mol)
                                  137.64806 (Kcal/Mol)
 Warning -- explicit consideration of  25 degrees of freedom as
           vibrations may cause significant error
 Vibrational temperatures:     20.29    38.47    68.56    98.33   147.12
          (Kelvin)            165.13   173.65   218.96   233.07   241.36
                              276.06   305.55   331.08   344.87   369.99
                              420.77   456.08   548.98   612.67   638.77
                              662.53   723.94   770.19   796.02   873.99
                              894.31   932.72   982.54  1002.48  1056.87
                             1079.51  1082.23  1128.75  1189.26  1198.16
                             1199.38  1259.91  1269.76  1404.09  1406.06
                             1413.77  1436.44  1483.80  1491.55  1625.04
                             1630.01  1631.53  1667.56  1704.25  1704.80
                             1722.64  1756.30  1780.75  1826.18  1894.99
                             1905.29  1980.50  1999.20  2032.16  2042.75
                             2099.68  2115.21  2175.84  2176.75  2184.71
                             2188.35  2194.81  2211.85  2258.13  2307.35
                             2329.50  2347.15  2382.85  2408.17  4429.92
                             4430.15  4541.84  4541.93  4582.44  4583.30
                             4643.85  4673.78  4684.92  4689.71

 Zero-point correction=                           0.219356 (Hartree/Particle)
 Thermal correction to Energy=                    0.236692
 Thermal correction to Enthalpy=                  0.237636
 Thermal correction to Gibbs Free Energy=         0.171300
 Sum of electronic and zero-point Energies=          -1020.008776
 Sum of electronic and thermal Energies=             -1019.991441
 Sum of electronic and thermal Enthalpies=           -1019.990496
 Sum of electronic and thermal Free Energies=        -1020.056832

                     E (Thermal)             CV                S
                      KCal/Mol        Cal/Mol-Kelvin    Cal/Mol-Kelvin
 Total                  148.526             63.294            139.615
 Electronic               0.000              0.000              0.000
 Translational            0.889              2.981             42.766
 Rotational               0.889              2.981             34.429
 Vibrational            146.749             57.332             62.419
 Vibration     1          0.593              1.986              7.328
 Vibration     2          0.593              1.984              6.058
 Vibration     3          0.595              1.978              4.913
 Vibration     4          0.598              1.969              4.201
 Vibration     5          0.604              1.947              3.411
 Vibration     6          0.608              1.937              3.187
 Vibration     7          0.609              1.932              3.089
 Vibration     8          0.619              1.900              2.645
 Vibration     9          0.622              1.889              2.526
 Vibration    10          0.624              1.882              2.460
 Vibration    11          0.634              1.851              2.210
 Vibration    12          0.643              1.822              2.023
 Vibration    13          0.652              1.795              1.878
 Vibration    14          0.657              1.780              1.805
 Vibration    15          0.667              1.751              1.681
 Vibration    16          0.688              1.688              1.460
 Vibration    17          0.704              1.641              1.326
 Vibration    18          0.751              1.509              1.033
 Vibration    19          0.788              1.414              0.872
 Vibration    20          0.803              1.374              0.814
 Vibration    21          0.818              1.338              0.765
 Vibration    22          0.858              1.243              0.650
 Vibration    23          0.890              1.172              0.575
 Vibration    24          0.909              1.133              0.537
 Vibration    25          0.966              1.016              0.437

 Optimization completed.
    -- Stationary point found.
 Normal termination of Gaussian 09 at Tue Sep 28 21:59:27 2021.
 Gaussian 09:  AM64L-G09RevA.02 11-Jun-2009

 ----------------------------------------------------------------------
 #p TD(NStates=10, Root=1) b3lyp/6-31G* volume pop=NPA density=current
 Geom=AllCheck Guess=Read
 ----------------------------------------------------------------------

 COc1nc(Oc2ccc(cc2)[N+](=O)[O-])nc(n1)OC_conf_0
 ----------------------------------------------
 Redundant internal coordinates taken from checkpoint file:
 C11H10N4O5_7391_conf_0.chk
 Charge =  0 Multiplicity = 1

                         Standard orientation:
 ---------------------------------------------------------------------
 Center     Atomic      Atomic             Coordinates (Angstroms)
 Number     Number       Type             X           Y           Z
 ---------------------------------------------------------------------
      1          6           0       -3.439147    3.417965   -0.406938
      2          8           0       -2.224395    2.652922   -0.338965
      3          6           0       -2.335264    1.337054   -0.183483
      4          7           0       -1.155610    0.690968   -0.135616
      5          6           0       -1.285943   -0.615066    0.021069
      6          8           0       -0.185104   -1.401171    0.061440
      7          6           0        1.101196   -0.884491    0.050342
      8          6           0        1.527357    0.103474    0.942426
      9          6           0        2.862223    0.491257    0.934412
     10          6           0        3.744354   -0.118788    0.042625
     11          6           0        3.327391   -1.111568   -0.842118
     12          6           0        1.991271   -1.496386   -0.834161
     13          7           0        5.153712    0.293152    0.039265
     14          8           0        5.495602    1.171243    0.831760
     15          8           0        5.910963   -0.264629   -0.755554
     16          7           0       -2.421608   -1.310880    0.131300
     17          6           0       -3.512028   -0.546063    0.064593
     18          7           0       -3.541630    0.785913   -0.091963
     19          8           0       -4.711533   -1.112393    0.158667
     20          6           0       -4.763279   -2.538629    0.327561
     21          1           0       -3.112967    4.450290   -0.535702
     22          1           0       -4.017876    3.307390    0.513416
     23          1           0       -4.050898    3.097792   -1.253967
     24          1           0        0.824431    0.567318    1.622108
     25          1           0        3.229573    1.254602    1.608782
     26          1           0        4.043297   -1.563557   -1.517045
     27          1           0        1.624935   -2.267961   -1.502601
     28          1           0       -5.826206   -2.776314    0.376812
     29          1           0       -4.258058   -2.838062    1.249153
     30          1           0       -4.293335   -3.045906   -0.518600
 ---------------------------------------------------------------------

 SCF Done:  E(RB3LYP) =  -1020.22813223     A.U. after    1 cycles

 Excitation energies and oscillator strengths:

 Excited State   1:      Singlet-A      3.7785 eV  328.13 nm  f=0.0002  <S**2>=0.000
      67 -> 73         0.11169
      69 -> 73         0.68241
      69 -> 77        -0.10381
 This state for optimization and/or second-order correction.
 Total Energy, E(TD-HF/TD-KS) =  -1020.08927594
 Copying the excited state density for this state as the 1-particle RhoCI density.

 Excited State   2:      Singlet-A      4.2886 eV  289.10 nm  f=0.0036  <S**2>=0.000
      65 -> 73         0.68164

 Excited State   3:      Singlet-A      4.4086 eV  281.23 nm  f=0.2598  <S**2>=0.000
      71 -> 73         0.24906
      72 -> 73         0.63935

 Excited State   4:      Singlet-A      4.5160 eV  274.54 nm  f=0.1093  <S**2>=0.000
      71 -> 73         0.61925
      72 -> 73        -0.26067
      72 -> 75        -0.15134

 Excited State   5:      Singlet-A      4.9388 eV  251.04 nm  f=0.0050  <S**2>=0.000
      70 -> 73         0.69589

 Excited State   6:      Singlet-A      5.0454 eV  245.74 nm  f=0.0045  <S**2>=0.000
      66 -> 73         0.30921
      67 -> 73         0.55644
      68 -> 73        -0.20722
      71 -> 73        -0.10481

 Excited State   7:      Singlet-A      5.0799 eV  244.07 nm  f=0.0002  <S**2>=0.000
      67 -> 73         0.19182
      68 -> 73         0.65785
      68 -> 74         0.12633

 Excited State   8:      Singlet-A      5.2406 eV  236.58 nm  f=0.0244  <S**2>=0.000
      66 -> 73         0.60033
      67 -> 73        -0.34115

 Excited State   9:      Singlet-A      5.5788 eV  222.24 nm  f=0.0314  <S**2>=0.000
      66 -> 74        -0.19218
      67 -> 74        -0.23432
      71 -> 74         0.18953
      72 -> 74         0.51880
      72 -> 75        -0.18177

 Excited State  10:      Singlet-A      5.6356 eV  220.00 nm  f=0.0029  <S**2>=0.000
      66 -> 76        -0.19639
      68 -> 76         0.16848
      70 -> 74         0.15163
      71 -> 76         0.15396
      72 -> 74         0.26565
      72 -> 75         0.33132
      72 -> 76         0.36827

 The electronic state is 1-A.
 Alpha  occ. eigenvalues --  -19.22498 -19.20950 -19.20855 -19.17847 -19.17839
 Alpha  occ. eigenvalues --  -14.57024 -14.34907 -14.34880 -14.34682 -10.34439
 Alpha  occ. eigenvalues --  -10.33830 -10.33774 -10.28389 -10.25330 -10.25224
 Alpha  occ. eigenvalues --  -10.25092 -10.22457 -10.22391 -10.21948 -10.21917
 Alpha  occ. eigenvalues --   -1.22157  -1.13149  -1.11482  -1.10695  -1.04855
 Alpha  occ. eigenvalues --   -1.01170  -0.91569  -0.91212  -0.89202  -0.81201
 Alpha  occ. eigenvalues --   -0.78105  -0.75398  -0.74631  -0.72592  -0.66472
 Alpha  occ. eigenvalues --   -0.64955  -0.64047  -0.60593  -0.59474  -0.58027
 Alpha  occ. eigenvalues --   -0.55643  -0.53641  -0.52945  -0.52387  -0.51970
 Alpha  occ. eigenvalues --   -0.51090  -0.48983  -0.48693  -0.47499  -0.46428
 Alpha  occ. eigenvalues --   -0.45797  -0.45314  -0.44694  -0.44229  -0.42335
 Alpha  occ. eigenvalues --   -0.40754  -0.40256  -0.38612  -0.38335  -0.37483
 Alpha  occ. eigenvalues --   -0.37107  -0.36746  -0.32672  -0.30766  -0.30578
 Alpha  occ. eigenvalues --   -0.29667  -0.29321  -0.29108  -0.28843  -0.28578
 Alpha  occ. eigenvalues --   -0.27894  -0.26497
 Alpha virt. eigenvalues --   -0.08739  -0.03047  -0.02913  -0.02429   0.00703
 Alpha virt. eigenvalues --    0.07676   0.10315   0.10818   0.11629   0.11742
 Alpha virt. eigenvalues --    0.12538   0.13032   0.13725   0.14402   0.14744

 Mulliken atomic charges:
              1
     1  C   -0.213018
     2  O   -0.456390
     3  C    0.681792
     4  N   -0.501053
     5  C    0.665561
     6  O   -0.526586
     7  C    0.351887
     8  C   -0.129457
     9  C   -0.196548
    10  C    0.297341
    11  C   -0.189755
    12  C   -0.170971
    13  N    0.338267
    14  O   -0.312075
    15  O   -0.313321
    16  N   -0.521824
    17  C    0.684002
    18  N   -0.518574
    19  O   -0.457196
    20  C   -0.212831
    21  H    0.171489
    22  H    0.174820
    23  H    0.175724
    24  H    0.160726
    25  H    0.170182
    26  H    0.169647
    27  H    0.156095
    28  H    0.171190
    29  H    0.175375
    30  H    0.175503
 Sum of Mulliken atomic charges =  -0.00000

 Dipole moment (field-independent basis, Debye):
    X=             -3.4731    Y=             -0.5332    Z=              0.1452  Tot=              3.5168
 Quadrupole moment (field-independent basis, Debye-Ang):
   XX=           -120.0952   YY=           -101.5865   ZZ=           -107.9431
   XY=             -2.2963   XZ=             -0.8651   YZ=              2.1787

 Summary of Natural Population Analysis:

                                       Natural Population
                Natural  -----------------------------------------------
    Atom  No    Charge         Core      Valence    Rydberg      Total
 -----------------------------------------------------------------------
      C    1   -0.32127      1.99941     4.30827    0.01359     6.32127
      O    2   -0.49808      1.99972     6.48618    0.01219     8.49808
      C    3    0.77073      1.99922     3.19373    0.03632     5.22927
      N    4   -0.59526      1.99925     5.57512    0.02089     7.59526
      C    5    0.76721      1.99915     3.19761    0.03603     5.23279
      O    6   -0.49456      1.99967     6.48257    0.01232     8.49456
      C    7    0.29107      1.99872     3.68865    0.02157     5.70893
      C    8   -0.24131      1.99900     4.22890    0.01340     6.24131
      C    9   -0.24595      1.99902     4.23286    0.01408     6.24595
      C   10    0.04853      1.99877     3.93488    0.01782     5.95147
      C   11   -0.24830      1.99902     4.23533    0.01395     6.24830
      C   12   -0.24461      1.99901     4.23151    0.01409     6.24461
      N   13    0.38111      1.99956     4.57294    0.04639     6.61889
      O   14   -0.24260      1.99984     6.22780    0.01496     8.24260
      O   15   -0.24487      1.99984     6.23007    0.01497     8.24487
      N   16   -0.60799      1.99926     5.58777    0.02096     7.60799
      C   17    0.77300      1.99922     3.19154    0.03624     5.22700
      N   18   -0.60750      1.99926     5.58735    0.02089     7.60750
      O   19   -0.49862      1.99972     6.48674    0.01216     8.49862
      C   20   -0.32131      1.99941     4.30833    0.01358     6.32131
      H   21    0.22642      0.00000     0.77300    0.00059     0.77358
      H   22    0.22202      0.00000     0.77666    0.00131     0.77798
      H   23    0.22257      0.00000     0.77612    0.00131     0.77743
      H   24    0.26077      0.00000     0.73834    0.00089     0.73923
      H   25    0.26076      0.00000     0.73835    0.00089     0.73924
      H   26    0.26054      0.00000     0.73858    0.00088     0.73946
      H   27    0.25643      0.00000     0.74254    0.00103     0.74357
      H   28    0.22628      0.00000     0.77314    0.00059     0.77372
      H   29    0.22233      0.00000     0.77636    0.00131     0.77767
      H   30    0.22245      0.00000     0.77624    0.00131     0.77755
 =======================================================================
   * Total *   -0.00000     39.98604   103.59749    0.41647   144.00000

 Normal termination of Gaussian 09 at Wed Sep 29 03:13:35 2021.
