 Gaussian 09, Revision A.02,

 -----------------------------------
 #p opt b3lyp/6-31G* scf=(xqc,tight)
 -----------------------------------

 --------------------------
 CC(CC(=O)c1ccccc1)C_conf_0
 --------------------------
 Symbolic Z-matrix:
 Charge =  0 Multiplicity = 1

 SCF Done:  E(RB3LYP) =  -502.833842873     A.U. after   15 cycles
 SCF Done:  E(RB3LYP) =  -502.835831907     A.U. after   13 cycles
 SCF Done:  E(RB3LYP) =  -502.836105253     A.U. after   15 cycles
 SCF Done:  E(RB3LYP) =  -502.837218865     A.U. after   12 cycles
 SCF Done:  E(RB3LYP) =  -502.837518452     A.U. after   12 cycles
 SCF Done:  E(RB3LYP) =  -502.837644192     A.U. after   12 cycles
 SCF Done:  E(RB3LYP) =  -502.837667040     A.U. after   11 cycles
 SCF Done:  E(RB3LYP) =  -502.837677270     A.U. after   10 cycles
 SCF Done:  E(RB3LYP) =  -502.837678376     A.U. after    8 cycles
 SCF Done:  E(RB3LYP) =  -502.837678535     A.U. after    7 cycles
 Optimization completed.
    -- Stationary point found.
 Normal termination of Gaussian 09 at Mon Oct  4 05:34:25 2021.

 ----------------------------------------------------------------------
 #p freq b3lyp/6-31G* volume NMR pop=NPA density=current Geom=AllCheck
 Guess=Read
 ----------------------------------------------------------------------

 CC(CC(=O)c1ccccc1)C_conf_0
 --------------------------
 Redundant internal coordinates taken from checkpoint file:
 C11H14O_0252_conf_0.chk
 Charge =  0 Multiplicity = 1

 SCF Done:  E(RB3LYP) =  -502.837678535     A.U. after    1 cycles

  1  C    Isotropic =   167.8294   Anisotropy =    31.6499

  2  C    Isotropic =   164.1203   Anisotropy =     5.8774

  3  C    Isotropic =   143.9130   Anisotropy =    41.1949

  4  C    Isotropic =     1.0331   Anisotropy =   155.0570

  5  O    Isotropic =  -243.9928   Anisotropy =   957.7677

  6  C    Isotropic =    60.5499   Anisotropy =   159.8936

  7  C    Isotropic =    68.0708   Anisotropy =   167.2975

  8  C    Isotropic =    68.6618   Anisotropy =   163.9991

  9  C    Isotropic =    64.0748   Anisotropy =   173.0237

 10  C    Isotropic =    67.8500   Anisotropy =   165.7677

 11  C    Isotropic =    66.5830   Anisotropy =   181.5175

 12  C    Isotropic =   165.9358   Anisotropy =    34.0942

 13  H    Isotropic =    30.5191   Anisotropy =     7.5424

 14  H    Isotropic =    31.7729   Anisotropy =     7.0197

 15  H    Isotropic =    31.1438   Anisotropy =     9.3497

 16  H    Isotropic =    29.6220   Anisotropy =     6.9367

 17  H    Isotropic =    29.4500   Anisotropy =     6.7318

 18  H    Isotropic =    29.4538   Anisotropy =     7.6484

 19  H    Isotropic =    24.4909   Anisotropy =     8.9138

 20  H    Isotropic =    24.9218   Anisotropy =     5.2579

 21  H    Isotropic =    24.8250   Anisotropy =     4.6808

 22  H    Isotropic =    24.8267   Anisotropy =     4.8581

 23  H    Isotropic =    23.9264   Anisotropy =     7.2365

 24  H    Isotropic =    31.2848   Anisotropy =     7.0340

 25  H    Isotropic =    31.1970   Anisotropy =     8.8603

 26  H    Isotropic =    31.0273   Anisotropy =     9.1138

  Exact polarizability: 159.492  -3.613 117.291  -4.268   4.904  65.604
 Approx polarizability: 213.821 -12.578 205.081  -8.983  15.254  98.886

                     1                      2                      3
                     A                      A                      A
 Frequencies --    36.9610                49.4913               106.3868
 Red. masses --     4.1414                 2.7616                 3.0857
 Frc consts  --     0.0033                 0.0040                 0.0206
 IR Inten    --     0.5397                 0.0382                 1.2924

                     4                      5                      6
                     A                      A                      A
 Frequencies --   119.5989               157.6640               226.8084
 Red. masses --     3.7358                 4.4038                 2.5070
 Frc consts  --     0.0315                 0.0645                 0.0760
 IR Inten    --     1.9266                 0.0030                 5.1135

                     7                      8                      9
                     A                      A                      A
 Frequencies --   232.6933               255.0148               288.6480
 Red. masses --     1.0908                 1.3348                 2.7439
 Frc consts  --     0.0348                 0.0511                 0.1347
 IR Inten    --     0.4675                 0.4345                 1.9173

                    10                     11                     12
                     A                      A                      A
 Frequencies --   355.1794               398.9280               414.1160
 Red. masses --     2.9184                 2.5655                 2.9672
 Frc consts  --     0.2169                 0.2406                 0.2998
 IR Inten    --     3.7178                 0.6363                 0.0095

                    13                     14                     15
                     A                      A                      A
 Frequencies --   423.4934               437.4801               485.5423
 Red. masses --     2.6449                 3.1041                 4.0914
 Frc consts  --     0.2795                 0.3500                 0.5683
 IR Inten    --     0.7643                 0.3169                 2.4686

                    16                     17                     18
                     A                      A                      A
 Frequencies --   590.2183               631.7818               669.2888
 Red. masses --     2.6622                 6.4041                 6.3286
 Frc consts  --     0.5464                 1.5061                 1.6703
 IR Inten    --     6.5349                 0.2071                16.7659

                    19                     20                     21
                     A                      A                      A
 Frequencies --   706.0881               772.6478               798.0911
 Red. masses --     1.9386                 1.6610                 4.8482
 Frc consts  --     0.5695                 0.5842                 1.8194
 IR Inten    --    24.1685                32.3531                 3.5415

                    22                     23                     24
                     A                      A                      A
 Frequencies --   844.7547               865.9444               908.4697
 Red. masses --     2.7285                 1.2522                 1.6658
 Frc consts  --     1.1472                 0.5532                 0.8100
 IR Inten    --     1.3114                 0.2643                 6.7132

                    25                     26                     27
                     A                      A                      A
 Frequencies --   941.8926               952.0687               964.7692
 Red. masses --     1.1990                 1.5463                 2.0321
 Frc consts  --     0.6267                 0.8258                 1.1144
 IR Inten    --     5.7373                 8.8521                16.4029

                    28                     29                     30
                     A                      A                      A
 Frequencies --   979.6418               983.9190              1010.1927
 Red. masses --     1.5495                 1.3456                 1.2832
 Frc consts  --     0.8762                 0.7675                 0.7715
 IR Inten    --     0.1539                 0.3220                 0.1950

                    31                     32                     33
                     A                      A                      A
 Frequencies --  1017.0890              1023.6851              1057.4637
 Red. masses --     4.6026                 2.9469                 2.0542
 Frc consts  --     2.8052                 1.8195                 1.3534
 IR Inten    --    18.9488                21.6808                 0.1991

                    34                     35                     36
                     A                      A                      A
 Frequencies --  1114.1349              1127.4414              1155.0954
 Red. masses --     1.5840                 1.7435                 2.0804
 Frc consts  --     1.1584                 1.3057                 1.6354
 IR Inten    --     4.2697                 3.7339                 5.9526

                    37                     38                     39
                     A                      A                      A
 Frequencies --  1193.5698              1206.8825              1210.8838
 Red. masses --     1.1102                 1.7441                 1.1716
 Frc consts  --     0.9318                 1.4968                 1.0121
 IR Inten    --     2.6807                17.5887                36.7926

                    40                     41                     42
                     A                      A                      A
 Frequencies --  1237.8656              1265.5282              1335.0138
 Red. masses --     2.5525                 1.3245                 1.5761
 Frc consts  --     2.3044                 1.2499                 1.6550
 IR Inten    --   109.9042                 0.8180                32.5513

                    43                     44                     45
                     A                      A                      A
 Frequencies --  1351.4639              1367.5584              1382.3160
 Red. masses --     1.8271                 3.0900                 1.4193
 Frc consts  --     1.9661                 3.4049                 1.5978
 IR Inten    --    12.1227                 2.6779                 8.0408

                    46                     47                     48
                     A                      A                      A
 Frequencies --  1408.3953              1427.3910              1447.0749
 Red. masses --     1.6263                 1.2658                 1.2336
 Frc consts  --     1.9007                 1.5195                 1.5220
 IR Inten    --    46.9234                 8.6146                 1.7621

                    49                     50                     51
                     A                      A                      A
 Frequencies --  1482.4785              1495.1313              1520.1636
 Red. masses --     1.0979                 2.2035                 1.0509
 Frc consts  --     1.4216                 2.9022                 1.4308
 IR Inten    --     3.9189                19.1176                 2.0423

                    52                     53                     54
                     A                      A                      A
 Frequencies --  1525.1306              1535.1844              1539.5475
 Red. masses --     1.0505                 1.0545                 2.1547
 Frc consts  --     1.4397                 1.4642                 3.0090
 IR Inten    --     3.7816                 2.5184                 0.6205

                    55                     56                     57
                     A                      A                      A
 Frequencies --  1544.1824              1638.2418              1658.2324
 Red. masses --     1.0473                 5.4220                 5.4674
 Frc consts  --     1.4714                 8.5736                 8.8577
 IR Inten    --    10.9568                 9.4327                19.1076

                    58                     59                     60
                     A                      A                      A
 Frequencies --  1768.8846              3016.5428              3034.3049
 Red. masses --    11.3309                 1.0614                 1.0371
 Frc consts  --    20.8887                 5.6906                 5.6256
 IR Inten    --   134.8101                24.4004                27.4498

                    61                     62                     63
                     A                      A                      A
 Frequencies --  3039.5479              3048.2696              3062.8117
 Red. masses --     1.0435                 1.0916                 1.0872
 Frc consts  --     5.6803                 5.9761                 6.0092
 IR Inten    --    26.2782                 3.5307                13.5802

                    64                     65                     66
                     A                      A                      A
 Frequencies --  3096.2452              3103.0515              3109.4310
 Red. masses --     1.1002                 1.1003                 1.1010
 Frc consts  --     6.2143                 6.2420                 6.2719
 IR Inten    --    15.0930                53.2255                62.6347

                    67                     68                     69
                     A                      A                      A
 Frequencies --  3141.3923              3185.3125              3195.7617
 Red. masses --     1.0991                 1.0854                 1.0892
 Frc consts  --     6.3907                 6.4886                 6.5539
 IR Inten    --    20.5123                 0.0777                12.2717

                    70                     71                     72
                     A                      A                      A
 Frequencies --  3206.5807              3216.7339              3226.9656
 Red. masses --     1.0933                 1.0943                 1.0927
 Frc consts  --     6.6232                 6.6713                 6.7041
 IR Inten    --    29.8581                12.6612                 5.9433

 - Thermochemistry -
 -------------------
 Temperature   298.150 Kelvin.  Pressure   1.00000 Atm.
 Atom     1 has atomic number  6 and mass  12.00000

 Molecular mass:   162.10447 amu.
 Principal axes and moments of inertia in atomic units:
                           1         2         3
     Eigenvalues --   769.128534027.214224543.09919
           X            0.99997   0.00791   0.00239
           Y           -0.00786   0.99979  -0.01888
           Z           -0.00254   0.01886   0.99982
 This molecule is an asymmetric top.
 Rotational symmetry number  1.
 Warning -- assumption of classical behavior for rotation
           may cause significant error
 Rotational temperatures (Kelvin)      0.11261     0.02151     0.01906
 Rotational constants (GHZ):           2.34648     0.44814     0.39725
 Zero-point vibrational energy     588124.6 (Joules/Mol)
                                  140.56515 (Kcal/Mol)
 Warning -- explicit consideration of  16 degrees of freedom as
           vibrations may cause significant error
 Vibrational temperatures:     53.18    71.21   153.07   172.08   226.84
          (Kelvin)            326.33   334.79   366.91   415.30   511.02
                              573.97   595.82   609.31   629.44   698.59
                              849.19   908.99   962.96  1015.90  1111.67
                             1148.27  1215.41  1245.90  1307.08  1355.17
                             1369.81  1388.09  1409.48  1415.64  1453.44
                             1463.36  1472.85  1521.45  1602.99  1622.13
                             1661.92  1717.28  1736.43  1742.19  1781.01
                             1820.81  1920.78  1944.45  1967.61  1988.84
                             2026.36  2053.69  2082.02  2132.95  2151.16
                             2187.17  2194.32  2208.79  2215.06  2221.73
                             2357.06  2385.82  2545.03  4340.13  4365.68
                             4373.23  4385.77  4406.70  4454.80  4464.59
                             4473.77  4519.76  4582.95  4597.98  4613.55
                             4628.16  4642.88

 Zero-point correction=                           0.224005 (Hartree/Particle)
 Thermal correction to Energy=                    0.235762
 Thermal correction to Enthalpy=                  0.236706
 Thermal correction to Gibbs Free Energy=         0.185536
 Sum of electronic and zero-point Energies=           -502.613674
 Sum of electronic and thermal Energies=              -502.601917
 Sum of electronic and thermal Enthalpies=            -502.600973
 Sum of electronic and thermal Free Energies=         -502.652142

                     E (Thermal)             CV                S
                      KCal/Mol        Cal/Mol-Kelvin    Cal/Mol-Kelvin
 Total                  147.943             44.578            107.695
 Electronic               0.000              0.000              0.000
 Translational            0.889              2.981             41.158
 Rotational               0.889              2.981             31.021
 Vibrational            146.165             38.616             35.516
 Vibration     1          0.594              1.982              5.416
 Vibration     2          0.595              1.978              4.838
 Vibration     3          0.605              1.944              3.334
 Vibration     4          0.609              1.933              3.107
 Vibration     5          0.621              1.894              2.578
 Vibration     6          0.650              1.800              1.904
 Vibration     7          0.653              1.791              1.858
 Vibration     8          0.665              1.754              1.696
 Vibration     9          0.685              1.695              1.482
 Vibration    10          0.731              1.565              1.143
 Vibration    11          0.765              1.472              0.967
 Vibration    12          0.778              1.440              0.912
 Vibration    13          0.786              1.419              0.880
 Vibration    14          0.798              1.388              0.835
 Vibration    15          0.842              1.282              0.695
 Vibration    16          0.948              1.053              0.467

 Optimization completed.
    -- Stationary point found.
 Normal termination of Gaussian 09 at Mon Oct  4 06:42:21 2021.
 Gaussian 09:  AM64L-G09RevA.02 11-Jun-2009

 ----------------------------------------------------------------------
 #p TD(NStates=10, Root=1) b3lyp/6-31G* volume pop=NPA density=current
 Geom=AllCheck Guess=Read
 ----------------------------------------------------------------------

 CC(CC(=O)c1ccccc1)C_conf_0
 --------------------------
 Redundant internal coordinates taken from checkpoint file:
 C11H14O_0252_conf_0.chk
 Charge =  0 Multiplicity = 1

                         Standard orientation:
 ---------------------------------------------------------------------
 Center     Atomic      Atomic             Coordinates (Angstroms)
 Number     Number       Type             X           Y           Z
 ---------------------------------------------------------------------
      1          6           0        3.236814   -0.715027    1.107417
      2          6           0        2.866515    0.015661   -0.191743
      3          6           0        1.421872    0.540719   -0.154992
      4          6           0        0.348122   -0.541877   -0.238256
      5          8           0        0.643057   -1.710698   -0.444023
      6          6           0       -1.092829   -0.142946   -0.088391
      7          6           0       -1.503241    1.185093    0.104878
      8          6           0       -2.857480    1.494813    0.230275
      9          6           0       -3.815397    0.481395    0.166729
     10          6           0       -3.416331   -0.844841   -0.025139
     11          6           0       -2.065771   -1.153382   -0.153211
     12          6           0        3.845038    1.165037   -0.473616
     13          1           0        2.568181   -1.560904    1.288521
     14          1           0        3.179383   -0.035929    1.969111
     15          1           0        4.262290   -1.099674    1.058075
     16          1           0        2.930162   -0.707617   -1.014250
     17          1           0        1.249586    1.231570   -0.994900
     18          1           0        1.259882    1.140379    0.752556
     19          1           0       -0.771043    1.984650    0.156040
     20          1           0       -3.164174    2.526706    0.377986
     21          1           0       -4.870195    0.723743    0.266254
     22          1           0       -4.160446   -1.635215   -0.074983
     23          1           0       -1.733241   -2.174954   -0.305589
     24          1           0        3.803222    1.924982    0.318012
     25          1           0        3.621438    1.662612   -1.425395
     26          1           0        4.876625    0.797369   -0.522959
 ---------------------------------------------------------------------

 SCF Done:  E(RB3LYP) =  -502.837678535     A.U. after    1 cycles

 Excitation energies and oscillator strengths:

 Excited State   1:      Singlet-A      3.7535 eV  330.32 nm  f=0.0000  <S**2>=0.000
      44 -> 45         0.69457
      44 -> 47        -0.12174
 This state for optimization and/or second-order correction.
 Total Energy, E(TD-HF/TD-KS) =  -502.699740433
 Copying the excited state density for this state as the 1-particle RhoCI density.

 Excited State   2:      Singlet-A      4.8203 eV  257.21 nm  f=0.0178  <S**2>=0.000
      42 -> 45         0.48687
      42 -> 46        -0.17042
      43 -> 45        -0.43445
      43 -> 46        -0.21125

 Excited State   3:      Singlet-A      5.2800 eV  234.82 nm  f=0.2653  <S**2>=0.000
      42 -> 45         0.44247
      43 -> 45         0.51826
      43 -> 46        -0.12677

 Excited State   4:      Singlet-A      5.6131 eV  220.88 nm  f=0.0004  <S**2>=0.000
      44 -> 46         0.70544

 Excited State   5:      Singlet-A      6.3628 eV  194.86 nm  f=0.0880  <S**2>=0.000
      42 -> 45         0.20212
      42 -> 46         0.35059
      42 -> 47        -0.24544
      43 -> 45        -0.13390
      43 -> 46         0.45338
      43 -> 47         0.19295

 Excited State   6:      Singlet-A      6.4639 eV  191.81 nm  f=0.0025  <S**2>=0.000
      38 -> 45        -0.10412
      39 -> 45        -0.17994
      40 -> 45        -0.13840
      41 -> 45         0.64562

 Excited State   7:      Singlet-A      6.5187 eV  190.20 nm  f=0.0007  <S**2>=0.000
      38 -> 45         0.15745
      39 -> 45        -0.32705
      41 -> 45        -0.12258
      44 -> 45         0.11614
      44 -> 47         0.55863

 Excited State   8:      Singlet-A      6.6542 eV  186.32 nm  f=0.0378  <S**2>=0.000
      39 -> 45         0.33966
      40 -> 45         0.52127
      41 -> 45         0.17288
      42 -> 46         0.18408
      44 -> 47         0.15400

 Excited State   9:      Singlet-A      6.6950 eV  185.19 nm  f=0.0018  <S**2>=0.000
      38 -> 45        -0.22881
      39 -> 45         0.42416
      40 -> 45        -0.35112
      44 -> 47         0.36288

 Excited State  10:      Singlet-A      6.7730 eV  183.06 nm  f=0.3407  <S**2>=0.000
      40 -> 45        -0.19846
      42 -> 46         0.46041
      42 -> 47         0.14451
      43 -> 46        -0.38907
      43 -> 47         0.18495

 The electronic state is 1-A.
 Alpha  occ. eigenvalues --  -19.13532 -10.27376 -10.20374 -10.20304 -10.20100
 Alpha  occ. eigenvalues --  -10.20003 -10.19804 -10.19610 -10.19049 -10.18660
 Alpha  occ. eigenvalues --  -10.17230 -10.16493  -1.03456  -0.86195  -0.80572
 Alpha  occ. eigenvalues --   -0.76667  -0.75312  -0.71009  -0.67683  -0.63024
 Alpha  occ. eigenvalues --   -0.61081  -0.57079  -0.54031  -0.51462  -0.47582
 Alpha  occ. eigenvalues --   -0.46110  -0.45736  -0.44589  -0.43184  -0.42876
 Alpha  occ. eigenvalues --   -0.42219  -0.40586  -0.38358  -0.37982  -0.36886
 Alpha  occ. eigenvalues --   -0.36256  -0.35178  -0.34800  -0.33036  -0.32471
 Alpha  occ. eigenvalues --   -0.32096  -0.26040  -0.25711  -0.24637
 Alpha virt. eigenvalues --   -0.05395  -0.00817   0.04078   0.08360   0.09394
 Alpha virt. eigenvalues --    0.12449   0.13729   0.14738   0.15044   0.15621
 Alpha virt. eigenvalues --    0.16080   0.16533   0.17587   0.17980   0.18710

 Mulliken atomic charges:
              1
     1  C   -0.450104
     2  C   -0.084196
     3  C   -0.324491
     4  C    0.305726
     5  O   -0.326020
     6  C    0.107591
     7  C   -0.206522
     8  C   -0.130607
     9  C   -0.147453
    10  C   -0.132195
    11  C   -0.186850
    12  C   -0.451353
    13  H    0.166172
    14  H    0.141426
    15  H    0.148215
    16  H    0.148669
    17  H    0.180656
    18  H    0.178582
    19  H    0.115547
    20  H    0.124338
    21  H    0.117784
    22  H    0.125681
    23  H    0.135248
    24  H    0.144467
    25  H    0.146560
    26  H    0.153127
 Sum of Mulliken atomic charges =  -0.00000

 Dipole moment (field-independent basis, Debye):
    X=              2.0876    Y=              1.3198    Z=              0.0783  Tot=              2.4711
 Quadrupole moment (field-independent basis, Debye-Ang):
   XX=            -67.2972   YY=            -70.8457   ZZ=            -75.0409
   XY=              1.8548   XZ=             -0.4616   YZ=              0.1827

 Summary of Natural Population Analysis:

                                       Natural Population
                Natural  -----------------------------------------------
    Atom  No    Charge         Core      Valence    Rydberg      Total
 -----------------------------------------------------------------------
      C    1   -0.67858      1.99942     4.67000    0.00916     6.67858
      C    2   -0.25437      1.99925     4.24235    0.01277     6.25437
      C    3   -0.48283      1.99919     4.47266    0.01098     6.48283
      C    4    0.38133      1.99926     3.58595    0.03346     5.61867
      O    5   -0.27205      1.99980     6.25452    0.01772     8.27205
      C    6   -0.15060      1.99889     4.13666    0.01505     6.15060
      C    7   -0.24801      1.99904     4.23610    0.01287     6.24801
      C    8   -0.22753      1.99910     4.21419    0.01425     6.22753
      C    9   -0.27102      1.99910     4.25731    0.01461     6.27102
      C   10   -0.22906      1.99910     4.21605    0.01391     6.22906
      C   11   -0.23174      1.99905     4.21836    0.01433     6.23174
      C   12   -0.67433      1.99942     4.66609    0.00882     6.67433
      H   13    0.24179      0.00000     0.75691    0.00129     0.75821
      H   14    0.22428      0.00000     0.77454    0.00118     0.77572
      H   15    0.23545      0.00000     0.76376    0.00079     0.76455
      H   16    0.24885      0.00000     0.74896    0.00219     0.75115
      H   17    0.26395      0.00000     0.73410    0.00195     0.73605
      H   18    0.25865      0.00000     0.73941    0.00194     0.74135
      H   19    0.22707      0.00000     0.77199    0.00095     0.77293
      H   20    0.23505      0.00000     0.76412    0.00082     0.76495
      H   21    0.23081      0.00000     0.76839    0.00081     0.76919
      H   22    0.23597      0.00000     0.76319    0.00084     0.76403
      H   23    0.23750      0.00000     0.76163    0.00086     0.76250
      H   24    0.22707      0.00000     0.77172    0.00121     0.77293
      H   25    0.23252      0.00000     0.76658    0.00089     0.76748
      H   26    0.23983      0.00000     0.75936    0.00081     0.76017
 =======================================================================
   * Total *    0.00000     23.99062    63.81492    0.19445    88.00000

 Normal termination of Gaussian 09 at Mon Oct  4 11:01:47 2021.
