 Gaussian 09, Revision A.02,

 -----------------------------------
 #p opt b3lyp/6-31G* scf=(xqc,tight)
 -----------------------------------

 ---------------------------------
 CC(N1C=CN(C1)C(C)(C)C)(C)C_conf_0
 ---------------------------------
 Symbolic Z-matrix:
 Charge =  0 Multiplicity = 1

 SCF Done:  E(RB3LYP) =  -541.875723536     A.U. after   14 cycles
 SCF Done:  E(RB3LYP) =  -541.879917832     A.U. after   11 cycles
 SCF Done:  E(RB3LYP) =  -541.883843782     A.U. after   12 cycles
 SCF Done:  E(RB3LYP) =  -541.885910842     A.U. after   12 cycles
 SCF Done:  E(RB3LYP) =  -541.886821111     A.U. after   15 cycles
 SCF Done:  E(RB3LYP) =  -541.887057406     A.U. after   11 cycles
 SCF Done:  E(RB3LYP) =  -541.887086477     A.U. after   10 cycles
 SCF Done:  E(RB3LYP) =  -541.887093340     A.U. after    9 cycles
 SCF Done:  E(RB3LYP) =  -541.887094867     A.U. after    9 cycles
 SCF Done:  E(RB3LYP) =  -541.887095306     A.U. after    8 cycles
 SCF Done:  E(RB3LYP) =  -541.887095378     A.U. after    8 cycles
 SCF Done:  E(RB3LYP) =  -541.887095336     A.U. after    7 cycles
 Optimization completed.
    -- Stationary point found.
 Normal termination of Gaussian 09 at Fri Oct  1 21:16:54 2021.

 ----------------------------------------------------------------------
 #p freq b3lyp/6-31G* volume NMR pop=NPA density=current Geom=AllCheck
 Guess=Read
 ----------------------------------------------------------------------

 CC(N1C=CN(C1)C(C)(C)C)(C)C_conf_0
 ---------------------------------
 Redundant internal coordinates taken from checkpoint file:
 C11H22N2_dfe3_conf_0.chk
 Charge =  0 Multiplicity = 1

 SCF Done:  E(RB3LYP) =  -541.887095336     A.U. after    1 cycles

  1  C    Isotropic =   169.1736   Anisotropy =    27.2174

  2  C    Isotropic =   136.2844   Anisotropy =    35.7814

  3  N    Isotropic =   170.8083   Anisotropy =    89.2902

  4  C    Isotropic =    81.7490   Anisotropy =    80.0151

  5  C    Isotropic =    81.7484   Anisotropy =    80.0179

  6  N    Isotropic =   170.8084   Anisotropy =    89.2853

  7  C    Isotropic =   123.8079   Anisotropy =    35.8517

  8  C    Isotropic =   136.2845   Anisotropy =    35.7781

  9  C    Isotropic =   160.0676   Anisotropy =    41.6179

 10  C    Isotropic =   160.5445   Anisotropy =    37.9626

 11  C    Isotropic =   169.1740   Anisotropy =    27.2195

 12  C    Isotropic =   160.0669   Anisotropy =    41.6199

 13  C    Isotropic =   160.5443   Anisotropy =    37.9628

 14  H    Isotropic =    31.3850   Anisotropy =     7.2384

 15  H    Isotropic =    31.6073   Anisotropy =     8.2413

 16  H    Isotropic =    30.6387   Anisotropy =     6.7410

 17  H    Isotropic =    27.0672   Anisotropy =     3.8052

 18  H    Isotropic =    27.0671   Anisotropy =     3.8058

 19  H    Isotropic =    27.7803   Anisotropy =     4.7632

 20  H    Isotropic =    27.7027   Anisotropy =     8.8541

 21  H    Isotropic =    30.9902   Anisotropy =     8.1866

 22  H    Isotropic =    30.8529   Anisotropy =     7.3487

 23  H    Isotropic =    31.2724   Anisotropy =     8.6160

 24  H    Isotropic =    30.9071   Anisotropy =     8.0165

 25  H    Isotropic =    31.3265   Anisotropy =     8.6543

 26  H    Isotropic =    31.0589   Anisotropy =     6.4165

 27  H    Isotropic =    31.3850   Anisotropy =     7.2381

 28  H    Isotropic =    30.6385   Anisotropy =     6.7412

 29  H    Isotropic =    31.6073   Anisotropy =     8.2412

 30  H    Isotropic =    30.8529   Anisotropy =     7.3490

 31  H    Isotropic =    30.9901   Anisotropy =     8.1863

 32  H    Isotropic =    31.2725   Anisotropy =     8.6161

 33  H    Isotropic =    31.0589   Anisotropy =     6.4167

 34  H    Isotropic =    31.3265   Anisotropy =     8.6543

 35  H    Isotropic =    30.9070   Anisotropy =     8.0162

  Exact polarizability: 164.545   0.000 119.684   0.000  -1.143 103.667
 Approx polarizability: 214.191   0.001 177.081   0.000  -1.151 153.661

                     1                      2                      3
                     A                      A                      A
 Frequencies --    36.6021                48.6004                86.7243
 Red. masses --     3.1554                 2.5825                 2.7707
 Frc consts  --     0.0025                 0.0036                 0.0123
 IR Inten    --     0.1953                 0.1154                 0.4796

                     4                      5                      6
                     A                      A                      A
 Frequencies --   158.0952               172.8952               205.0184
 Red. masses --     2.9037                 2.9345                 1.2085
 Frc consts  --     0.0428                 0.0517                 0.0299
 IR Inten    --     3.6251                 0.4431                 0.1912

                     7                      8                      9
                     A                      A                      A
 Frequencies --   215.7156               255.0742               257.6257
 Red. masses --     1.0874                 1.1204                 1.0395
 Frc consts  --     0.0298                 0.0430                 0.0407
 IR Inten    --     0.0113                 0.5046                 0.0223

                    10                     11                     12
                     A                      A                      A
 Frequencies --   262.1094               265.1625               279.4988
 Red. masses --     1.6330                 2.1243                 1.0965
 Frc consts  --     0.0661                 0.0880                 0.0505
 IR Inten    --     0.2881                 0.1163                 0.3203

                    13                     14                     15
                     A                      A                      A
 Frequencies --   281.2162               304.6980               342.1125
 Red. masses --     1.6468                 1.7267                 2.3677
 Frc consts  --     0.0767                 0.0944                 0.1633
 IR Inten    --     1.0968                 1.2089                 0.5513

                    16                     17                     18
                     A                      A                      A
 Frequencies --   344.3617               361.7015               366.6584
 Red. masses --     2.3001                 2.2487                 2.4416
 Frc consts  --     0.1607                 0.1733                 0.1934
 IR Inten    --     1.4221                 4.4976                 0.8474

                    19                     20                     21
                     A                      A                      A
 Frequencies --   406.4684               439.1128               462.6779
 Red. masses --     2.4841                 2.6896                 2.6927
 Frc consts  --     0.2418                 0.3056                 0.3396
 IR Inten    --     0.4348                 1.3582                 0.0514

                    22                     23                     24
                     A                      A                      A
 Frequencies --   478.2023               500.3927               552.8843
 Red. masses --     2.6873                 2.9750                 2.7684
 Frc consts  --     0.3621                 0.4389                 0.4986
 IR Inten    --    14.9875                14.1840                 4.5676

                    25                     26                     27
                     A                      A                      A
 Frequencies --   582.8547               655.7355               697.5630
 Red. masses --     3.9624                 4.2874                 1.3000
 Frc consts  --     0.7931                 1.0862                 0.3727
 IR Inten    --    24.5116                 8.8081                23.7576

                    28                     29                     30
                     A                      A                      A
 Frequencies --   786.9856               789.5755               813.1859
 Red. masses --     1.2790                 3.1505                 2.6203
 Frc consts  --     0.4667                 1.1572                 1.0209
 IR Inten    --    59.2971                 2.4891                 4.0939

                    31                     32                     33
                     A                      A                      A
 Frequencies --   893.1785               908.2164               919.4883
 Red. masses --     3.9030                 3.3909                 1.7368
 Frc consts  --     1.8345                 1.6480                 0.8652
 IR Inten    --    32.0685                 4.2411                 1.4237

                    34                     35                     36
                     A                      A                      A
 Frequencies --   920.5344               938.0926               938.7374
 Red. masses --     1.8790                 1.6656                 1.6845
 Frc consts  --     0.9381                 0.8636                 0.8746
 IR Inten    --     0.1042                 0.4618                 1.1092

                    37                     38                     39
                     A                      A                      A
 Frequencies --   969.9085               970.0127              1034.2583
 Red. masses --     1.2072                 1.2045                 1.7932
 Frc consts  --     0.6691                 0.6678                 1.1302
 IR Inten    --     0.0106                 0.1967                 1.1127

                    40                     41                     42
                     A                      A                      A
 Frequencies --  1047.0502              1053.2534              1054.7077
 Red. masses --     1.5150                 1.3917                 1.4069
 Frc consts  --     0.9786                 0.9096                 0.9221
 IR Inten    --    14.7625                 0.9310                 7.9243

                    43                     44                     45
                     A                      A                      A
 Frequencies --  1078.1293              1089.3130              1134.0899
 Red. masses --     1.7164                 2.3198                 1.5972
 Frc consts  --     1.1755                 1.6218                 1.2103
 IR Inten    --     2.0575                96.8718                 4.4753

                    46                     47                     48
                     A                      A                      A
 Frequencies --  1162.9801              1175.1889              1223.4938
 Red. masses --     4.2363                 1.5924                 2.5956
 Frc consts  --     3.3758                 1.2958                 2.2893
 IR Inten    --    15.1595                 4.7941                13.7613

                    49                     50                     51
                     A                      A                      A
 Frequencies --  1241.2327              1249.3520              1254.9168
 Red. masses --     1.0661                 2.6022                 2.7354
 Frc consts  --     0.9677                 2.3931                 2.5381
 IR Inten    --     1.7560                16.3582                30.6067

                    52                     53                     54
                     A                      A                      A
 Frequencies --  1265.9922              1278.4248              1288.7997
 Red. masses --     2.7725                 2.9283                 3.2266
 Frc consts  --     2.6181                 2.8198                 3.1577
 IR Inten    --   163.1156                 2.1194                17.1888

                    55                     56                     57
                     A                      A                      A
 Frequencies --  1326.2194              1339.0717              1420.6068
 Red. masses --     4.5814                 1.3150                 1.2393
 Frc consts  --     4.7477                 1.3893                 1.4736
 IR Inten    --    75.0141                 9.2736                 2.1973

                    58                     59                     60
                     A                      A                      A
 Frequencies --  1421.0076              1425.9668              1426.2798
 Red. masses --     1.2375                 1.2592                 1.2653
 Frc consts  --     1.4722                 1.5086                 1.5165
 IR Inten    --    22.1156                 3.5642                21.2108

                    61                     62                     63
                     A                      A                      A
 Frequencies --  1452.1215              1453.3284              1467.4020
 Red. masses --     1.2464                 1.2271                 1.5110
 Frc consts  --     1.5485                 1.5271                 1.9170
 IR Inten    --     9.5142                 2.9548                38.0973

                    64                     65                     66
                     A                      A                      A
 Frequencies --  1507.6302              1508.6488              1513.7733
 Red. masses --     1.0515                 1.0558                 1.0480
 Frc consts  --     1.4081                 1.4158                 1.4149
 IR Inten    --     0.0601                 0.9809                 0.2428

                    67                     68                     69
                     A                      A                      A
 Frequencies --  1515.2887              1520.7686              1520.8264
 Red. masses --     1.0493                 1.0465                 1.0466
 Frc consts  --     1.4195                 1.4259                 1.4263
 IR Inten    --     1.2958                 0.0141                 0.0239

                    70                     71                     72
                     A                      A                      A
 Frequencies --  1531.6118              1531.7669              1535.5754
 Red. masses --     1.0532                 1.0557                 1.0589
 Frc consts  --     1.4556                 1.4593                 1.4711
 IR Inten    --     0.2807                10.6169                 4.9020

                    73                     74                     75
                     A                      A                      A
 Frequencies --  1535.6875              1549.2913              1549.6290
 Red. masses --     1.0596                 1.0550                 1.0548
 Frc consts  --     1.4723                 1.4920                 1.4924
 IR Inten    --     0.0075                 8.1112                 3.5557

                    76                     77                     78
                     A                      A                      A
 Frequencies --  1574.0788              1692.2293              2849.1913
 Red. masses --     1.0903                 6.2388                 1.0759
 Frc consts  --     1.5917                10.5262                 5.1462
 IR Inten    --     2.9012                10.0691                83.0942

                    79                     80                     81
                     A                      A                      A
 Frequencies --  3046.7349              3047.1750              3049.0884
 Red. masses --     1.0431                 1.0347                 1.0432
 Frc consts  --     5.7049                 5.6606                 5.7141
 IR Inten    --    10.5029                 0.4536                40.1262

                    82                     83                     84
                     A                      A                      A
 Frequencies --  3050.2508              3053.7235              3057.5584
 Red. masses --     1.0347                 1.0596                 1.0359
 Frc consts  --     5.6722                 5.8215                 5.7061
 IR Inten    --     3.7201                65.6820                26.9880

                    85                     86                     87
                     A                      A                      A
 Frequencies --  3059.0952              3111.8115              3112.6462
 Red. masses --     1.0443                 1.1020                 1.1019
 Frc consts  --     5.7576                 6.2872                 6.2903
 IR Inten    --    16.3411                15.8883                 1.9205

                    88                     89                     90
                     A                      A                      A
 Frequencies --  3116.0015              3116.2480              3119.8367
 Red. masses --     1.1026                 1.1026                 1.1017
 Frc consts  --     6.3076                 6.3084                 6.3178
 IR Inten    --     1.4685                 6.1846                57.7592

                    91                     92                     93
                     A                      A                      A
 Frequencies --  3120.8131              3122.4786              3122.7921
 Red. masses --     1.1016                 1.1026                 1.1026
 Frc consts  --     6.3213                 6.3338                 6.3354
 IR Inten    --    30.8179                47.4084                25.4360

                    94                     95                     96
                     A                      A                      A
 Frequencies --  3125.8220              3126.1446              3131.7208
 Red. masses --     1.1026                 1.1024                 1.1029
 Frc consts  --     6.3474                 6.3475                 6.3733
 IR Inten    --    36.1037                41.2580                15.4894

                    97                     98                     99
                     A                      A                      A
 Frequencies --  3131.9084              3269.4668              3291.7239
 Red. masses --     1.1029                 1.0864                 1.1053
 Frc consts  --     6.3738                 6.8420                 7.0561
 IR Inten    --    69.7702                 0.1086                 9.3478

 - Thermochemistry -
 -------------------
 Temperature   298.150 Kelvin.  Pressure   1.00000 Atm.
 Atom     1 has atomic number  6 and mass  12.00000

 Molecular mass:   182.17830 amu.
 Principal axes and moments of inertia in atomic units:
                           1         2         3
     Eigenvalues --  1111.486713995.984014262.32607
           X            1.00000  -0.00000   0.00000
           Y            0.00000   0.99967  -0.02558
           Z           -0.00000   0.02558   0.99967
 This molecule is an asymmetric top.
 Rotational symmetry number  1.
 Warning -- assumption of classical behavior for rotation
           may cause significant error
 Rotational temperatures (Kelvin)      0.07793     0.02168     0.02032
 Rotational constants (GHZ):           1.62372     0.45164     0.42342
 Zero-point vibrational energy     837684.4 (Joules/Mol)
                                  200.21138 (Kcal/Mol)
 Warning -- explicit consideration of  25 degrees of freedom as
           vibrations may cause significant error
 Vibrational temperatures:     52.66    69.92   124.78   227.46   248.76
          (Kelvin)            294.98   310.37   366.99   370.67   377.12
                              381.51   402.14   404.61   438.39   492.22
                              495.46   520.41   527.54   584.82   631.78
                              665.69   688.03   719.95   795.48   838.60
                              943.46  1003.64  1132.30  1136.02  1169.99
                             1285.08  1306.72  1322.94  1324.44  1349.70
                             1350.63  1395.48  1395.63  1488.07  1506.47
                             1515.39  1517.49  1551.19  1567.28  1631.70
                             1673.27  1690.83  1760.33  1785.85  1797.54
                             1805.54  1821.48  1839.37  1854.29  1908.13
                             1926.62  2043.93  2044.51  2051.65  2052.10
                             2089.28  2091.01  2111.26  2169.14  2170.61
                             2177.98  2180.16  2188.04  2188.13  2203.65
                             2203.87  2209.35  2209.51  2229.08  2229.57
                             2264.75  2434.74  4099.35  4383.57  4384.20
                             4386.95  4388.63  4393.62  4399.14  4401.35
                             4477.20  4478.40  4483.23  4483.58  4488.74
                             4490.15  4492.54  4493.00  4497.36  4497.82
                             4505.84  4506.11  4704.03  4736.05

 Zero-point correction=                           0.319057 (Hartree/Particle)
 Thermal correction to Energy=                    0.334270
 Thermal correction to Enthalpy=                  0.335215
 Thermal correction to Gibbs Free Energy=         0.278223
 Sum of electronic and zero-point Energies=           -541.568038
 Sum of electronic and thermal Energies=              -541.552825
 Sum of electronic and thermal Enthalpies=            -541.551881
 Sum of electronic and thermal Free Energies=         -541.608872

                     E (Thermal)             CV                S
                      KCal/Mol        Cal/Mol-Kelvin    Cal/Mol-Kelvin
 Total                  209.758             59.582            119.949
 Electronic               0.000              0.000              0.000
 Translational            0.889              2.981             41.506
 Rotational               0.889              2.981             31.316
 Vibrational            207.980             53.620             47.127
 Vibration     1          0.594              1.982              5.435
 Vibration     2          0.595              1.978              4.874
 Vibration     3          0.601              1.958              3.733
 Vibration     4          0.621              1.894              2.572
 Vibration     5          0.626              1.876              2.404
 Vibration     6          0.640              1.833              2.088
 Vibration     7          0.645              1.817              1.995
 Vibration     8          0.665              1.754              1.695
 Vibration     9          0.667              1.750              1.678
 Vibration    10          0.669              1.742              1.648
 Vibration    11          0.671              1.737              1.628
 Vibration    12          0.680              1.711              1.537
 Vibration    13          0.681              1.708              1.526
 Vibration    14          0.696              1.665              1.391
 Vibration    15          0.721              1.591              1.202
 Vibration    16          0.723              1.587              1.192
 Vibration    17          0.736              1.551              1.115
 Vibration    18          0.740              1.541              1.094
 Vibration    19          0.771              1.456              0.939
 Vibration    20          0.799              1.385              0.829
 Vibration    21          0.820              1.333              0.758
 Vibration    22          0.835              1.298              0.715
 Vibration    23          0.856              1.249              0.657
 Vibration    24          0.908              1.133              0.538
 Vibration    25          0.940              1.068              0.480

 Optimization completed.
    -- Stationary point found.
 Normal termination of Gaussian 09 at Fri Oct  1 23:09:14 2021.
 Gaussian 09:  AM64L-G09RevA.02 11-Jun-2009

 ----------------------------------------------------------------------
 #p TD(NStates=10, Root=1) b3lyp/6-31G* volume pop=NPA density=current
 Geom=AllCheck Guess=Read
 ----------------------------------------------------------------------

 CC(N1C=CN(C1)C(C)(C)C)(C)C_conf_0
 ---------------------------------
 Redundant internal coordinates taken from checkpoint file:
 C11H22N2_dfe3_conf_0.chk
 Charge =  0 Multiplicity = 1

                         Standard orientation:
 ---------------------------------------------------------------------
 Center     Atomic      Atomic             Coordinates (Angstroms)
 Number     Number       Type             X           Y           Z
 ---------------------------------------------------------------------
      1          6           0       -2.390610    0.302775    1.586478
      2          6           0       -2.445336    0.183515    0.046568
      3          7           0       -1.167305   -0.302983   -0.530701
      4          6           0       -0.669290   -1.578276   -0.157684
      5          6           0        0.669313   -1.578265   -0.157662
      6          7           0        1.167316   -0.302985   -0.530683
      7          6           0        0.000007    0.598400   -0.471555
      8          6           0        2.445337    0.183527    0.046563
      9          6           0        3.557878   -0.803408   -0.353400
     10          6           0        2.764027    1.553402   -0.579626
     11          6           0        2.390533    0.303030    1.586453
     12          6           0       -3.557914   -0.803283   -0.353622
     13          6           0       -2.763948    1.553504   -0.579408
     14          1           0       -2.150152   -0.665299    2.039551
     15          1           0       -3.354856    0.638914    1.984886
     16          1           0       -1.630227    1.022144    1.910732
     17          1           0       -1.331601   -2.426350   -0.065841
     18          1           0        1.331638   -2.426318   -0.065731
     19          1           0        0.000014    1.299725   -1.313688
     20          1           0        0.000008    1.200980    0.463626
     21          1           0        3.566149   -0.950360   -1.438431
     22          1           0        3.432801   -1.780234    0.125655
     23          1           0        4.534466   -0.413388   -0.046011
     24          1           0        2.772893    1.482846   -1.672826
     25          1           0        3.748573    1.900444   -0.247700
     26          1           0        2.033074    2.316133   -0.289444
     27          1           0        2.149917   -0.664949    2.039646
     28          1           0        1.630241    1.022559    1.910563
     29          1           0        3.354807    0.639089    1.984862
     30          1           0       -3.432899   -1.780210    0.125239
     31          1           0       -3.566151   -0.950023   -1.438681
     32          1           0       -4.534496   -0.413280   -0.046186
     33          1           0       -2.033091    2.316209   -0.288920
     34          1           0       -3.748578    1.900437   -0.247617
     35          1           0       -2.772590    1.483168   -1.672624
 ---------------------------------------------------------------------

 SCF Done:  E(RB3LYP) =  -541.887095336     A.U. after    1 cycles

 Excitation energies and oscillator strengths:

 Excited State   1:      Singlet-A      5.0489 eV  245.57 nm  f=0.2215  <S**2>=0.000
      51 -> 52         0.69718
 This state for optimization and/or second-order correction.
 Total Energy, E(TD-HF/TD-KS) =  -541.701552062
 Copying the excited state density for this state as the 1-particle RhoCI density.

 Excited State   2:      Singlet-A      5.1666 eV  239.97 nm  f=0.0110  <S**2>=0.000
      51 -> 53         0.70441

 Excited State   3:      Singlet-A      5.7387 eV  216.05 nm  f=0.0002  <S**2>=0.000
      51 -> 54         0.70008

 Excited State   4:      Singlet-A      6.0907 eV  203.56 nm  f=0.0028  <S**2>=0.000
      51 -> 55         0.67705
      51 -> 56         0.17173

 Excited State   5:      Singlet-A      6.3072 eV  196.58 nm  f=0.0007  <S**2>=0.000
      51 -> 57         0.69539

 Excited State   6:      Singlet-A      6.3170 eV  196.27 nm  f=0.0009  <S**2>=0.000
      51 -> 55        -0.17171
      51 -> 56         0.68180

 Excited State   7:      Singlet-A      6.6236 eV  187.19 nm  f=0.0041  <S**2>=0.000
      51 -> 58         0.69667

 Excited State   8:      Singlet-A      6.9980 eV  177.17 nm  f=0.0022  <S**2>=0.000
      51 -> 59         0.69969

 Excited State   9:      Singlet-A      7.0116 eV  176.83 nm  f=0.0160  <S**2>=0.000
      51 -> 60         0.68888

 Excited State  10:      Singlet-A      7.3670 eV  168.30 nm  f=0.0054  <S**2>=0.000
      50 -> 52        -0.35137
      51 -> 62         0.51994
      51 -> 64        -0.27763
      51 -> 65        -0.11893

 The electronic state is 1-A.
 Alpha  occ. eigenvalues --  -14.32462 -14.32461 -10.22988 -10.22324 -10.22324
 Alpha  occ. eigenvalues --  -10.18439 -10.18355 -10.17239 -10.17239 -10.17093
 Alpha  occ. eigenvalues --  -10.17093 -10.16860 -10.16859  -0.96244  -0.88504
 Alpha  occ. eigenvalues --   -0.80310  -0.75954  -0.72890  -0.68605  -0.68324
 Alpha  occ. eigenvalues --   -0.68214  -0.67989  -0.62753  -0.57639  -0.55070
 Alpha  occ. eigenvalues --   -0.52414  -0.49429  -0.46715  -0.45427  -0.44204
 Alpha  occ. eigenvalues --   -0.44072  -0.43078  -0.42212  -0.41410  -0.40138
 Alpha  occ. eigenvalues --   -0.40002  -0.38876  -0.38033  -0.37819  -0.37249
 Alpha  occ. eigenvalues --   -0.36527  -0.36261  -0.35654  -0.34749  -0.33485
 Alpha  occ. eigenvalues --   -0.33388  -0.32228  -0.31977  -0.29632  -0.24479
 Alpha  occ. eigenvalues --   -0.14584
 Alpha virt. eigenvalues --    0.05504   0.07374   0.09321   0.11089   0.11770
 Alpha virt. eigenvalues --    0.11933   0.13094   0.14207   0.14306   0.15680
 Alpha virt. eigenvalues --    0.15703   0.16286   0.16750   0.17566   0.17801

 Mulliken atomic charges:
              1
     1  C   -0.435468
     2  C    0.203962
     3  N   -0.389012
     4  C   -0.076577
     5  C   -0.076559
     6  N   -0.389002
     7  C    0.021257
     8  C    0.203973
     9  C   -0.439405
    10  C   -0.453238
    11  C   -0.435461
    12  C   -0.439420
    13  C   -0.453260
    14  H    0.138104
    15  H    0.141595
    16  H    0.129835
    17  H    0.131944
    18  H    0.131954
    19  H    0.185602
    20  H    0.178046
    21  H    0.148631
    22  H    0.142828
    23  H    0.140039
    24  H    0.143015
    25  H    0.145696
    26  H    0.135562
    27  H    0.138071
    28  H    0.129813
    29  H    0.141590
    30  H    0.142863
    31  H    0.148645
    32  H    0.140049
    33  H    0.135581
    34  H    0.145717
    35  H    0.143031
 Sum of Mulliken atomic charges =  -0.00000

 Dipole moment (field-independent basis, Debye):
    X=             -0.0015    Y=              2.0420    Z=              0.2958  Tot=              2.0633
 Quadrupole moment (field-independent basis, Debye-Ang):
   XX=            -78.8613   YY=            -83.3605   ZZ=            -86.9861
   XY=             -0.0002   XZ=             -0.0004   YZ=             -0.7105

 Summary of Natural Population Analysis:

                                       Natural Population
                Natural  -----------------------------------------------
    Atom  No    Charge         Core      Valence    Rydberg      Total
 -----------------------------------------------------------------------
      C    1   -0.68746      1.99935     4.67636    0.01175     6.68746
      C    2    0.13316      1.99912     3.84996    0.01776     5.86684
      N    3   -0.35991      1.99935     5.34370    0.01687     7.35991
      C    4   -0.24273      1.99903     4.20789    0.03581     6.24273
      C    5   -0.24272      1.99903     4.20788    0.03581     6.24272
      N    6   -0.35990      1.99935     5.34369    0.01687     7.35990
      C    7   -0.07678      1.99936     4.05796    0.01946     6.07678
      C    8    0.13316      1.99912     3.84996    0.01776     5.86684
      C    9   -0.67884      1.99936     4.66886    0.01061     6.67884
      C   10   -0.68328      1.99936     4.67289    0.01103     6.68328
      C   11   -0.68746      1.99935     4.67636    0.01175     6.68746
      C   12   -0.67883      1.99936     4.66886    0.01061     6.67883
      C   13   -0.68328      1.99936     4.67290    0.01103     6.68328
      H   14    0.22924      0.00000     0.76080    0.00996     0.77076
      H   15    0.23580      0.00000     0.76293    0.00127     0.76420
      H   16    0.21990      0.00000     0.77875    0.00136     0.78010
      H   17    0.23044      0.00000     0.76872    0.00085     0.76956
      H   18    0.23045      0.00000     0.76871    0.00085     0.76955
      H   19    0.25887      0.00000     0.73989    0.00124     0.74113
      H   20    0.24048      0.00000     0.75610    0.00342     0.75952
      H   21    0.23660      0.00000     0.76050    0.00291     0.76340
      H   22    0.22824      0.00000     0.76690    0.00486     0.77176
      H   23    0.23395      0.00000     0.76462    0.00143     0.76605
      H   24    0.23130      0.00000     0.76339    0.00531     0.76870
      H   25    0.23923      0.00000     0.75876    0.00201     0.76077
      H   26    0.22306      0.00000     0.77551    0.00144     0.77694
      H   27    0.22922      0.00000     0.76081    0.00997     0.77078
      H   28    0.21988      0.00000     0.77876    0.00136     0.78012
      H   29    0.23580      0.00000     0.76293    0.00127     0.76420
      H   30    0.22826      0.00000     0.76689    0.00485     0.77174
      H   31    0.23661      0.00000     0.76049    0.00290     0.76339
      H   32    0.23396      0.00000     0.76462    0.00143     0.76604
      H   33    0.22307      0.00000     0.77550    0.00143     0.77693
      H   34    0.23924      0.00000     0.75876    0.00200     0.76076
      H   35    0.23131      0.00000     0.76339    0.00530     0.76869
 =======================================================================
   * Total *   -0.00000     25.99050    75.71497    0.29453   102.00000

 Normal termination of Gaussian 09 at Sat Oct  2 11:35:08 2021.
