 Gaussian 09, Revision A.02,

 -----------------------------------
 #p opt b3lyp/6-31G* scf=(xqc,tight)
 -----------------------------------

 ----------------------------
 CCN(C(=O)Oc1ccccc1)CC_conf_0
 ----------------------------
 Symbolic Z-matrix:
 Charge =  0 Multiplicity = 1

 SCF Done:  E(RB3LYP) =  -633.423531491     A.U. after   15 cycles
 SCF Done:  E(RB3LYP) =  -633.426222842     A.U. after   12 cycles
 SCF Done:  E(RB3LYP) =  -633.426243116     A.U. after   12 cycles
 SCF Done:  E(RB3LYP) =  -633.426600222     A.U. after   11 cycles
 SCF Done:  E(RB3LYP) =  -633.426687321     A.U. after   11 cycles
 SCF Done:  E(RB3LYP) =  -633.426705977     A.U. after   10 cycles
 SCF Done:  E(RB3LYP) =  -633.426710582     A.U. after    9 cycles
 SCF Done:  E(RB3LYP) =  -633.426712285     A.U. after    8 cycles
 SCF Done:  E(RB3LYP) =  -633.426712950     A.U. after    8 cycles
 SCF Done:  E(RB3LYP) =  -633.426713366     A.U. after    8 cycles
 SCF Done:  E(RB3LYP) =  -633.426713557     A.U. after    8 cycles
 SCF Done:  E(RB3LYP) =  -633.426713604     A.U. after    7 cycles
 Optimization completed.
    -- Stationary point found.
 Normal termination of Gaussian 09 at Wed Sep 29 13:31:32 2021.

 ----------------------------------------------------------------------
 #p freq b3lyp/6-31G* volume NMR pop=NPA density=current Geom=AllCheck
 Guess=Read
 ----------------------------------------------------------------------

 CCN(C(=O)Oc1ccccc1)CC_conf_0
 ----------------------------
 Redundant internal coordinates taken from checkpoint file:
 C11H15NO2_992e_conf_0.chk
 Charge =  0 Multiplicity = 1

 SCF Done:  E(RB3LYP) =  -633.426713604     A.U. after    1 cycles

  1  C    Isotropic =   174.8606   Anisotropy =    22.3612

  2  C    Isotropic =   147.6442   Anisotropy =    40.7745

  3  N    Isotropic =   158.5452   Anisotropy =    68.3434

  4  C    Isotropic =    46.8028   Anisotropy =    78.1275

  5  O    Isotropic =    64.9870   Anisotropy =   383.2201

  6  O    Isotropic =   142.8883   Anisotropy =   131.7439

  7  C    Isotropic =    44.6323   Anisotropy =   111.9794

  8  C    Isotropic =    76.4450   Anisotropy =   138.9843

  9  C    Isotropic =    68.0359   Anisotropy =   163.4325

 10  C    Isotropic =    72.7855   Anisotropy =   162.2585

 11  C    Isotropic =    67.8348   Anisotropy =   163.7440

 12  C    Isotropic =    73.2462   Anisotropy =   154.1083

 13  C    Isotropic =   146.8316   Anisotropy =    42.6879

 14  C    Isotropic =   175.6572   Anisotropy =    21.2043

 15  H    Isotropic =    31.3383   Anisotropy =    10.3537

 16  H    Isotropic =    30.9706   Anisotropy =     7.1133

 17  H    Isotropic =    30.6581   Anisotropy =     7.0789

 18  H    Isotropic =    29.3829   Anisotropy =     6.3142

 19  H    Isotropic =    28.4342   Anisotropy =     4.4036

 20  H    Isotropic =    25.4521   Anisotropy =     7.1876

 21  H    Isotropic =    25.0050   Anisotropy =     4.7007

 22  H    Isotropic =    25.2093   Anisotropy =     3.8101

 23  H    Isotropic =    24.9753   Anisotropy =     4.8475

 24  H    Isotropic =    24.8004   Anisotropy =     9.2722

 25  H    Isotropic =    28.3477   Anisotropy =     5.8758

 26  H    Isotropic =    29.5399   Anisotropy =     6.5333

 27  H    Isotropic =    30.6554   Anisotropy =     7.1556

 28  H    Isotropic =    31.3926   Anisotropy =    10.5765

 29  H    Isotropic =    31.0798   Anisotropy =     6.8177

  Exact polarizability: 172.931  -1.568 128.970  -3.247  -5.307  74.284
 Approx polarizability: 227.130  -6.529 203.544  -7.342  -6.912 113.839

                     1                      2                      3
                     A                      A                      A
 Frequencies --    27.4812                43.5997                57.3585
 Red. masses --     3.6451                 4.4198                 3.0431
 Frc consts  --     0.0016                 0.0050                 0.0059
 IR Inten    --     0.2017                 1.4201                 0.5811

                     4                      5                      6
                     A                      A                      A
 Frequencies --    74.2702                92.5938               116.1766
 Red. masses --     2.9015                 4.5405                 3.7805
 Frc consts  --     0.0094                 0.0229                 0.0301
 IR Inten    --     0.1684                 1.5406                 0.1926

                     7                      8                      9
                     A                      A                      A
 Frequencies --   129.9198               212.4903               230.0584
 Red. masses --     4.2595                 1.7918                 1.0853
 Frc consts  --     0.0424                 0.0477                 0.0338
 IR Inten    --     2.2853                 0.3037                 0.3206

                    10                     11                     12
                     A                      A                      A
 Frequencies --   262.8582               273.1238               329.1758
 Red. masses --     1.7061                 3.7971                 2.7469
 Frc consts  --     0.0695                 0.1669                 0.1754
 IR Inten    --     1.0547                 1.0294                 1.7821

                    13                     14                     15
                     A                      A                      A
 Frequencies --   357.3782               391.5175               422.8792
 Red. masses --     3.2193                 4.7070                 3.0645
 Frc consts  --     0.2423                 0.4251                 0.3229
 IR Inten    --     5.0385                10.4824                 0.2346

                    16                     17                     18
                     A                      A                      A
 Frequencies --   439.3450               504.7477               513.1244
 Red. masses --     2.8838                 3.3023                 3.2116
 Frc consts  --     0.3280                 0.4957                 0.4982
 IR Inten    --     6.3388                 5.1362                 3.2476

                    19                     20                     21
                     A                      A                      A
 Frequencies --   608.0626               630.6866               639.2279
 Red. masses --     4.8803                 6.0847                 4.3463
 Frc consts  --     1.0631                 1.4260                 1.0464
 IR Inten    --     4.0507                 1.8714                 1.3494

                    22                     23                     24
                     A                      A                      A
 Frequencies --   700.0846               743.6334               761.0368
 Red. masses --     2.4213                 8.5527                 1.7286
 Frc consts  --     0.6992                 2.7866                 0.5899
 IR Inten    --    12.5774                15.0155                47.2448

                    25                     26                     27
                     A                      A                      A
 Frequencies --   791.0030               796.9628               836.3277
 Red. masses --     1.3503                 1.1888                 2.3527
 Frc consts  --     0.4978                 0.4449                 0.9696
 IR Inten    --    12.6107                 7.5489                 5.9020

                    28                     29                     30
                     A                      A                      A
 Frequencies --   836.6266               839.1360               914.7014
 Red. masses --     3.6749                 1.4177                 1.4854
 Frc consts  --     1.5155                 0.5882                 0.7323
 IR Inten    --     2.5258                 0.1122                 4.0235

                    31                     32                     33
                     A                      A                      A
 Frequencies --   953.3598               959.4240               973.0138
 Red. masses --     2.2577                 1.3352                 2.7098
 Frc consts  --     1.2090                 0.7241                 1.5116
 IR Inten    --     7.8916                 0.1816                45.8900

                    34                     35                     36
                     A                      A                      A
 Frequencies --   985.7625              1020.7769              1052.4867
 Red. masses --     1.2415                 6.1261                 2.3848
 Frc consts  --     0.7108                 3.7609                 1.5564
 IR Inten    --     0.4958                 1.8712                 1.8232

                    37                     38                     39
                     A                      A                      A
 Frequencies --  1065.4292              1103.0061              1109.5715
 Red. masses --     2.4990                 1.9255                 1.4973
 Frc consts  --     1.6714                 1.3802                 1.0861
 IR Inten    --    22.2463                16.8215                 6.2483

                    40                     41                     42
                     A                      A                      A
 Frequencies --  1117.0071              1127.6197              1189.0871
 Red. masses --     1.7787                 1.7139                 2.1065
 Frc consts  --     1.3076                 1.2840                 1.7549
 IR Inten    --    10.9855                29.6994               163.3002

                    43                     44                     45
                     A                      A                      A
 Frequencies --  1190.3945              1201.3938              1247.0497
 Red. masses --     1.1514                 1.2059                 3.9978
 Frc consts  --     0.9613                 1.0255                 3.6630
 IR Inten    --    22.4764                67.7651               524.3629

                    46                     47                     48
                     A                      A                      A
 Frequencies --  1265.0101              1311.2105              1344.9239
 Red. masses --     2.8433                 1.5709                 1.9304
 Frc consts  --     2.6808                 1.5912                 2.0572
 IR Inten    --    52.0803               202.3087                 5.5510

                    49                     50                     51
                     A                      A                      A
 Frequencies --  1357.7738              1364.4321              1400.9462
 Red. masses --     1.3044                 2.7437                 1.2836
 Frc consts  --     1.4168                 3.0095                 1.4843
 IR Inten    --    16.4664                 6.4190                19.1581

                    52                     53                     54
                     A                      A                      A
 Frequencies --  1421.9145              1438.0419              1440.3131
 Red. masses --     1.2864                 1.2898                 1.2634
 Frc consts  --     1.5324                 1.5715                 1.5442
 IR Inten    --    10.9294                11.8403                24.0332

                    55                     56                     57
                     A                      A                      A
 Frequencies --  1462.1885              1503.1695              1507.6282
 Red. masses --     2.0840                 2.2544                 1.0754
 Frc consts  --     2.6252                 3.0012                 1.4401
 IR Inten    --   269.6365                 4.1279                 6.4427

                    58                     59                     60
                     A                      A                      A
 Frequencies --  1521.0416              1522.3925              1527.7695
 Red. masses --     1.0450                 1.0639                 1.0855
 Frc consts  --     1.4244                 1.4528                 1.4927
 IR Inten    --     2.1424                 5.4331                50.6636

                    61                     62                     63
                     A                      A                      A
 Frequencies --  1534.2173              1537.1707              1545.9950
 Red. masses --     1.0609                 1.1478                 2.0859
 Frc consts  --     1.4713                 1.5980                 2.9374
 IR Inten    --     8.9090                43.5728                18.1337

                    64                     65                     66
                     A                      A                      A
 Frequencies --  1651.7281              1660.4648              1810.6004
 Red. masses --     5.9792                 5.8285                11.2709
 Frc consts  --     9.6110                 9.4682                21.7698
 IR Inten    --     9.0437                19.9262               376.6377

                    67                     68                     69
                     A                      A                      A
 Frequencies --  3052.0243              3053.5880              3063.3068
 Red. masses --     1.0363                 1.0360                 1.0681
 Frc consts  --     5.6875                 5.6915                 5.9053
 IR Inten    --    18.7766                18.4387                29.6850

                    70                     71                     72
                     A                      A                      A
 Frequencies --  3072.5332              3113.1696              3115.6604
 Red. masses --     1.0685                 1.1019                 1.1021
 Frc consts  --     5.9434                 6.2924                 6.3033
 IR Inten    --    36.0878                18.4647                21.5935

                    73                     74                     75
                     A                      A                      A
 Frequencies --  3133.1741              3133.7965              3145.9868
 Red. masses --     1.0980                 1.0981                 1.1016
 Frc consts  --     6.3507                 6.3536                 6.4236
 IR Inten    --    23.7828                21.5273                18.8058

                    76                     77                     78
                     A                      A                      A
 Frequencies --  3147.4633              3186.1499              3195.5737
 Red. masses --     1.1022                 1.0852                 1.0897
 Frc consts  --     6.4331                 6.4908                 6.5563
 IR Inten    --    36.4469                 0.3256                15.3093

                    79                     80                     81
                     A                      A                      A
 Frequencies --  3208.2260              3217.0315              3252.4657
 Red. masses --     1.0937                 1.0960                 1.0930
 Frc consts  --     6.6326                 6.6832                 6.8121
 IR Inten    --    33.3942                 9.4450                 1.7499

 - Thermochemistry -
 -------------------
 Temperature   298.150 Kelvin.  Pressure   1.00000 Atm.
 Atom     1 has atomic number  6 and mass  12.00000

 Molecular mass:   193.11028 amu.
 Principal axes and moments of inertia in atomic units:
                           1         2         3
     Eigenvalues --  1251.635844883.702615820.22078
           X            0.99999  -0.00141  -0.00309
           Y            0.00135   0.99984  -0.01807
           Z            0.00311   0.01807   0.99983
 This molecule is an asymmetric top.
 Rotational symmetry number  1.
 Warning -- assumption of classical behavior for rotation
           may cause significant error
 Rotational temperatures (Kelvin)      0.06920     0.01774     0.01488
 Rotational constants (GHZ):           1.44191     0.36954     0.31008
 Zero-point vibrational energy     646522.1 (Joules/Mol)
                                  154.52249 (Kcal/Mol)
 Warning -- explicit consideration of  19 degrees of freedom as
           vibrations may cause significant error
 Vibrational temperatures:     39.54    62.73    82.53   106.86   133.22
          (Kelvin)            167.15   186.93   305.73   331.00   378.19
                              392.96   473.61   514.19   563.31   608.43
                              632.12   726.22   738.27   874.87   907.42
                              919.71  1007.26  1069.92  1094.96  1138.08
                             1146.65  1203.29  1203.72  1207.33  1316.05
                             1371.67  1380.40  1399.95  1418.29  1468.67
                             1514.29  1532.91  1586.98  1596.42  1607.12
                             1622.39  1710.83  1712.71  1728.54  1794.22
                             1820.07  1886.54  1935.04  1953.53  1963.11
                             2015.65  2045.82  2069.02  2072.29  2103.76
                             2162.72  2169.14  2188.44  2190.38  2198.12
                             2207.39  2211.64  2224.34  2376.47  2389.04
                             2605.05  4391.18  4393.43  4407.41  4420.68
                             4479.15  4482.73  4507.93  4508.83  4526.37
                             4528.49  4584.15  4597.71  4615.92  4628.58
                             4679.57

 Zero-point correction=                           0.246247 (Hartree/Particle)
 Thermal correction to Energy=                    0.260278
 Thermal correction to Enthalpy=                  0.261223
 Thermal correction to Gibbs Free Energy=         0.203738
 Sum of electronic and zero-point Energies=           -633.180466
 Sum of electronic and thermal Energies=              -633.166435
 Sum of electronic and thermal Enthalpies=            -633.165491
 Sum of electronic and thermal Free Energies=         -633.222976

                     E (Thermal)             CV                S
                      KCal/Mol        Cal/Mol-Kelvin    Cal/Mol-Kelvin
 Total                  163.327             51.827            120.986
 Electronic               0.000              0.000              0.000
 Translational            0.889              2.981             41.680
 Rotational               0.889              2.981             31.942
 Vibrational            161.550             45.866             47.364
 Vibration     1          0.593              1.984              6.003
 Vibration     2          0.595              1.980              5.088
 Vibration     3          0.596              1.975              4.546
 Vibration     4          0.599              1.966              4.037
 Vibration     5          0.602              1.954              3.605
 Vibration     6          0.608              1.936              3.163
 Vibration     7          0.612              1.923              2.947
 Vibration     8          0.644              1.822              2.022
 Vibration     9          0.652              1.795              1.878
 Vibration    10          0.670              1.741              1.643
 Vibration    11          0.676              1.723              1.576
 Vibration    12          0.712              1.617              1.264
 Vibration    13          0.733              1.560              1.133
 Vibration    14          0.759              1.488              0.994
 Vibration    15          0.785              1.420              0.882
 Vibration    16          0.799              1.384              0.829
 Vibration    17          0.860              1.239              0.646
 Vibration    18          0.868              1.221              0.626
 Vibration    19          0.967              1.015              0.436

 Normal termination of Gaussian 09 at Wed Sep 29 14:37:23 2021.
 Gaussian 09:  AM64L-G09RevA.02 11-Jun-2009

 ----------------------------------------------------------------------
 #p TD(NStates=10, Root=1) b3lyp/6-31G* volume pop=NPA density=current
 Geom=AllCheck Guess=Read
 ----------------------------------------------------------------------

 CCN(C(=O)Oc1ccccc1)CC_conf_0
 ----------------------------
 Redundant internal coordinates taken from checkpoint file:
 C11H15NO2_992e_conf_0.chk
 Charge =  0 Multiplicity = 1

                         Standard orientation:
 ---------------------------------------------------------------------
 Center     Atomic      Atomic             Coordinates (Angstroms)
 Number     Number       Type             X           Y           Z
 ---------------------------------------------------------------------
      1          6           0       -2.367746    2.544763   -0.126255
      2          6           0       -2.307537    1.285724    0.743201
      3          7           0       -2.037444    0.064431   -0.022141
      4          6           0       -0.785048   -0.398934   -0.292004
      5          8           0       -0.529185   -1.417982   -0.906162
      6          8           0        0.167237    0.459693    0.222434
      7          6           0        1.520946    0.152225    0.115656
      8          6           0        2.360676    1.215018   -0.214750
      9          6           0        3.740398    1.014262   -0.254442
     10          6           0        4.275169   -0.243365    0.029703
     11          6           0        3.420800   -1.297832    0.358349
     12          6           0        2.039024   -1.109978    0.409179
     13          6           0       -3.170135   -0.705803   -0.546143
     14          6           0       -3.657780   -1.786586    0.421761
     15          1           0       -2.605356    3.421527    0.487487
     16          1           0       -3.135857    2.456420   -0.902883
     17          1           0       -1.404022    2.717345   -0.614923
     18          1           0       -3.262529    1.135501    1.259790
     19          1           0       -1.541422    1.394215    1.512960
     20          1           0        1.923868    2.184856   -0.431875
     21          1           0        4.394954    1.843134   -0.509987
     22          1           0        5.349440   -0.401184   -0.004573
     23          1           0        3.829629   -2.279885    0.580459
     24          1           0        1.373938   -1.927959    0.653960
     25          1           0       -2.858378   -1.161163   -1.488423
     26          1           0       -3.974910    0.003989   -0.769251
     27          1           0       -2.862666   -2.516025    0.603380
     28          1           0       -4.520195   -2.315433   -0.000385
     29          1           0       -3.961409   -1.357014    1.383548
 ---------------------------------------------------------------------

 SCF Done:  E(RB3LYP) =  -633.426713604     A.U. after    1 cycles

 Excitation energies and oscillator strengths:

 Excited State   1:      Singlet-A      5.3701 eV  230.88 nm  f=0.0045  <S**2>=0.000
      50 -> 54         0.42037
      51 -> 53        -0.13250
      52 -> 53         0.54703
 This state for optimization and/or second-order correction.
 Total Energy, E(TD-HF/TD-KS) =  -633.229365415
 Copying the excited state density for this state as the 1-particle RhoCI density.

 Excited State   2:      Singlet-A      5.9209 eV  209.40 nm  f=0.1664  <S**2>=0.000
      50 -> 53        -0.24389
      51 -> 54         0.18210
      52 -> 54         0.62306

 Excited State   3:      Singlet-A      6.0234 eV  205.84 nm  f=0.0030  <S**2>=0.000
      51 -> 53         0.65944
      52 -> 53         0.22196

 Excited State   4:      Singlet-A      6.1221 eV  202.52 nm  f=0.0028  <S**2>=0.000
      50 -> 53         0.24476
      51 -> 54         0.64354

 Excited State   5:      Singlet-A      6.3826 eV  194.25 nm  f=0.0309  <S**2>=0.000
      49 -> 54         0.57201
      49 -> 55        -0.23585
      50 -> 54         0.23708
      50 -> 55        -0.12656
      52 -> 53        -0.10626

 Excited State   6:      Singlet-A      6.6041 eV  187.74 nm  f=0.1999  <S**2>=0.000
      49 -> 53         0.57950
      50 -> 53         0.29497
      51 -> 54        -0.12648
      52 -> 54         0.15069
      52 -> 55        -0.12821

 Excited State   7:      Singlet-A      6.8581 eV  180.78 nm  f=0.3155  <S**2>=0.000
      48 -> 54         0.10083
      49 -> 53         0.34295
      50 -> 53        -0.38742
      52 -> 54        -0.11144
      52 -> 55         0.42481

 Excited State   8:      Singlet-A      7.0008 eV  177.10 nm  f=0.2597  <S**2>=0.000
      48 -> 53         0.23479
      49 -> 54        -0.25549
      50 -> 54         0.44326
      50 -> 55        -0.11060
      51 -> 53         0.16495
      52 -> 53        -0.32366

 Excited State   9:      Singlet-A      7.1050 eV  174.50 nm  f=0.0362  <S**2>=0.000
      49 -> 54         0.26528
      49 -> 55         0.49818
      50 -> 55         0.32423
      51 -> 55         0.22902

 Excited State  10:      Singlet-A      7.2552 eV  170.89 nm  f=0.1613  <S**2>=0.000
      48 -> 54        -0.31218
      49 -> 53        -0.13213
      50 -> 53         0.27846
      51 -> 55        -0.14761
      52 -> 54         0.15511
      52 -> 55         0.48808

 The electronic state is 1-A.
 Alpha  occ. eigenvalues --  -19.19277 -19.11437 -14.36327 -10.32930 -10.24721
 Alpha  occ. eigenvalues --  -10.22700 -10.22197 -10.18971 -10.18847 -10.18748
 Alpha  occ. eigenvalues --  -10.18548 -10.18504 -10.18373 -10.17963  -1.10244
 Alpha  occ. eigenvalues --   -1.01201  -0.93941  -0.84853  -0.77359  -0.75904
 Alpha  occ. eigenvalues --   -0.74449  -0.73080  -0.66011  -0.64478  -0.61444
 Alpha  occ. eigenvalues --   -0.60128  -0.55573  -0.52652  -0.49966  -0.49318
 Alpha  occ. eigenvalues --   -0.47142  -0.46197  -0.44795  -0.44118  -0.43440
 Alpha  occ. eigenvalues --   -0.42789  -0.41984  -0.41254  -0.39659  -0.38791
 Alpha  occ. eigenvalues --   -0.37778  -0.37330  -0.36207  -0.35888  -0.35624
 Alpha  occ. eigenvalues --   -0.34813  -0.34374  -0.31095  -0.27061  -0.24634
 Alpha  occ. eigenvalues --   -0.24225  -0.23035
 Alpha virt. eigenvalues --    0.00280   0.00484   0.05706   0.08112   0.09129
 Alpha virt. eigenvalues --    0.11271   0.12520   0.13870   0.14153   0.14962
 Alpha virt. eigenvalues --    0.15443   0.15679   0.16212   0.16684   0.16805

 Mulliken atomic charges:
              1
     1  C   -0.443545
     2  C   -0.143977
     3  N   -0.435456
     4  C    0.788964
     5  O   -0.507298
     6  O   -0.533767
     7  C    0.343802
     8  C   -0.174575
     9  C   -0.156502
    10  C   -0.113896
    11  C   -0.161866
    12  C   -0.145111
    13  C   -0.146311
    14  C   -0.444211
    15  H    0.149632
    16  H    0.151395
    17  H    0.166992
    18  H    0.151440
    19  H    0.177586
    20  H    0.132416
    21  H    0.128512
    22  H    0.133033
    23  H    0.130249
    24  H    0.150866
    25  H    0.185455
    26  H    0.146194
    27  H    0.174277
    28  H    0.149829
    29  H    0.145874
 Sum of Mulliken atomic charges =  -0.00000

 Dipole moment (field-independent basis, Debye):
    X=             -2.5194    Y=              1.7669    Z=              1.1878  Tot=              3.2985
 Quadrupole moment (field-independent basis, Debye-Ang):
   XX=            -70.2835   YY=            -81.5495   ZZ=            -85.9456
   XY=             -1.3629   XZ=             -0.7296   YZ=             -2.9669

 Summary of Natural Population Analysis:

                                       Natural Population
                Natural  -----------------------------------------------
    Atom  No    Charge         Core      Valence    Rydberg      Total
 -----------------------------------------------------------------------
      C    1   -0.68758      1.99945     4.68065    0.00748     6.68758
      C    2   -0.26027      1.99934     4.24579    0.01514     6.26027
      N    3   -0.48964      1.99930     5.47676    0.01358     7.48964
      C    4    0.93511      1.99936     3.02004    0.04549     5.06489
      O    5   -0.63643      1.99978     6.61750    0.01915     8.63643
      O    6   -0.52320      1.99969     6.51300    0.01051     8.52320
      C    7    0.31454      1.99874     3.66340    0.02332     5.68546
      C    8   -0.27778      1.99905     4.25971    0.01902     6.27778
      C    9   -0.25749      1.99915     4.23974    0.01860     6.25749
      C   10   -0.19730      1.99913     4.18134    0.01682     6.19730
      C   11   -0.25404      1.99915     4.23629    0.01859     6.25404
      C   12   -0.27912      1.99904     4.26223    0.01785     6.27912
      C   13   -0.25583      1.99935     4.24105    0.01544     6.25583
      C   14   -0.68813      1.99945     4.68123    0.00745     6.68813
      H   15    0.23615      0.00000     0.76294    0.00091     0.76385
      H   16    0.22842      0.00000     0.77067    0.00091     0.77158
      H   17    0.23863      0.00000     0.75999    0.00138     0.76137
      H   18    0.23256      0.00000     0.76602    0.00143     0.76744
      H   19    0.25373      0.00000     0.74476    0.00151     0.74627
      H   20    0.23547      0.00000     0.76330    0.00124     0.76453
      H   21    0.23017      0.00000     0.76899    0.00084     0.76983
      H   22    0.23011      0.00000     0.76905    0.00085     0.76989
      H   23    0.23084      0.00000     0.76831    0.00085     0.76916
      H   24    0.24874      0.00000     0.75004    0.00122     0.75126
      H   25    0.25968      0.00000     0.73837    0.00195     0.74032
      H   26    0.22811      0.00000     0.77057    0.00132     0.77189
      H   27    0.24330      0.00000     0.75543    0.00127     0.75670
      H   28    0.23644      0.00000     0.76271    0.00086     0.76356
      H   29    0.22482      0.00000     0.77425    0.00093     0.77518
 =======================================================================
   * Total *   -0.00000     27.98999    75.74413    0.26588   104.00000

 Normal termination of Gaussian 09 at Wed Sep 29 19:05:26 2021.
