 Gaussian 09, Revision A.02,

 -----------------------------------
 #p opt b3lyp/6-31G* scf=(xqc,tight)
 -----------------------------------

 ---------------------------------
 CN(C(=O)Oc1cccc(c1)N(C)C)C_conf_0
 ---------------------------------
 Symbolic Z-matrix:
 Charge =  0 Multiplicity = 1

 SCF Done:  E(RB3LYP) =  -688.751102656     A.U. after   15 cycles
 SCF Done:  E(RB3LYP) =  -688.756588710     A.U. after   12 cycles
 SCF Done:  E(RB3LYP) =  -688.757670590     A.U. after   12 cycles
 SCF Done:  E(RB3LYP) =  -688.757854031     A.U. after   13 cycles
 SCF Done:  E(RB3LYP) =  -688.759293981     A.U. after   12 cycles
 SCF Done:  E(RB3LYP) =  -688.759541500     A.U. after   11 cycles
 SCF Done:  E(RB3LYP) =  -688.759703372     A.U. after   11 cycles
 SCF Done:  E(RB3LYP) =  -688.759749466     A.U. after   12 cycles
 SCF Done:  E(RB3LYP) =  -688.759780505     A.U. after   10 cycles
 SCF Done:  E(RB3LYP) =  -688.759805247     A.U. after   11 cycles
 SCF Done:  E(RB3LYP) =  -688.760927447     A.U. after    7 cycles
 SCF Done:  E(RB3LYP) =  -688.760927546     A.U. after    7 cycles
 SCF Done:  E(RB3LYP) =  -688.760927609     A.U. after    7 cycles
 SCF Done:  E(RB3LYP) =  -688.760927660     A.U. after    6 cycles
 SCF Done:  E(RB3LYP) =  -688.760927703     A.U. after    6 cycles
 SCF Done:  E(RB3LYP) =  -688.760927783     A.U. after    7 cycles
 SCF Done:  E(RB3LYP) =  -688.760927920     A.U. after    7 cycles
 SCF Done:  E(RB3LYP) =  -688.760927939     A.U. after    7 cycles
 Optimization completed.
    -- Stationary point found.
 Normal termination of Gaussian 09 at Thu Sep 30 21:11:47 2021.

 ----------------------------------------------------------------------
 #p freq b3lyp/6-31G* volume NMR pop=NPA density=current Geom=AllCheck
 Guess=Read
 ----------------------------------------------------------------------

 CN(C(=O)Oc1cccc(c1)N(C)C)C_conf_0
 ---------------------------------
 Redundant internal coordinates taken from checkpoint file:
 C11H16N2O2_dc18_conf_0.chk
 Charge =  0 Multiplicity = 1

 SCF Done:  E(RB3LYP) =  -688.760927939     A.U. after    1 cycles

  1  C    Isotropic =   155.5874   Anisotropy =    49.3929

  2  N    Isotropic =   181.0054   Anisotropy =    84.5289

  3  C    Isotropic =    46.9005   Anisotropy =    76.4533

  4  O    Isotropic =    66.8131   Anisotropy =   389.5350

  5  O    Isotropic =   144.3216   Anisotropy =   124.1911

  6  C    Isotropic =    43.6848   Anisotropy =   106.3869

  7  C    Isotropic =    84.0556   Anisotropy =   137.7122

  8  C    Isotropic =    67.2854   Anisotropy =   161.4216

  9  C    Isotropic =    87.9747   Anisotropy =   135.6190

 10  C    Isotropic =    49.4710   Anisotropy =   147.7069

 11  C    Isotropic =    91.5415   Anisotropy =   114.2921

 12  N    Isotropic =   203.8429   Anisotropy =    83.1189

 13  C    Isotropic =   149.9178   Anisotropy =    51.9242

 14  C    Isotropic =   149.8095   Anisotropy =    52.7603

 15  C    Isotropic =   155.3659   Anisotropy =    51.1219

 16  H    Isotropic =    28.2888   Anisotropy =     5.1815

 17  H    Isotropic =    29.8106   Anisotropy =     8.8936

 18  H    Isotropic =    29.6842   Anisotropy =     9.0026

 19  H    Isotropic =    25.5941   Anisotropy =     7.7429

 20  H    Isotropic =    25.1890   Anisotropy =     4.5904

 21  H    Isotropic =    26.0732   Anisotropy =     8.0067

 22  H    Isotropic =    26.3117   Anisotropy =    10.9285

 23  H    Isotropic =    29.0279   Anisotropy =     8.5382

 24  H    Isotropic =    29.3393   Anisotropy =     8.5333

 25  H    Isotropic =    29.7230   Anisotropy =     7.9124

 26  H    Isotropic =    28.9912   Anisotropy =     9.1089

 27  H    Isotropic =    29.7230   Anisotropy =     8.1161

 28  H    Isotropic =    29.3180   Anisotropy =     9.1674

 29  H    Isotropic =    29.9639   Anisotropy =     9.2866

 30  H    Isotropic =    28.1574   Anisotropy =     6.9226

 31  H    Isotropic =    29.9408   Anisotropy =     9.3338

  Exact polarizability: 195.746  -0.775 141.619   5.675  -2.039  80.859
 Approx polarizability: 250.891  -2.808 225.413   9.417   1.169 121.642

                     1                      2                      3
                     A                      A                      A
 Frequencies --    25.9554                35.4005                50.5193
 Red. masses --     4.1727                 2.7226                 1.7565
 Frc consts  --     0.0017                 0.0020                 0.0026
 IR Inten    --     1.2279                 1.9694                 0.1733

                     4                      5                      6
                     A                      A                      A
 Frequencies --    58.7660                96.8866               104.4643
 Red. masses --     2.4479                 3.6122                 2.9346
 Frc consts  --     0.0050                 0.0200                 0.0189
 IR Inten    --     0.3010                 1.7792                 8.8669

                     7                      8                      9
                     A                      A                      A
 Frequencies --   118.0401               150.2593               157.0577
 Red. masses --     3.2582                 1.1768                 1.3566
 Frc consts  --     0.0267                 0.0157                 0.0197
 IR Inten    --     2.0105                 0.0337                 0.8074

                    10                     11                     12
                     A                      A                      A
 Frequencies --   182.2513               223.9268               230.6644
 Red. masses --     1.5974                 1.9130                 3.0688
 Frc consts  --     0.0313                 0.0565                 0.0962
 IR Inten    --     0.3940                 3.7626                 1.1729

                    13                     14                     15
                     A                      A                      A
 Frequencies --   239.9535               278.1578               285.3349
 Red. masses --     3.1461                 2.9613                 2.8212
 Frc consts  --     0.1067                 0.1350                 0.1353
 IR Inten    --     2.5166                 0.5005                 2.6272

                    16                     17                     18
                     A                      A                      A
 Frequencies --   353.8107               385.9291               416.4926
 Red. masses --     3.5675                 3.1455                 3.2430
 Frc consts  --     0.2631                 0.2760                 0.3314
 IR Inten    --     4.6563                11.4718                 3.1864

                    19                     20                     21
                     A                      A                      A
 Frequencies --   455.0708               466.5038               508.5078
 Red. masses --     3.5578                 3.1742                 4.0045
 Frc consts  --     0.4341                 0.4070                 0.6101
 IR Inten    --     7.6836                 2.4385                 2.0052

                    22                     23                     24
                     A                      A                      A
 Frequencies --   556.8086               604.7677               622.6262
 Red. masses --     3.4079                 5.3432                 6.4216
 Frc consts  --     0.6225                 1.1514                 1.4667
 IR Inten    --     0.5322                 3.9326                 6.5286

                    25                     26                     27
                     A                      A                      A
 Frequencies --   661.3277               695.8736               736.2369
 Red. masses --     5.1503                 2.0860                 9.0141
 Frc consts  --     1.3272                 0.5951                 2.8788
 IR Inten    --     0.8438                 7.6585                11.3723

                    28                     29                     30
                     A                      A                      A
 Frequencies --   746.2664               768.1334               831.1112
 Red. masses --     6.8664                 1.4410                 2.2623
 Frc consts  --     2.2530                 0.5009                 0.9207
 IR Inten    --     7.4100                30.9995                10.6202

                    31                     32                     33
                     A                      A                      A
 Frequencies --   846.5981               875.8427               905.6750
 Red. masses --     1.6333                 2.6944                 4.7203
 Frc consts  --     0.6897                 1.2178                 2.2812
 IR Inten    --    13.6130                14.0686                14.7361

                    34                     35                     36
                     A                      A                      A
 Frequencies --   956.1768               994.6924              1017.8455
 Red. masses --     1.2557                 3.1367                 4.2685
 Frc consts  --     0.6764                 1.8285                 2.6055
 IR Inten    --     0.1062                12.3105                58.5349

                    37                     38                     39
                     A                      A                      A
 Frequencies --  1058.0281              1089.6199              1094.9726
 Red. masses --     2.3767                 1.5332                 1.3614
 Frc consts  --     1.5675                 1.0725                 0.9617
 IR Inten    --    27.3988                25.9946                 6.7305

                    40                     41                     42
                     A                      A                      A
 Frequencies --  1125.7837              1144.8413              1151.4052
 Red. masses --     1.6465                 1.2159                 1.2327
 Frc consts  --     1.2295                 0.9389                 0.9629
 IR Inten    --     1.8456                 0.1880                 0.9078

                    43                     44                     45
                     A                      A                      A
 Frequencies --  1155.4806              1182.2977              1190.6337
 Red. masses --     1.3620                 1.7348                 1.3761
 Frc consts  --     1.0714                 1.4288                 1.1494
 IR Inten    --    56.2994                47.0838                35.8733

                    46                     47                     48
                     A                      A                      A
 Frequencies --  1198.9561              1209.8856              1248.5964
 Red. masses --     2.3515                 1.1999                 2.4856
 Frc consts  --     1.9916                 1.0349                 2.2831
 IR Inten    --   619.7263                85.5950               256.8390

                    49                     50                     51
                     A                      A                      A
 Frequencies --  1281.8709              1300.0272              1347.3305
 Red. masses --     3.0106                 5.9221                 1.7357
 Frc consts  --     2.9147                 5.8970                 1.8564
 IR Inten    --   145.4610                20.8158                 3.4867

                    52                     53                     54
                     A                      A                      A
 Frequencies --  1370.8815              1390.8629              1437.8206
 Red. masses --     5.2745                 3.0803                 2.7278
 Frc consts  --     5.8402                 3.5109                 3.3225
 IR Inten    --    15.0657                81.2063               344.4656

                    55                     56                     57
                     A                      A                      A
 Frequencies --  1459.1908              1470.2416              1489.7319
 Red. masses --     1.1711                 1.1964                 1.2216
 Frc consts  --     1.4692                 1.5237                 1.5974
 IR Inten    --    21.5616                 2.0908                70.8623

                    58                     59                     60
                     A                      A                      A
 Frequencies --  1497.5223              1511.4907              1515.9036
 Red. masses --     1.9430                 1.0572                 1.3760
 Frc consts  --     2.5673                 1.4230                 1.8630
 IR Inten    --    28.1029                 5.3774                 8.1697

                    61                     62                     63
                     A                      A                      A
 Frequencies --  1518.9657              1520.2406              1531.1766
 Red. masses --     1.1266                 1.0552                 1.0493
 Frc consts  --     1.5315                 1.4369                 1.4495
 IR Inten    --    15.0237                 1.9907                17.2779

                    64                     65                     66
                     A                      A                      A
 Frequencies --  1532.0310              1544.2352              1552.4878
 Red. masses --     1.0459                 1.1215                 1.8304
 Frc consts  --     1.4463                 1.5757                 2.5993
 IR Inten    --    14.8241                 5.4199                51.6073

                    67                     68                     69
                     A                      A                      A
 Frequencies --  1561.1348              1566.0962              1630.5033
 Red. masses --     1.1531                 1.2387                 5.7400
 Frc consts  --     1.6558                 1.7900                 8.9909
 IR Inten    --   124.2902                36.4153                46.6541

                    70                     71                     72
                     A                      A                      A
 Frequencies --  1674.3624              1816.4548              2990.7055
 Red. masses --     6.0542                10.9539                 1.0521
 Frc consts  --    10.0001                21.2945                 5.5446
 IR Inten    --   200.8926               381.5178                72.9579

                    73                     74                     75
                     A                      A                      A
 Frequencies --  2999.0568              3024.6000              3032.6740
 Red. masses --     1.0566                 1.0414                 1.0416
 Frc consts  --     5.5991                 5.6131                 5.6445
 IR Inten    --    86.6070                30.9045               119.9007

                    76                     77                     78
                     A                      A                      A
 Frequencies --  3070.0745              3073.3347              3075.6841
 Red. masses --     1.1025                 1.0862                 1.1044
 Frc consts  --     6.1226                 6.0449                 6.1557
 IR Inten    --    61.5475                28.6570                17.9779

                    79                     80                     81
                     A                      A                      A
 Frequencies --  3076.6203              3136.9575              3148.4424
 Red. masses --     1.0862                 1.0988                 1.0960
 Frc consts  --     6.0575                 6.3707                 6.4009
 IR Inten    --    45.7679                 3.1038                47.5534

                    82                     83                     84
                     A                      A                      A
 Frequencies --  3190.0030              3193.8322              3210.5658
 Red. masses --     1.0889                 1.0958                 1.0940
 Frc consts  --     6.5286                 6.5860                 6.6440
 IR Inten    --    17.8638                 0.9373                 3.3648

                    85                     86                     87
                     A                      A                      A
 Frequencies --  3235.1848              3246.5361              3255.5457
 Red. masses --     1.0904                 1.0894                 1.0933
 Frc consts  --     6.7240                 6.7653                 6.8272
 IR Inten    --    15.8977                 4.3016                 1.4426

 - Thermochemistry -
 -------------------
 Temperature   298.150 Kelvin.  Pressure   1.00000 Atm.
 Atom     1 has atomic number  6 and mass  12.00000

 Molecular mass:   208.12118 amu.
 Principal axes and moments of inertia in atomic units:
                           1         2         3
     Eigenvalues --  1325.384286497.196317386.70244
           X            0.99998   0.00224   0.00572
           Y           -0.00220   0.99998  -0.00542
           Z           -0.00573   0.00541   0.99997
 This molecule is an asymmetric top.
 Rotational symmetry number  1.
 Warning -- assumption of classical behavior for rotation
           may cause significant error
 Rotational temperatures (Kelvin)      0.06535     0.01333     0.01173
 Rotational constants (GHZ):           1.36167     0.27777     0.24432
 Zero-point vibrational energy     687702.1 (Joules/Mol)
                                  164.36475 (Kcal/Mol)
 Warning -- explicit consideration of  23 degrees of freedom as
           vibrations may cause significant error
 Vibrational temperatures:     37.34    50.93    72.69    84.55   139.40
          (Kelvin)            150.30   169.83   216.19   225.97   262.22
                              322.18   331.87   345.24   400.21   410.53
                              509.05   555.27   599.24   654.74   671.19
                              731.63   801.12   870.12   895.82   951.50
                             1001.21  1059.28  1073.71  1105.17  1195.78
                             1218.06  1260.14  1303.06  1375.72  1431.14
                             1464.45  1522.26  1567.72  1575.42  1619.75
                             1647.17  1656.61  1662.48  1701.06  1713.05
                             1725.03  1740.75  1796.45  1844.32  1870.45
                             1938.51  1972.39  2001.14  2068.70  2099.45
                             2115.35  2143.39  2154.60  2174.70  2181.04
                             2185.45  2187.28  2203.02  2204.25  2221.81
                             2233.68  2246.12  2253.26  2345.93  2409.03
                             2613.47  4302.95  4314.97  4351.72  4363.34
                             4417.15  4421.84  4425.22  4426.56  4513.38
                             4529.90  4589.70  4595.21  4619.28  4654.70
                             4671.04  4684.00

 Zero-point correction=                           0.261932 (Hartree/Particle)
 Thermal correction to Energy=                    0.278077
 Thermal correction to Enthalpy=                  0.279022
 Thermal correction to Gibbs Free Energy=         0.216561
 Sum of electronic and zero-point Energies=           -688.498996
 Sum of electronic and thermal Energies=              -688.482851
 Sum of electronic and thermal Enthalpies=            -688.481906
 Sum of electronic and thermal Free Energies=         -688.544367

                     E (Thermal)             CV                S
                      KCal/Mol        Cal/Mol-Kelvin    Cal/Mol-Kelvin
 Total                  174.496             57.752            131.460
 Electronic               0.000              0.000              0.000
 Translational            0.889              2.981             41.903
 Rotational               0.889              2.981             32.520
 Vibrational            172.719             51.791             57.037
 Vibration     1          0.593              1.985              6.117
 Vibration     2          0.594              1.982              5.501
 Vibration     3          0.595              1.977              4.797
 Vibration     4          0.596              1.974              4.498
 Vibration     5          0.603              1.951              3.516
 Vibration     6          0.605              1.946              3.369
 Vibration     7          0.608              1.934              3.132
 Vibration     8          0.618              1.902              2.669
 Vibration     9          0.621              1.895              2.585
 Vibration    10          0.630              1.864              2.305
 Vibration    11          0.649              1.805              1.927
 Vibration    12          0.652              1.794              1.874
 Vibration    13          0.657              1.779              1.803
 Vibration    14          0.679              1.714              1.545
 Vibration    15          0.683              1.701              1.501
 Vibration    16          0.730              1.567              1.149
 Vibration    17          0.755              1.500              1.016
 Vibration    18          0.780              1.434              0.904
 Vibration    19          0.813              1.350              0.781
 Vibration    20          0.824              1.324              0.747
 Vibration    21          0.864              1.231              0.637
 Vibration    22          0.912              1.125              0.530
 Vibration    23          0.963              1.022              0.442

 Optimization completed.
    -- Stationary point found.
 Normal termination of Gaussian 09 at Thu Sep 30 22:10:01 2021.
 Gaussian 09:  AM64L-G09RevA.02 11-Jun-2009

 ----------------------------------------------------------------------
 #p TD(NStates=10, Root=1) b3lyp/6-31G* volume pop=NPA density=current
 Geom=AllCheck Guess=Read
 ----------------------------------------------------------------------

 CN(C(=O)Oc1cccc(c1)N(C)C)C_conf_0
 ---------------------------------
 Redundant internal coordinates taken from checkpoint file:
 C11H16N2O2_dc18_conf_0.chk
 Charge =  0 Multiplicity = 1

                         Standard orientation:
 ---------------------------------------------------------------------
 Center     Atomic      Atomic             Coordinates (Angstroms)
 Number     Number       Type             X           Y           Z
 ---------------------------------------------------------------------
      1          6           0       -3.577194   -1.584229   -0.951014
      2          7           0       -3.525914   -0.463053   -0.026619
      3          6           0       -2.397224    0.242896    0.286816
      4          8           0       -2.345674    1.166892    1.075714
      5          8           0       -1.315120   -0.239305   -0.413975
      6          6           0       -0.074045    0.390155   -0.302588
      7          6           0        0.082940    1.766288   -0.447064
      8          6           0        1.382976    2.267884   -0.400773
      9          6           0        2.488355    1.438405   -0.231372
     10          6           0        2.324980    0.040419   -0.104994
     11          6           0        1.007795   -0.466278   -0.130113
     12          7           0        3.418636   -0.811917    0.027860
     13          6           0        3.192451   -2.196433    0.405212
     14          6           0        4.726866   -0.241615    0.300237
     15          6           0       -4.765206   -0.129374    0.655720
     16          1           0       -2.618491   -1.705672   -1.448871
     17          1           0       -4.352539   -1.408803   -1.708546
     18          1           0       -3.826005   -2.513886   -0.419774
     19          1           0       -0.774346    2.415659   -0.563768
     20          1           0        1.541323    3.338994   -0.496234
     21          1           0        3.475257    1.882753   -0.196608
     22          1           0        0.801120   -1.522954   -0.022082
     23          1           0        2.574836   -2.709100   -0.341581
     24          1           0        2.698204   -2.301750    1.385102
     25          1           0        4.152213   -2.715667    0.447569
     26          1           0        5.034240    0.433754   -0.506546
     27          1           0        5.462889   -1.046871    0.350338
     28          1           0        4.764615    0.320879    1.247688
     29          1           0       -5.545522    0.124695   -0.073829
     30          1           0       -4.587979    0.723223    1.309384
     31          1           0       -5.118692   -0.979872    1.254753
 ---------------------------------------------------------------------

 SCF Done:  E(RB3LYP) =  -688.760927939     A.U. after    1 cycles

 Excitation energies and oscillator strengths:

 Excited State   1:      Singlet-A      4.6751 eV  265.20 nm  f=0.0431  <S**2>=0.000
      55 -> 58        -0.21127
      56 -> 57         0.66925
 This state for optimization and/or second-order correction.
 Total Energy, E(TD-HF/TD-KS) =  -688.589122844
 Copying the excited state density for this state as the 1-particle RhoCI density.

 Excited State   2:      Singlet-A      5.4062 eV  229.34 nm  f=0.2155  <S**2>=0.000
      55 -> 57         0.20124
      56 -> 58         0.66900

 Excited State   3:      Singlet-A      6.0805 eV  203.90 nm  f=0.0325  <S**2>=0.000
      52 -> 57         0.10758
      55 -> 57        -0.15615
      55 -> 58         0.28063
      56 -> 59         0.60413

 Excited State   4:      Singlet-A      6.1445 eV  201.78 nm  f=0.3393  <S**2>=0.000
      54 -> 57         0.43712
      55 -> 57         0.50153
      55 -> 58         0.10133
      56 -> 58        -0.11200
      56 -> 59         0.11638

 Excited State   5:      Singlet-A      6.2554 eV  198.20 nm  f=0.1225  <S**2>=0.000
      52 -> 57         0.25071
      53 -> 57         0.18779
      55 -> 58         0.51563
      56 -> 57         0.14730
      56 -> 59        -0.29431

 Excited State   6:      Singlet-A      6.3694 eV  194.66 nm  f=0.2276  <S**2>=0.000
      52 -> 57         0.20473
      52 -> 58         0.11498
      53 -> 57        -0.17253
      53 -> 59        -0.10748
      54 -> 57         0.50149
      55 -> 57        -0.30655
      55 -> 59        -0.13703
      56 -> 58         0.12247
      56 -> 59        -0.12325

 Excited State   7:      Singlet-A      6.4941 eV  190.92 nm  f=0.0099  <S**2>=0.000
      56 -> 60         0.70241

 Excited State   8:      Singlet-A      6.5522 eV  189.22 nm  f=0.0849  <S**2>=0.000
      53 -> 57         0.47198
      53 -> 58         0.17775
      53 -> 59         0.19635
      54 -> 57         0.13564
      54 -> 58        -0.37415
      55 -> 57        -0.11350
      55 -> 58        -0.14131

 Excited State   9:      Singlet-A      6.6112 eV  187.54 nm  f=0.0471  <S**2>=0.000
      52 -> 57        -0.12022
      53 -> 57         0.26073
      53 -> 58         0.14301
      53 -> 59         0.12942
      54 -> 58         0.57430
      55 -> 57        -0.13036

 Excited State  10:      Singlet-A      6.9662 eV  177.98 nm  f=0.0242  <S**2>=0.000
      53 -> 57        -0.34873
      53 -> 58         0.45555
      53 -> 59         0.29947
      55 -> 59         0.24677

 The electronic state is 1-A.
 Alpha  occ. eigenvalues --  -19.18605 -19.10887 -14.36441 -14.34887 -10.32657
 Alpha  occ. eigenvalues --  -10.23866 -10.22204 -10.21849 -10.21549 -10.21518
 Alpha  occ. eigenvalues --  -10.21301 -10.17990 -10.17380 -10.17202 -10.16812
 Alpha  occ. eigenvalues --   -1.09729  -1.00647  -0.94211  -0.93583  -0.83354
 Alpha  occ. eigenvalues --   -0.74945  -0.74004  -0.72418  -0.71949  -0.69192
 Alpha  occ. eigenvalues --   -0.65755  -0.61203  -0.58837  -0.54540  -0.52800
 Alpha  occ. eigenvalues --   -0.50024  -0.48784  -0.48014  -0.47071  -0.46897
 Alpha  occ. eigenvalues --   -0.46089  -0.44011  -0.43185  -0.42194  -0.41409
 Alpha  occ. eigenvalues --   -0.40577  -0.40301  -0.40112  -0.39580  -0.39231
 Alpha  occ. eigenvalues --   -0.38365  -0.37539  -0.36029  -0.35235  -0.33777
 Alpha  occ. eigenvalues --   -0.30688  -0.27327  -0.26424  -0.23988  -0.22664
 Alpha  occ. eigenvalues --   -0.18579
 Alpha virt. eigenvalues --    0.01231   0.02465   0.06291   0.08683   0.09458
 Alpha virt. eigenvalues --    0.10980   0.11976   0.12808   0.13672   0.14633
 Alpha virt. eigenvalues --    0.15372   0.16025   0.16311   0.16525   0.16818

 Mulliken atomic charges:
              1
     1  C   -0.311721
     2  N   -0.434301
     3  C    0.769422
     4  O   -0.521358
     5  O   -0.560249
     6  C    0.316259
     7  C   -0.108048
     8  C   -0.198804
     9  C   -0.199278
    10  C    0.338282
    11  C   -0.271365
    12  N   -0.407351
    13  C   -0.323386
    14  C   -0.324796
    15  C   -0.313892
    16  H    0.195837
    17  H    0.147988
    18  H    0.145999
    19  H    0.147018
    20  H    0.107848
    21  H    0.099351
    22  H    0.105124
    23  H    0.195883
    24  H    0.192777
    25  H    0.166351
    26  H    0.195466
    27  H    0.166366
    28  H    0.191334
    29  H    0.145648
    30  H    0.202121
    31  H    0.145475
 Sum of Mulliken atomic charges =  -0.00000

 Dipole moment (field-independent basis, Debye):
    X=              3.9046    Y=             -4.4808    Z=             -0.5129  Tot=              5.9654
 Quadrupole moment (field-independent basis, Debye-Ang):
   XX=            -56.7154   YY=            -84.6023   ZZ=            -93.0654
   XY=             -2.2093   XZ=              6.7840   YZ=             -3.2895

 Summary of Natural Population Analysis:

                                       Natural Population
                Natural  -----------------------------------------------
    Atom  No    Charge         Core      Valence    Rydberg      Total
 -----------------------------------------------------------------------
      C    1   -0.46825      1.99946     4.45732    0.01146     6.46825
      N    2   -0.49493      1.99932     5.48459    0.01102     7.49493
      C    3    0.93136      1.99938     3.02377    0.04550     5.06864
      O    4   -0.65711      1.99978     6.63825    0.01908     8.65711
      O    5   -0.56140      1.99970     6.55133    0.01037     8.56140
      C    6    0.23016      1.99873     3.74627    0.02484     5.76984
      C    7   -0.18147      1.99901     4.16843    0.01404     6.18147
      C    8   -0.31757      1.99914     4.29856    0.01987     6.31757
      C    9   -0.32432      1.99908     4.30780    0.01744     6.32432
      C   10    0.14702      1.99903     3.83354    0.02041     5.85298
      C   11   -0.37159      1.99900     4.35371    0.01888     6.37159
      N   12   -0.26013      1.99933     5.25030    0.01050     7.26013
      C   13   -0.48331      1.99945     4.47157    0.01229     6.48331
      C   14   -0.48286      1.99945     4.47116    0.01224     6.48286
      C   15   -0.46698      1.99947     4.45576    0.01175     6.46698
      H   16    0.25627      0.00000     0.74257    0.00116     0.74373
      H   17    0.21672      0.00000     0.78162    0.00166     0.78328
      H   18    0.21348      0.00000     0.78475    0.00177     0.78652
      H   19    0.24827      0.00000     0.75052    0.00120     0.75173
      H   20    0.22666      0.00000     0.77253    0.00080     0.77334
      H   21    0.21733      0.00000     0.78160    0.00108     0.78267
      H   22    0.22648      0.00000     0.77199    0.00153     0.77352
      H   23    0.25151      0.00000     0.74675    0.00173     0.74849
      H   24    0.24689      0.00000     0.75099    0.00211     0.75311
      H   25    0.23580      0.00000     0.76350    0.00070     0.76420
      H   26    0.25099      0.00000     0.74706    0.00195     0.74901
      H   27    0.23583      0.00000     0.76348    0.00069     0.76417
      H   28    0.24575      0.00000     0.75195    0.00230     0.75425
      H   29    0.21426      0.00000     0.78415    0.00159     0.78574
      H   30    0.26192      0.00000     0.73641    0.00167     0.73808
      H   31    0.21321      0.00000     0.78523    0.00157     0.78679
 =======================================================================
   * Total *    0.00000     29.98933    81.72746    0.28321   112.00000

 Normal termination of Gaussian 09 at Fri Oct  1 02:28:58 2021.
