 Gaussian 09, Revision A.02,

 -----------------------------------
 #p opt b3lyp/6-31G* scf=(xqc,tight)
 -----------------------------------

 ---------------------------
 COc1ccc(cc1)C(C)(C)C_conf_0
 ---------------------------
 Symbolic Z-matrix:
 Charge =  0 Multiplicity = 1

 SCF Done:  E(RB3LYP) =  -504.024564991     A.U. after   14 cycles
 SCF Done:  E(RB3LYP) =  -504.025879490     A.U. after   11 cycles
 SCF Done:  E(RB3LYP) =  -504.025955926     A.U. after   15 cycles
 SCF Done:  E(RB3LYP) =  -504.025977708     A.U. after   15 cycles
 SCF Done:  E(RB3LYP) =  -504.025993111     A.U. after   10 cycles
 SCF Done:  E(RB3LYP) =  -504.025994127     A.U. after    7 cycles
 SCF Done:  E(RB3LYP) =  -504.025994379     A.U. after    7 cycles
 SCF Done:  E(RB3LYP) =  -504.025994536     A.U. after    7 cycles
 SCF Done:  E(RB3LYP) =  -504.025994574     A.U. after   16 cycles
 Optimization completed.
    -- Stationary point found.
 Normal termination of Gaussian 09 at Tue Sep 28 17:39:31 2021.

 ----------------------------------------------------------------------
 #p freq b3lyp/6-31G* volume NMR pop=NPA density=current Geom=AllCheck
 Guess=Read
 ----------------------------------------------------------------------

 COc1ccc(cc1)C(C)(C)C_conf_0
 ---------------------------
 Redundant internal coordinates taken from checkpoint file:
 C11H16O_d8ee_conf_0.chk
 Charge =  0 Multiplicity = 1

 SCF Done:  E(RB3LYP) =  -504.025994574     A.U. after    1 cycles

  1  C    Isotropic =   137.5373   Anisotropy =    64.9297

  2  O    Isotropic =   240.2069   Anisotropy =    75.5997

  3  C    Isotropic =    40.7912   Anisotropy =   125.0576

  4  C    Isotropic =    87.2134   Anisotropy =   140.0390

  5  C    Isotropic =    70.8084   Anisotropy =   156.7214

  6  C    Isotropic =    56.2157   Anisotropy =   173.6124

  7  C    Isotropic =    68.0069   Anisotropy =   161.5053

  8  C    Isotropic =    78.4184   Anisotropy =   133.2147

  9  C    Isotropic =   153.5280   Anisotropy =     9.7508

 10  C    Isotropic =   160.8418   Anisotropy =    31.0756

 11  C    Isotropic =   157.1034   Anisotropy =    39.7545

 12  C    Isotropic =   157.1133   Anisotropy =    39.7478

 13  H    Isotropic =    28.3329   Anisotropy =     8.2071

 14  H    Isotropic =    28.6619   Anisotropy =     8.0207

 15  H    Isotropic =    28.6610   Anisotropy =     8.0216

 16  H    Isotropic =    25.9009   Anisotropy =     7.5499

 17  H    Isotropic =    25.1303   Anisotropy =    10.4574

 18  H    Isotropic =    24.8751   Anisotropy =     9.6271

 19  H    Isotropic =    25.5013   Anisotropy =     5.9618

 20  H    Isotropic =    30.6888   Anisotropy =     7.8377

 21  H    Isotropic =    30.6894   Anisotropy =     7.8381

 22  H    Isotropic =    31.1173   Anisotropy =     7.5227

 23  H    Isotropic =    31.0207   Anisotropy =     7.7431

 24  H    Isotropic =    30.9912   Anisotropy =     8.6017

 25  H    Isotropic =    30.5905   Anisotropy =     7.4636

 26  H    Isotropic =    31.0206   Anisotropy =     7.7447

 27  H    Isotropic =    30.5902   Anisotropy =     7.4652

 28  H    Isotropic =    30.9911   Anisotropy =     8.6003

  Exact polarizability: 165.143  -2.465 114.240  -0.001   0.002  74.375
 Approx polarizability: 220.979  -0.550 191.368  -0.006   0.004 106.270

                     1                      2                      3
                     A                      A                      A
 Frequencies --    44.9068                72.4427               112.4660
 Red. masses --     2.9825                 3.1308                 3.6857
 Frc consts  --     0.0035                 0.0097                 0.0275
 IR Inten    --     1.0703                 1.0310                 2.1407

                     4                      5                      6
                     A                      A                      A
 Frequencies --   172.9507               208.2801               235.7804
 Red. masses --     3.2267                 1.3933                 1.1299
 Frc consts  --     0.0569                 0.0356                 0.0370
 IR Inten    --     0.9614                 0.4439                 0.0006

                     7                      8                      9
                     A                      A                      A
 Frequencies --   251.2937               262.7764               273.3168
 Red. masses --     2.5987                 1.1364                 1.7410
 Frc consts  --     0.0967                 0.0462                 0.0766
 IR Inten    --     0.6092                 0.0684                 0.5058

                    10                     11                     12
                     A                      A                      A
 Frequencies --   318.8625               329.8020               334.7028
 Red. masses --     3.3010                 1.0438                 2.4922
 Frc consts  --     0.1977                 0.0669                 0.1645
 IR Inten    --     1.3218                 0.0054                 0.2705

                    13                     14                     15
                     A                      A                      A
 Frequencies --   365.7033               424.4768               448.2281
 Red. masses --     2.4627                 3.1811                 3.0792
 Frc consts  --     0.1941                 0.3377                 0.3645
 IR Inten    --     0.4750                 0.0317                 0.3233

                    16                     17                     18
                     A                      A                      A
 Frequencies --   448.2569               476.7652               535.9740
 Red. masses --     3.5043                 3.1426                 3.2760
 Frc consts  --     0.4149                 0.4209                 0.5545
 IR Inten    --     0.3612                 0.1681                 5.7803

                    19                     20                     21
                     A                      A                      A
 Frequencies --   565.4708               651.1161               662.1720
 Red. masses --     2.2734                 5.6229                 5.0034
 Frc consts  --     0.4283                 1.4045                 1.2926
 IR Inten    --    10.5355                 2.0661                 5.4636

                    22                     23                     24
                     A                      A                      A
 Frequencies --   741.9225               809.9415               824.3627
 Red. masses --     4.2631                 4.1934                 1.2828
 Frc consts  --     1.3826                 1.6208                 0.5136
 IR Inten    --     2.2230                11.6506                 6.5645

                    25                     26                     27
                     A                      A                      A
 Frequencies --   847.9035               856.7228               932.8354
 Red. masses --     1.6359                 3.0117                 1.7450
 Frc consts  --     0.6930                 1.3024                 0.8947
 IR Inten    --    37.0030                 0.1888                 0.7514

                    28                     29                     30
                     A                      A                      A
 Frequencies --   944.1656               945.4253               961.9582
 Red. masses --     1.3364                 1.7155                 1.2824
 Frc consts  --     0.7019                 0.9034                 0.6992
 IR Inten    --     0.1574                 0.8471                 0.0126

                    31                     32                     33
                     A                      A                      A
 Frequencies --   972.5384              1030.2792              1054.0083
 Red. masses --     1.2066                 2.9306                 1.4313
 Frc consts  --     0.6724                 1.8328                 0.9368
 IR Inten    --     0.0698                 1.7232                 2.8195

                    34                     35                     36
                     A                      A                      A
 Frequencies --  1061.3956              1080.5162              1142.5414
 Red. masses --     1.3879                 6.3504                 2.3170
 Frc consts  --     0.9212                 4.3683                 1.7821
 IR Inten    --     0.0054                58.8631                 2.4400

                    37                     38                     39
                     A                      A                      A
 Frequencies --  1152.7396              1185.2856              1218.3413
 Red. masses --     1.4020                 1.2714                 1.3773
 Frc consts  --     1.0976                 1.0524                 1.2046
 IR Inten    --     5.5739                 0.7574                 1.4854

                    40                     41                     42
                     A                      A                      A
 Frequencies --  1221.9749              1239.6878              1242.3506
 Red. masses --     1.2394                 2.6750                 2.3342
 Frc consts  --     1.0904                 2.4222                 2.1227
 IR Inten    --    55.3466                 4.1483                 0.1541

                    43                     44                     45
                     A                      A                      A
 Frequencies --  1296.6736              1302.3874              1352.3729
 Red. masses --     4.3365                 2.8550                 1.4702
 Frc consts  --     4.2958                 2.8532                 1.5843
 IR Inten    --   226.9003                30.0781                 7.7825

                    46                     47                     48
                     A                      A                      A
 Frequencies --  1358.8856              1424.3178              1425.7647
 Red. masses --     4.8659                 1.2622                 1.2136
 Frc consts  --     5.2939                 1.5086                 1.4535
 IR Inten    --    55.0890                 7.0985                 3.6291

                    49                     50                     51
                     A                      A                      A
 Frequencies --  1457.6199              1462.6045              1498.7846
 Red. masses --     1.2177                 2.8188                 1.1879
 Frc consts  --     1.5244                 3.5528                 1.5722
 IR Inten    --     3.2813                 2.8291                15.1979

                    52                     53                     54
                     A                      A                      A
 Frequencies --  1512.3318              1515.2637              1519.0113
 Red. masses --     1.0500                 1.0460                 1.0545
 Frc consts  --     1.4150                 1.4150                 1.4335
 IR Inten    --     0.0149                 0.1696                 1.7345

                    55                     56                     57
                     A                      A                      A
 Frequencies --  1519.4419              1532.8735              1535.1434
 Red. masses --     1.0485                 1.0736                 1.0565
 Frc consts  --     1.4262                 1.4863                 1.4669
 IR Inten    --     5.0965                23.3669                27.1904

                    58                     59                     60
                     A                      A                      A
 Frequencies --  1537.8552              1548.2713              1567.4261
 Red. masses --     1.0505                 1.0660                 2.2427
 Frc consts  --     1.4637                 1.5055                 3.2464
 IR Inten    --     4.7633                 3.0469               108.1263

                    61                     62                     63
                     A                      A                      A
 Frequencies --  1630.4487              1675.0721              3022.0605
 Red. masses --     6.2491                 5.6923                 1.0349
 Frc consts  --     9.7877                 9.4103                 5.5685
 IR Inten    --    15.2492                51.3011                59.4611

                    64                     65                     66
                     A                      A                      A
 Frequencies --  3041.1585              3041.9527              3050.1073
 Red. masses --     1.0357                 1.0350                 1.0365
 Frc consts  --     5.6436                 5.6429                 5.6814
 IR Inten    --    27.8161                26.1755                28.0377

                    67                     68                     69
                     A                      A                      A
 Frequencies --  3079.4218              3105.7000              3106.9257
 Red. masses --     1.1065                 1.1014                 1.1019
 Frc consts  --     6.1824                 6.2589                 6.2671
 IR Inten    --    45.8730                 5.8484                 5.5853

                    70                     71                     72
                     A                      A                      A
 Frequencies --  3113.7787              3115.1675              3120.3000
 Red. masses --     1.1028                 1.1011                 1.1022
 Frc consts  --     6.2998                 6.2957                 6.3227
 IR Inten    --    23.0157               100.0850                23.4635

                    73                     74                     75
                     A                      A                      A
 Frequencies --  3123.0905              3154.4049              3187.5438
 Red. masses --     1.1013                 1.0994                 1.0871
 Frc consts  --     6.3286                 6.4454                 6.5078
 IR Inten    --    43.4491                29.4905                16.8689

                    76                     77                     78
                     A                      A                      A
 Frequencies --  3209.5169              3212.2387              3226.5523
 Red. masses --     1.0868                 1.0930                 1.0924
 Frc consts  --     6.5962                 6.6449                 6.7007
 IR Inten    --    13.6449                 8.8442                14.2039

 - Thermochemistry -
 -------------------
 Temperature   298.150 Kelvin.  Pressure   1.00000 Atm.
 Atom     1 has atomic number  6 and mass  12.00000

 Molecular mass:   164.12012 amu.
 Principal axes and moments of inertia in atomic units:
                           1         2         3
     Eigenvalues --   763.067743840.830844192.53841
           X            0.99995  -0.01003   0.00000
           Y            0.01003   0.99995   0.00000
           Z           -0.00000  -0.00000   1.00000
 This molecule is an asymmetric top.
 Rotational symmetry number  1.
 Warning -- assumption of classical behavior for rotation
           may cause significant error
 Rotational temperatures (Kelvin)      0.11351     0.02255     0.02066
 Rotational constants (GHZ):           2.36511     0.46988     0.43047
 Zero-point vibrational energy     647449.5 (Joules/Mol)
                                  154.74415 (Kcal/Mol)
 Warning -- explicit consideration of  19 degrees of freedom as
           vibrations may cause significant error
 Vibrational temperatures:     64.61   104.23   161.81   248.84   299.67
          (Kelvin)            339.23   361.56   378.08   393.24   458.77
                              474.51   481.56   526.16   610.73   644.90
                              644.94   685.96   771.15   813.59   936.81
                              952.72  1067.46  1165.32  1186.07  1219.94
                             1232.63  1342.14  1358.44  1360.25  1384.04
                             1399.26  1482.34  1516.48  1527.11  1554.62
                             1643.86  1658.53  1705.36  1752.92  1758.15
                             1783.63  1787.46  1865.62  1873.84  1945.76
                             1955.13  2049.27  2051.35  2097.19  2104.36
                             2156.41  2175.91  2180.12  2185.52  2186.14
                             2205.46  2208.73  2212.63  2227.61  2255.17
                             2345.85  2410.05  4348.07  4375.54  4376.69
                             4388.42  4430.60  4468.40  4470.17  4480.03
                             4482.03  4489.41  4493.43  4538.48  4586.16
                             4617.77  4621.69  4642.28

 Zero-point correction=                           0.246601 (Hartree/Particle)
 Thermal correction to Energy=                    0.258997
 Thermal correction to Enthalpy=                  0.259941
 Thermal correction to Gibbs Free Energy=         0.208626
 Sum of electronic and zero-point Energies=           -503.779394
 Sum of electronic and thermal Energies=              -503.766998
 Sum of electronic and thermal Enthalpies=            -503.766054
 Sum of electronic and thermal Free Energies=         -503.817368

                     E (Thermal)             CV                S
                      KCal/Mol        Cal/Mol-Kelvin    Cal/Mol-Kelvin
 Total                  162.523             48.217            108.001
 Electronic               0.000              0.000              0.000
 Translational            0.889              2.981             41.195
 Rotational               0.889              2.981             30.886
 Vibrational            160.746             42.256             35.920
 Vibration     1          0.595              1.979              5.030
 Vibration     2          0.599              1.967              4.086
 Vibration     3          0.607              1.939              3.226
 Vibration     4          0.626              1.876              2.403
 Vibration     5          0.642              1.828              2.059
 Vibration     6          0.655              1.786              1.835
 Vibration     7          0.663              1.761              1.721
 Vibration     8          0.670              1.741              1.643
 Vibration     9          0.676              1.723              1.575
 Vibration    10          0.705              1.638              1.316
 Vibration    11          0.713              1.616              1.261
 Vibration    12          0.716              1.606              1.237
 Vibration    13          0.739              1.543              1.098
 Vibration    14          0.786              1.417              0.877
 Vibration    15          0.807              1.365              0.801
 Vibration    16          0.807              1.365              0.801
 Vibration    17          0.833              1.302              0.719
 Vibration    18          0.891              1.170              0.574
 Vibration    19          0.921              1.106              0.513

 Optimization completed.
    -- Stationary point found.
 Normal termination of Gaussian 09 at Tue Sep 28 18:20:42 2021.
 Gaussian 09:  AM64L-G09RevA.02 11-Jun-2009

 ----------------------------------------------------------------------
 #p TD(NStates=10, Root=1) b3lyp/6-31G* volume pop=NPA density=current
 Geom=AllCheck Guess=Read
 ----------------------------------------------------------------------

 COc1ccc(cc1)C(C)(C)C_conf_0
 ---------------------------
 Redundant internal coordinates taken from checkpoint file:
 C11H16O_d8ee_conf_0.chk
 Charge =  0 Multiplicity = 1

                         Standard orientation:
 ---------------------------------------------------------------------
 Center     Atomic      Atomic             Coordinates (Angstroms)
 Number     Number       Type             X           Y           Z
 ---------------------------------------------------------------------
      1          6           0       -4.270758    0.597707   -0.000239
      2          8           0       -3.396628   -0.517833    0.000242
      3          6           0       -2.050388   -0.278522    0.000076
      4          6           0       -1.460969    0.986671    0.000110
      5          6           0       -0.065308    1.104426    0.000004
      6          6           0        0.778079   -0.009829   -0.000150
      7          6           0        0.153894   -1.273074   -0.000146
      8          6           0       -1.226274   -1.413260   -0.000052
      9          6           0        2.313510    0.093353   -0.000024
     10          6           0        2.800162    1.554850   -0.000196
     11          6           0        2.879668   -0.600707    1.261680
     12          6           0        2.880140   -0.601046   -1.261306
     13          1           0       -5.282463    0.187276   -0.000433
     14          1           0       -4.132580    1.220234   -0.894633
     15          1           0       -4.133101    1.220618    0.893973
     16          1           0       -2.065681    1.886745    0.000210
     17          1           0        0.352552    2.105358    0.000052
     18          1           0        0.759657   -2.175361   -0.000205
     19          1           0       -1.692264   -2.394058   -0.000087
     20          1           0        2.457147    2.098931    0.887291
     21          1           0        2.457519    2.098540   -0.888065
     22          1           0        3.895836    1.579967    0.000053
     23          1           0        2.502470   -0.123256    2.173241
     24          1           0        3.975184   -0.540709    1.273846
     25          1           0        2.604317   -1.659891    1.301867
     26          1           0        2.503303   -0.123867   -2.173161
     27          1           0        2.604920   -1.660268   -1.301367
     28          1           0        3.975660   -0.541013   -1.273055
 ---------------------------------------------------------------------

 SCF Done:  E(RB3LYP) =  -504.025994574     A.U. after    1 cycles

 Excitation energies and oscillator strengths:

 Excited State   1:      Singlet-A      5.0920 eV  243.49 nm  f=0.0273  <S**2>=0.000
      44 -> 47        -0.30568
      45 -> 46         0.63688
 This state for optimization and/or second-order correction.
 Total Energy, E(TD-HF/TD-KS) =  -503.838868266
 Copying the excited state density for this state as the 1-particle RhoCI density.

 Excited State   2:      Singlet-A      5.8546 eV  211.77 nm  f=0.1920  <S**2>=0.000
      44 -> 46         0.30510
      45 -> 47         0.63366

 Excited State   3:      Singlet-A      6.9061 eV  179.53 nm  f=0.1962  <S**2>=0.000
      43 -> 46         0.22219
      44 -> 47         0.59521
      45 -> 46         0.28385

 Excited State   4:      Singlet-A      6.9267 eV  179.00 nm  f=0.8483  <S**2>=0.000
      44 -> 46         0.62841
      45 -> 47        -0.29703

 Excited State   5:      Singlet-A      7.1051 eV  174.50 nm  f=0.0009  <S**2>=0.000
      45 -> 48         0.68020
      45 -> 49         0.13505
      45 -> 50        -0.12691

 Excited State   6:      Singlet-A      7.4493 eV  166.44 nm  f=0.0008  <S**2>=0.000
      38 -> 46         0.12151
      40 -> 46        -0.13554
      41 -> 46         0.10258
      42 -> 46         0.67289

 Excited State   7:      Singlet-A      7.5888 eV  163.38 nm  f=0.0107  <S**2>=0.000
      45 -> 48        -0.14013
      45 -> 49         0.68621

 Excited State   8:      Singlet-A      7.6664 eV  161.72 nm  f=0.0003  <S**2>=0.000
      41 -> 46         0.65942
      42 -> 47         0.20360

 Excited State   9:      Singlet-A      7.7418 eV  160.15 nm  f=0.0732  <S**2>=0.000
      43 -> 46         0.66365
      44 -> 47        -0.18938

 Excited State  10:      Singlet-A      7.7664 eV  159.64 nm  f=0.0004  <S**2>=0.000
      40 -> 47        -0.13930
      41 -> 46        -0.21215
      41 -> 47         0.12837
      42 -> 47         0.63513

 The electronic state is 1-A.
 Alpha  occ. eigenvalues --  -19.17254 -10.23909 -10.23783 -10.19878 -10.18191
 Alpha  occ. eigenvalues --  -10.18155 -10.18115 -10.18073 -10.17785 -10.17051
 Alpha  occ. eigenvalues --  -10.16961 -10.16960  -1.05808  -0.84949  -0.80600
 Alpha  occ. eigenvalues --   -0.74448  -0.73456  -0.68767  -0.68017  -0.67868
 Alpha  occ. eigenvalues --   -0.60151  -0.59301  -0.54201  -0.52617  -0.47625
 Alpha  occ. eigenvalues --   -0.46830  -0.46402  -0.44483  -0.43307  -0.42760
 Alpha  occ. eigenvalues --   -0.41826  -0.40744  -0.39353  -0.38924  -0.37289
 Alpha  occ. eigenvalues --   -0.36637  -0.36081  -0.35745  -0.32995  -0.32768
 Alpha  occ. eigenvalues --   -0.31740  -0.30885  -0.30326  -0.24281  -0.20845
 Alpha virt. eigenvalues --    0.00576   0.01970   0.08349   0.10189   0.11493
 Alpha virt. eigenvalues --    0.12860   0.13608   0.14153   0.15348   0.15519
 Alpha virt. eigenvalues --    0.16138   0.16413   0.16580   0.17117   0.17179

 Mulliken atomic charges:
              1
     1  C   -0.225264
     2  O   -0.449882
     3  C    0.355582
     4  C   -0.202615
     5  C   -0.231053
     6  C    0.201086
     7  C   -0.220984
     8  C   -0.191017
     9  C    0.014497
    10  C   -0.452925
    11  C   -0.437823
    12  C   -0.437838
    13  H    0.176543
    14  H    0.170579
    15  H    0.170575
    16  H    0.117490
    17  H    0.117113
    18  H    0.113204
    19  H    0.122414
    20  H    0.144402
    21  H    0.144402
    22  H    0.137846
    23  H    0.148046
    24  H    0.137007
    25  H    0.146783
    26  H    0.148043
    27  H    0.146780
    28  H    0.137009
 Sum of Mulliken atomic charges =  -0.00000

 Dipole moment (field-independent basis, Debye):
    X=             -1.4461    Y=              1.3664    Z=             -0.0004  Tot=              1.9895
 Quadrupole moment (field-independent basis, Debye-Ang):
   XX=            -59.4943   YY=            -72.1411   ZZ=            -76.2183
   XY=             -5.4672   XZ=              0.0021   YZ=              0.0004

 Summary of Natural Population Analysis:

                                       Natural Population
                Natural  -----------------------------------------------
    Atom  No    Charge         Core      Valence    Rydberg      Total
 -----------------------------------------------------------------------
      C    1   -0.32484      1.99942     4.31129    0.01413     6.32484
      O    2   -0.42969      1.99975     6.41825    0.01169     8.42969
      C    3    0.33077      1.99878     3.64729    0.02315     5.66923
      C    4   -0.33630      1.99905     4.31958    0.01767     6.33630
      C    5   -0.28019      1.99907     4.26245    0.01867     6.28019
      C    6    0.04899      1.99902     3.93209    0.01990     5.95101
      C    7   -0.29243      1.99908     4.27523    0.01812     6.29243
      C    8   -0.31267      1.99906     4.29261    0.02100     6.31267
      C    9   -0.07511      1.99910     4.06308    0.01293     6.07511
      C   10   -0.67596      1.99939     4.66637    0.01019     6.67596
      C   11   -0.66127      1.99937     4.65187    0.01003     6.66127
      C   12   -0.66129      1.99937     4.65188    0.01003     6.66129
      H   13    0.23080      0.00000     0.76866    0.00054     0.76920
      H   14    0.21641      0.00000     0.78156    0.00203     0.78359
      H   15    0.21641      0.00000     0.78156    0.00203     0.78359
      H   16    0.22541      0.00000     0.77358    0.00100     0.77459
      H   17    0.22781      0.00000     0.77113    0.00105     0.77219
      H   18    0.22296      0.00000     0.77611    0.00093     0.77704
      H   19    0.23495      0.00000     0.76380    0.00125     0.76505
      H   20    0.23288      0.00000     0.76569    0.00143     0.76712
      H   21    0.23288      0.00000     0.76568    0.00143     0.76712
      H   22    0.23376      0.00000     0.76529    0.00095     0.76624
      H   23    0.23585      0.00000     0.76311    0.00103     0.76415
      H   24    0.22867      0.00000     0.77004    0.00129     0.77133
      H   25    0.23334      0.00000     0.76552    0.00114     0.76666
      H   26    0.23585      0.00000     0.76312    0.00103     0.76415
      H   27    0.23333      0.00000     0.76553    0.00114     0.76667
      H   28    0.22868      0.00000     0.77003    0.00129     0.77132
 =======================================================================
   * Total *   -0.00000     23.99047    65.80242    0.20712    90.00000

 Normal termination of Gaussian 09 at Tue Sep 28 21:32:03 2021.
