 Gaussian 09, Revision A.02,

 -----------------------------------
 #p opt b3lyp/6-31G* scf=(xqc,tight)
 -----------------------------------

 --------------------------------
 COc1nc(Oc2ccccc2)nc(n1)OC_conf_0
 --------------------------------
 Symbolic Z-matrix:
 Charge =  0 Multiplicity = 1

 SCF Done:  E(RB3LYP) =  -815.714220197     A.U. after   14 cycles
 SCF Done:  E(RB3LYP) =  -815.723011569     A.U. after   12 cycles
 SCF Done:  E(RB3LYP) =  -815.725440793     A.U. after   14 cycles
 SCF Done:  E(RB3LYP) =  -815.726067900     A.U. after   12 cycles
 SCF Done:  E(RB3LYP) =  -815.726349880     A.U. after   11 cycles
 SCF Done:  E(RB3LYP) =  -815.726459767     A.U. after   11 cycles
 SCF Done:  E(RB3LYP) =  -815.726500344     A.U. after   10 cycles
 SCF Done:  E(RB3LYP) =  -815.726530699     A.U. after   11 cycles
 SCF Done:  E(RB3LYP) =  -815.726571057     A.U. after   12 cycles
 SCF Done:  E(RB3LYP) =  -815.726595352     A.U. after   12 cycles
 SCF Done:  E(RB3LYP) =  -815.726602907     A.U. after   12 cycles
 SCF Done:  E(RB3LYP) =  -815.726613289     A.U. after   10 cycles
 SCF Done:  E(RB3LYP) =  -815.726615310     A.U. after   10 cycles
 SCF Done:  E(RB3LYP) =  -815.726615630     A.U. after    8 cycles
 SCF Done:  E(RB3LYP) =  -815.726615708     A.U. after    7 cycles
 SCF Done:  E(RB3LYP) =  -815.726615770     A.U. after    6 cycles
 Optimization completed.
    -- Stationary point found.
 Normal termination of Gaussian 09 at Tue Sep 28 17:46:27 2021.

 ----------------------------------------------------------------------
 #p freq b3lyp/6-31G* volume NMR pop=NPA density=current Geom=AllCheck
 Guess=Read
 ----------------------------------------------------------------------

 COc1nc(Oc2ccccc2)nc(n1)OC_conf_0
 --------------------------------
 Redundant internal coordinates taken from checkpoint file:
 C11H11N3O3_9e0c_conf_0.chk
 Charge =  0 Multiplicity = 1

 SCF Done:  E(RB3LYP) =  -815.726615770     A.U. after    1 cycles

  1  C    Isotropic =   136.3776   Anisotropy =    64.5174

  2  O    Isotropic =   191.7058   Anisotropy =    88.3973

  3  C    Isotropic =    23.2617   Anisotropy =   100.7978

  4  N    Isotropic =    63.5815   Anisotropy =   280.9993

  5  C    Isotropic =    23.2434   Anisotropy =    94.0487

  6  O    Isotropic =   138.3283   Anisotropy =    91.2734

  7  C    Isotropic =    44.2150   Anisotropy =   108.9776

  8  C    Isotropic =    75.0845   Anisotropy =   143.9882

  9  C    Isotropic =    67.3039   Anisotropy =   165.2459

 10  C    Isotropic =    71.3297   Anisotropy =   165.2690

 11  C    Isotropic =    67.6780   Anisotropy =   164.5124

 12  C    Isotropic =    72.4269   Anisotropy =   151.5322

 13  N    Isotropic =    62.4200   Anisotropy =   278.7412

 14  C    Isotropic =    23.5924   Anisotropy =    99.3613

 15  N    Isotropic =    62.1306   Anisotropy =   283.3896

 16  O    Isotropic =   191.5361   Anisotropy =    88.3878

 17  C    Isotropic =   136.4946   Anisotropy =    65.1777

 18  H    Isotropic =    28.4948   Anisotropy =     7.6090

 19  H    Isotropic =    28.2245   Anisotropy =     7.9101

 20  H    Isotropic =    28.2231   Anisotropy =     7.6711

 21  H    Isotropic =    25.2808   Anisotropy =     6.7157

 22  H    Isotropic =    24.9154   Anisotropy =     4.4250

 23  H    Isotropic =    25.0911   Anisotropy =     3.7585

 24  H    Isotropic =    24.9334   Anisotropy =     4.6646

 25  H    Isotropic =    25.2045   Anisotropy =     7.9407

 26  H    Isotropic =    28.6203   Anisotropy =     7.8783

 27  H    Isotropic =    28.3742   Anisotropy =     8.3142

 28  H    Isotropic =    28.3558   Anisotropy =     8.1926

  Exact polarizability: 190.773 -14.007 133.535   6.965  12.761  99.166
 Approx polarizability: 260.844 -25.642 204.443  13.049  25.873 162.960

                     1                      2                      3
                     A                      A                      A
 Frequencies --    20.0825                36.8531                66.4178
 Red. masses --     3.8955                 5.7691                 5.1517
 Frc consts  --     0.0009                 0.0046                 0.0134
 IR Inten    --     0.0917                 1.0489                 0.8025

                     4                      5                      6
                     A                      A                      A
 Frequencies --   101.4936               113.2122               153.6288
 Red. masses --     3.3679                 3.2224                 1.2053
 Frc consts  --     0.0204                 0.0243                 0.0168
 IR Inten    --     5.6616                 0.1166                 0.0265

                     7                      8                      9
                     A                      A                      A
 Frequencies --   161.9221               175.9808               197.4228
 Red. masses --     1.2312                 3.5332                 4.0855
 Frc consts  --     0.0190                 0.0645                 0.0938
 IR Inten    --     0.0851                 2.9362                 0.8156

                    10                     11                     12
                     A                      A                      A
 Frequencies --   203.3122               232.0562               252.4718
 Red. masses --     4.6575                 6.1801                 4.5015
 Frc consts  --     0.1134                 0.1961                 0.1691
 IR Inten    --     0.6350                 0.1096                 2.2150

                    13                     14                     15
                     A                      A                      A
 Frequencies --   253.5823               345.8001               392.8839
 Red. masses --     5.1494                 5.0045                 6.1565
 Frc consts  --     0.1951                 0.3526                 0.5599
 IR Inten    --     4.5837                 7.6095                 3.4306

                    16                     17                     18
                     A                      A                      A
 Frequencies --   423.3548               455.9935               490.2819
 Red. masses --     3.0494                 5.1943                 4.2810
 Frc consts  --     0.3220                 0.6363                 0.6063
 IR Inten    --     0.0734                17.4632                 2.1878

                    19                     20                     21
                     A                      A                      A
 Frequencies --   544.1343               606.7094               625.0392
 Red. masses --     6.3646                 7.2203                 6.3741
 Frc consts  --     1.1103                 1.5659                 1.4672
 IR Inten    --     4.8859                 1.7280                 1.7640

                    22                     23                     24
                     A                      A                      A
 Frequencies --   627.7345               638.4766               701.9999
 Red. masses --     6.6836                 7.5462                 2.2947
 Frc consts  --     1.5517                 1.8125                 0.6663
 IR Inten    --     3.3553                 2.7912                15.3530

                    25                     26                     27
                     A                      A                      A
 Frequencies --   738.0231               749.2146               750.6257
 Red. masses --    11.6373                 5.1829                 3.1552
 Frc consts  --     3.7346                 1.7141                 1.0474
 IR Inten    --     1.3495                 8.7727                18.3933

                    28                     29                     30
                     A                      A                      A
 Frequencies --   798.9158               827.5176               840.5195
 Red. masses --     2.9452                11.3695                 1.2747
 Frc consts  --     1.1075                 4.5872                 0.5306
 IR Inten    --    13.8850                40.8661                 0.6876

                    31                     32                     33
                     A                      A                      A
 Frequencies --   848.3135               920.0099               960.8539
 Red. masses --     5.7277                 1.4912                 1.3382
 Frc consts  --     2.4285                 0.7436                 0.7279
 IR Inten    --     8.9734                 3.6774                 0.0799

                    34                     35                     36
                     A                      A                      A
 Frequencies --   979.9962               988.8815               997.3961
 Red. masses --     7.2074                 1.2563                13.5672
 Frc consts  --     4.0783                 0.7238                 7.9520
 IR Inten    --    11.7315                 0.0944                 0.3338

                    37                     38                     39
                     A                      A                      A
 Frequencies --  1021.7126              1036.0747              1054.0929
 Red. masses --     6.2598                 8.0042                 2.0970
 Frc consts  --     3.8500                 5.0623                 1.3728
 IR Inten    --     8.6981                 2.2933                 4.5792

                    40                     41                     42
                     A                      A                      A
 Frequencies --  1106.3591              1131.9123              1160.3560
 Red. masses --     1.4978                 4.7582                 3.6913
 Frc consts  --     1.0801                 3.5918                 2.9282
 IR Inten    --     5.1133                89.9333               151.0787

                    43                     44                     45
                     A                      A                      A
 Frequencies --  1184.5700              1185.4228              1191.1793
 Red. masses --     1.2659                 1.2664                 1.1070
 Frc consts  --     1.0466                 1.0485                 0.9255
 IR Inten    --     0.4474                 1.0112                 0.2709

                    46                     47                     48
                     A                      A                      A
 Frequencies --  1198.1743              1219.7233              1236.1590
 Red. masses --     1.1670                 1.6200                 2.1019
 Frc consts  --     0.9871                 1.4200                 1.8924
 IR Inten    --    14.1907                 0.2064               145.1978

                    49                     50                     51
                     A                      A                      A
 Frequencies --  1256.0607              1317.0577              1342.9748
 Red. masses --     3.8394                10.4119                 1.8177
 Frc consts  --     3.5689                10.6412                 1.9316
 IR Inten    --   483.0420                 0.8872                 0.9348

                    52                     53                     54
                     A                      A                      A
 Frequencies --  1362.0660              1411.1622              1418.6685
 Red. masses --     3.0772                 4.2646                 3.6374
 Frc consts  --     3.3636                 5.0036                 4.3132
 IR Inten    --     0.5504               761.8343               781.9179

                    55                     56                     57
                     A                      A                      A
 Frequencies --  1472.0887              1502.9064              1512.1354
 Red. masses --     1.7251                 2.2351                 1.0491
 Frc consts  --     2.2026                 2.9745                 1.4133
 IR Inten    --    66.3431                 5.3668                 0.6100

                    58                     59                     60
                     A                      A                      A
 Frequencies --  1512.1720              1518.2449              1521.9530
 Red. masses --     1.0482                 1.3012                 1.0916
 Frc consts  --     1.4121                 1.7672                 1.4897
 IR Inten    --    11.7720               117.8387                14.9319

                    61                     62                     63
                     A                      A                      A
 Frequencies --  1524.8106              1541.5706              1566.0187
 Red. masses --     1.2501                 2.2779                 3.5023
 Frc consts  --     1.7125                 3.1894                 5.0605
 IR Inten    --    21.3017               103.8869                 2.0175

                    64                     65                     66
                     A                      A                      A
 Frequencies --  1610.1307              1622.3106              1657.1017
 Red. masses --     8.7712                 9.5643                 6.1861
 Frc consts  --    13.3977                14.8310                10.0084
 IR Inten    --   804.9391               680.3920                22.4990

                    67                     68                     69
                     A                      A                      A
 Frequencies --  1660.2599              3076.0220              3076.6416
 Red. masses --     5.9523                 1.0293                 1.0292
 Frc consts  --     9.6669                 5.7379                 5.7398
 IR Inten    --     3.4685                41.9231                31.9593

                    70                     71                     72
                     A                      A                      A
 Frequencies --  3152.2974              3153.3630              3180.3487
 Red. masses --     1.1077                 1.1077                 1.1074
 Frc consts  --     6.4852                 6.4899                 6.5994
 IR Inten    --    18.0611                20.1893                23.4654

                    73                     74                     75
                     A                      A                      A
 Frequencies --  3180.4156              3188.5847              3198.3892
 Red. masses --     1.1075                 1.0853                 1.0896
 Frc consts  --     6.6002                 6.5015                 6.5672
 IR Inten    --    21.3328                 0.2228                12.9951

                    76                     77                     78
                     A                      A                      A
 Frequencies --  3210.2451              3221.1556              3228.1083
 Red. masses --     1.0938                 1.0951                 1.0945
 Frc consts  --     6.6416                 6.6946                 6.7201
 IR Inten    --    31.7736                 8.5156                 3.8049

 - Thermochemistry -
 -------------------
 Temperature   298.150 Kelvin.  Pressure   1.00000 Atm.
 Atom     1 has atomic number  6 and mass  12.00000

 Molecular mass:   233.08004 amu.
 Principal axes and moments of inertia in atomic units:
                           1         2         3
     Eigenvalues --  2243.012606592.494478284.41882
           X            0.99999  -0.00502   0.00103
           Y            0.00502   0.99997   0.00530
           Z           -0.00106  -0.00529   0.99999
 This molecule is an asymmetric top.
 Rotational symmetry number  1.
 Warning -- assumption of classical behavior for rotation
           may cause significant error
 Rotational temperatures (Kelvin)      0.03861     0.01314     0.01046
 Rotational constants (GHZ):           0.80461     0.27376     0.21785
 Zero-point vibrational energy     569076.2 (Joules/Mol)
                                  136.01248 (Kcal/Mol)
 Warning -- explicit consideration of  20 degrees of freedom as
           vibrations may cause significant error
 Vibrational temperatures:     28.89    53.02    95.56   146.03   162.89
          (Kelvin)            221.04   232.97   253.20   284.05   292.52
                              333.88   363.25   364.85   497.53   565.27
                              609.11   656.07   705.41   782.89   872.92
                              899.29   903.17   918.62  1010.02  1061.85
                             1077.95  1079.98  1149.46  1190.61  1209.32
                             1220.53  1323.69  1382.45  1409.99  1422.78
                             1435.03  1470.01  1490.68  1516.60  1591.80
                             1628.57  1669.49  1704.33  1705.56  1713.84
                             1723.90  1754.91  1778.55  1807.19  1894.95
                             1932.24  1959.71  2030.35  2041.15  2118.00
                             2162.34  2175.62  2175.68  2184.41  2189.75
                             2193.86  2217.97  2253.15  2316.62  2334.14
                             2384.20  2388.74  4425.70  4426.60  4535.45
                             4536.98  4575.81  4575.90  4587.66  4601.76
                             4618.82  4634.52  4644.52

 Zero-point correction=                           0.216750 (Hartree/Particle)
 Thermal correction to Energy=                    0.231543
 Thermal correction to Enthalpy=                  0.232487
 Thermal correction to Gibbs Free Energy=         0.172910
 Sum of electronic and zero-point Energies=           -815.509866
 Sum of electronic and thermal Energies=              -815.495073
 Sum of electronic and thermal Enthalpies=            -815.494128
 Sum of electronic and thermal Free Energies=         -815.553706

                     E (Thermal)             CV                S
                      KCal/Mol        Cal/Mol-Kelvin    Cal/Mol-Kelvin
 Total                  145.296             54.731            125.391
 Electronic               0.000              0.000              0.000
 Translational            0.889              2.981             42.240
 Rotational               0.889              2.981             33.171
 Vibrational            143.518             48.769             49.980
 Vibration     1          0.593              1.986              6.626
 Vibration     2          0.594              1.982              5.421
 Vibration     3          0.598              1.970              4.257
 Vibration     4          0.604              1.948              3.425
 Vibration     5          0.607              1.939              3.213
 Vibration     6          0.619              1.899              2.627
 Vibration     7          0.622              1.889              2.527
 Vibration     8          0.628              1.872              2.371
 Vibration     9          0.637              1.843              2.157
 Vibration    10          0.639              1.835              2.103
 Vibration    11          0.653              1.792              1.863
 Vibration    12          0.664              1.759              1.713
 Vibration    13          0.665              1.757              1.706
 Vibration    14          0.724              1.584              1.185
 Vibration    15          0.760              1.485              0.989
 Vibration    16          0.786              1.419              0.881
 Vibration    17          0.814              1.348              0.778
 Vibration    18          0.846              1.272              0.683
 Vibration    19          0.899              1.153              0.556
 Vibration    20          0.965              1.018              0.438

 Optimization completed.
    -- Stationary point found.
 Normal termination of Gaussian 09 at Tue Sep 28 18:55:06 2021.
 Gaussian 09:  AM64L-G09RevA.02 11-Jun-2009

 ----------------------------------------------------------------------
 #p TD(NStates=10, Root=1) b3lyp/6-31G* volume pop=NPA density=current
 Geom=AllCheck Guess=Read
 ----------------------------------------------------------------------

 COc1nc(Oc2ccccc2)nc(n1)OC_conf_0
 --------------------------------
 Redundant internal coordinates taken from checkpoint file:
 C11H11N3O3_9e0c_conf_0.chk
 Charge =  0 Multiplicity = 1

                         Standard orientation:
 ---------------------------------------------------------------------
 Center     Atomic      Atomic             Coordinates (Angstroms)
 Number     Number       Type             X           Y           Z
 ---------------------------------------------------------------------
      1          6           0        3.612680   -2.713310    0.171593
      2          8           0        3.638762   -1.281057    0.075560
      3          6           0        2.467303   -0.647288    0.028010
      4          7           0        1.341161   -1.355795    0.071302
      5          6           0        0.237505   -0.597732    0.014481
      6          8           0       -0.899428   -1.317112    0.046745
      7          6           0       -2.148136   -0.684795    0.043639
      8          6           0       -2.984308   -0.932634   -1.040082
      9          6           0       -4.277849   -0.407365   -1.033253
     10          6           0       -4.720999    0.354607    0.048628
     11          6           0       -3.867813    0.588388    1.130129
     12          6           0       -2.575135    0.065775    1.136532
     13          7           0        0.180109    0.722744   -0.074601
     14          6           0        1.390698    1.303435   -0.106934
     15          7           0        2.568911    0.687411   -0.060404
     16          8           0        1.352152    2.632482   -0.195054
     17          6           0        2.606609    3.328650   -0.237149
     18          1           0        4.661222   -3.012354    0.195251
     19          1           0        3.106578   -3.151770   -0.692257
     20          1           0        3.100479   -3.032483    1.082861
     21          1           0       -2.618908   -1.532430   -1.867485
     22          1           0       -4.937141   -0.596329   -1.875878
     23          1           0       -5.727592    0.763030    0.051578
     24          1           0       -4.208904    1.178988    1.975844
     25          1           0       -1.903293    0.239599    1.969882
     26          1           0        2.340083    4.383749   -0.308846
     27          1           0        3.193749    3.019868   -1.105864
     28          1           0        3.187251    3.138709    0.669266
 ---------------------------------------------------------------------

 SCF Done:  E(RB3LYP) =  -815.726615770     A.U. after    1 cycles

 Excitation energies and oscillator strengths:

 Excited State   1:      Singlet-A      5.3233 eV  232.91 nm  f=0.0556  <S**2>=0.000
      58 -> 62        -0.12087
      60 -> 62         0.21563
      60 -> 65         0.15644
      61 -> 62         0.50343
      61 -> 63        -0.30508
      61 -> 64         0.18508
 This state for optimization and/or second-order correction.
 Total Energy, E(TD-HF/TD-KS) =  -815.530989776
 Copying the excited state density for this state as the 1-particle RhoCI density.

 Excited State   2:      Singlet-A      5.3994 eV  229.63 nm  f=0.0205  <S**2>=0.000
      56 -> 62        -0.11590
      60 -> 62        -0.19811
      60 -> 65        -0.19689
      61 -> 62         0.41686
      61 -> 63         0.36170
      61 -> 64        -0.24550
      61 -> 65        -0.14715

 Excited State   3:      Singlet-A      5.5285 eV  224.26 nm  f=0.0030  <S**2>=0.000
      56 -> 63        -0.19345
      57 -> 63         0.10282
      58 -> 63        -0.12042
      60 -> 62         0.18348
      60 -> 63         0.10702
      60 -> 65         0.15889
      61 -> 63         0.42079
      61 -> 64         0.39635

 Excited State   4:      Singlet-A      5.7243 eV  216.59 nm  f=0.0184  <S**2>=0.000
      56 -> 62         0.33651
      57 -> 62         0.30679
      57 -> 63         0.32608
      58 -> 62         0.16202
      58 -> 63        -0.14720
      59 -> 62        -0.10778
      60 -> 62        -0.16912
      60 -> 63         0.14242
      61 -> 62         0.15419
      61 -> 63        -0.13777

 Excited State   5:      Singlet-A      5.7686 eV  214.93 nm  f=0.0119  <S**2>=0.000
      56 -> 62        -0.10854
      57 -> 62         0.45972
      57 -> 65        -0.11572
      58 -> 62        -0.28406
      60 -> 62         0.32799
      60 -> 65        -0.16423
      61 -> 62        -0.11026

 Excited State   6:      Singlet-A      5.8217 eV  212.97 nm  f=0.0025  <S**2>=0.000
      56 -> 62         0.14425
      57 -> 62         0.30017
      57 -> 63        -0.23329
      58 -> 62         0.18500
      58 -> 63         0.36859
      59 -> 62         0.21883
      59 -> 63        -0.17066
      60 -> 62        -0.11757
      60 -> 63        -0.15115

 Excited State   7:      Singlet-A      5.8721 eV  211.14 nm  f=0.0041  <S**2>=0.000
      56 -> 62        -0.18234
      56 -> 63         0.15049
      57 -> 62        -0.10780
      57 -> 63         0.49850
      57 -> 64         0.14398
      58 -> 63         0.22242
      59 -> 62         0.26508
      59 -> 63        -0.14580

 Excited State   8:      Singlet-A      5.9554 eV  208.19 nm  f=0.0144  <S**2>=0.000
      56 -> 62        -0.23118
      56 -> 63        -0.21589
      57 -> 62         0.15342
      58 -> 62        -0.15716
      59 -> 62         0.19173
      60 -> 62        -0.23294
      60 -> 63         0.42223
      60 -> 65         0.12905
      61 -> 63        -0.14616

 Excited State   9:      Singlet-A      6.0006 eV  206.62 nm  f=0.0042  <S**2>=0.000
      56 -> 62         0.11105
      56 -> 63        -0.17399
      58 -> 62         0.27717
      59 -> 62         0.15070
      60 -> 62         0.38462
      60 -> 63         0.26609
      60 -> 65        -0.22998
      61 -> 64        -0.20102

 Excited State  10:      Singlet-A      6.0893 eV  203.61 nm  f=0.0043  <S**2>=0.000
      56 -> 63         0.41113
      56 -> 64         0.12923
      58 -> 63         0.18898
      59 -> 62        -0.21294
      60 -> 63         0.37576
      61 -> 63         0.16900
      61 -> 65         0.21888

 The electronic state is 1-A.
 Alpha  occ. eigenvalues --  -19.20269 -19.19715 -19.19581 -14.33416 -14.33311
 Alpha  occ. eigenvalues --  -14.33260 -10.32768 -10.32422 -10.32336 -10.25153
 Alpha  occ. eigenvalues --  -10.24225 -10.24111 -10.19461 -10.19438 -10.19339
 Alpha  occ. eigenvalues --  -10.19290 -10.19094  -1.11300  -1.09850  -1.09393
 Alpha  occ. eigenvalues --   -0.99587  -0.89924  -0.89688  -0.85382  -0.75666
 Alpha  occ. eigenvalues --   -0.75035  -0.74157  -0.73068  -0.67236  -0.63224
 Alpha  occ. eigenvalues --   -0.61483  -0.60079  -0.58042  -0.56134  -0.52712
 Alpha  occ. eigenvalues --   -0.50891  -0.50243  -0.49728  -0.47567  -0.47319
 Alpha  occ. eigenvalues --   -0.45197  -0.44238  -0.43782  -0.43562  -0.42591
 Alpha  occ. eigenvalues --   -0.41345  -0.39173  -0.38761  -0.37298  -0.36660
 Alpha  occ. eigenvalues --   -0.35927  -0.35773  -0.35467  -0.35010  -0.30488
 Alpha  occ. eigenvalues --   -0.27941  -0.27731  -0.27600  -0.27224  -0.25260
 Alpha  occ. eigenvalues --   -0.24055
 Alpha virt. eigenvalues --   -0.01616  -0.01232  -0.00131   0.00494   0.08762
 Alpha virt. eigenvalues --    0.11329   0.11750   0.12694   0.12798   0.13984
 Alpha virt. eigenvalues --    0.14267   0.14894   0.15507   0.15655   0.15968

 Mulliken atomic charges:
              1
     1  C   -0.200836
     2  O   -0.467110
     3  C    0.662769
     4  N   -0.538939
     5  C    0.578100
     6  O   -0.526710
     7  C    0.389893
     8  C   -0.152507
     9  C   -0.128128
    10  C   -0.098681
    11  C   -0.150745
    12  C   -0.094026
    13  N   -0.513770
    14  C    0.656017
    15  N   -0.562256
    16  O   -0.477342
    17  C   -0.200435
    18  H    0.156940
    19  H    0.162936
    20  H    0.162412
    21  H    0.173327
    22  H    0.166639
    23  H    0.165551
    24  H    0.161077
    25  H    0.192208
    26  H    0.152522
    27  H    0.166236
    28  H    0.164856
 Sum of Mulliken atomic charges =  -0.00000

 Dipole moment (field-independent basis, Debye):
    X=             -6.2605    Y=             -0.1765    Z=              0.3751  Tot=              6.2742
 Quadrupole moment (field-independent basis, Debye-Ang):
   XX=            -72.8770   YY=            -92.1547   ZZ=            -90.0530
   XY=             -2.2734   XZ=              0.9833   YZ=              2.9392

 Summary of Natural Population Analysis:

                                       Natural Population
                Natural  -----------------------------------------------
    Atom  No    Charge         Core      Valence    Rydberg      Total
 -----------------------------------------------------------------------
      C    1   -0.31713      1.99941     4.30421    0.01350     6.31713
      O    2   -0.50992      1.99972     6.49820    0.01201     8.50992
      C    3    0.75326      1.99921     3.21043    0.03710     5.24674
      N    4   -0.61618      1.99925     5.59555    0.02138     7.61618
      C    5    0.60426      1.99917     3.36097    0.03560     5.39574
      O    6   -0.49917      1.99967     6.48717    0.01233     8.49917
      C    7    0.39419      1.99872     3.58325    0.02384     5.60581
      C    8   -0.28698      1.99900     4.27089    0.01708     6.28698
      C    9   -0.17449      1.99913     4.16034    0.01502     6.17449
      C   10   -0.16437      1.99912     4.15039    0.01486     6.16437
      C   11   -0.25956      1.99915     4.24442    0.01600     6.25956
      C   12   -0.16953      1.99898     4.15568    0.01487     6.16953
      N   13   -0.55034      1.99918     5.53175    0.01942     7.55034
      C   14    0.71909      1.99922     3.24559    0.03610     5.28091
      N   15   -0.66434      1.99925     5.64238    0.02270     7.66434
      O   16   -0.51921      1.99972     6.50744    0.01204     8.51921
      C   17   -0.31639      1.99941     4.30331    0.01366     6.31639
      H   18    0.21788      0.00000     0.78146    0.00066     0.78212
      H   19    0.21555      0.00000     0.78266    0.00179     0.78445
      H   20    0.21525      0.00000     0.78298    0.00177     0.78475
      H   21    0.26431      0.00000     0.73477    0.00093     0.73569
      H   22    0.24842      0.00000     0.75086    0.00072     0.75158
      H   23    0.24641      0.00000     0.75287    0.00072     0.75359
      H   24    0.25064      0.00000     0.74863    0.00072     0.74936
      H   25    0.26868      0.00000     0.73061    0.00071     0.73132
      H   26    0.21536      0.00000     0.78396    0.00068     0.78464
      H   27    0.21757      0.00000     0.78094    0.00149     0.78243
      H   28    0.21675      0.00000     0.78177    0.00148     0.78325
 =======================================================================
   * Total *   -0.00000     33.98733    87.66350    0.34918   122.00000

 Normal termination of Gaussian 09 at Tue Sep 28 23:21:23 2021.
