 Gaussian 09, Revision A.02,

 -----------------------------------
 #p opt b3lyp/6-31G* scf=(xqc,tight)
 -----------------------------------

 -------------------------
 CCOc1c(C)cc(cc1C)C_conf_0
 -------------------------
 Symbolic Z-matrix:
 Charge =  0 Multiplicity = 1

 SCF Done:  E(RB3LYP) =  -504.032607757     A.U. after   14 cycles
 SCF Done:  E(RB3LYP) =  -504.036427945     A.U. after   15 cycles
 SCF Done:  E(RB3LYP) =  -504.037145936     A.U. after   15 cycles
 SCF Done:  E(RB3LYP) =  -504.037603259     A.U. after   15 cycles
 SCF Done:  E(RB3LYP) =  -504.038201954     A.U. after   12 cycles
 SCF Done:  E(RB3LYP) =  -504.036278471     A.U. after   15 cycles
 SCF Done:  E(RB3LYP) =  -504.038655244     A.U. after   14 cycles
 SCF Done:  E(RB3LYP) =  -504.039007988     A.U. after   11 cycles
 SCF Done:  E(RB3LYP) =  -504.039190908     A.U. after   11 cycles
 SCF Done:  E(RB3LYP) =  -504.039240471     A.U. after    9 cycles
 SCF Done:  E(RB3LYP) =  -504.039274537     A.U. after    7 cycles
 SCF Done:  E(RB3LYP) =  -504.039276399     A.U. after    9 cycles
 SCF Done:  E(RB3LYP) =  -504.039277800     A.U. after   15 cycles
 SCF Done:  E(RB3LYP) =  -504.039278176     A.U. after    7 cycles
 SCF Done:  E(RB3LYP) =  -504.039278447     A.U. after    7 cycles
 SCF Done:  E(RB3LYP) =  -504.039278802     A.U. after    8 cycles
 SCF Done:  E(RB3LYP) =  -504.039279149     A.U. after    9 cycles
 SCF Done:  E(RB3LYP) =  -504.039279167     A.U. after    7 cycles
 Optimization completed.
    -- Stationary point found.
 Normal termination of Gaussian 09 at Thu Sep 30 14:31:26 2021.

 ----------------------------------------------------------------------
 #p freq b3lyp/6-31G* volume NMR pop=NPA density=current Geom=AllCheck
 Guess=Read
 ----------------------------------------------------------------------

 CCOc1c(C)cc(cc1C)C_conf_0
 -------------------------
 Redundant internal coordinates taken from checkpoint file:
 C11H16O_2e51_conf_0.chk
 Charge =  0 Multiplicity = 1

 SCF Done:  E(RB3LYP) =  -504.039279167     A.U. after    1 cycles

  1  C    Isotropic =   173.2838   Anisotropy =    22.5969

  2  C    Isotropic =   125.9062   Anisotropy =    65.0520

  3  O    Isotropic =   243.3635   Anisotropy =    86.4607

  4  C    Isotropic =    41.9567   Anisotropy =   112.6678

  5  C    Isotropic =    64.1978   Anisotropy =   156.6645

  6  C    Isotropic =   172.1547   Anisotropy =    26.6002

  7  C    Isotropic =    65.6385   Anisotropy =   120.9231

  8  C    Isotropic =    63.4735   Anisotropy =   168.9034

  9  C    Isotropic =    66.3922   Anisotropy =   126.9440

 10  C    Isotropic =    63.7656   Anisotropy =   157.5016

 11  C    Isotropic =   171.2609   Anisotropy =    26.7782

 12  C    Isotropic =   168.1437   Anisotropy =    34.8033

 13  H    Isotropic =    30.6278   Anisotropy =     7.3318

 14  H    Isotropic =    30.6281   Anisotropy =     7.3232

 15  H    Isotropic =    31.2460   Anisotropy =     9.3728

 16  H    Isotropic =    28.3578   Anisotropy =     5.6364

 17  H    Isotropic =    28.4421   Anisotropy =     5.7742

 18  H    Isotropic =    29.5321   Anisotropy =     6.0721

 19  H    Isotropic =    30.0005   Anisotropy =     7.3756

 20  H    Isotropic =    30.5003   Anisotropy =     8.2144

 21  H    Isotropic =    25.4931   Anisotropy =     8.1446

 22  H    Isotropic =    25.4193   Anisotropy =     8.4205

 23  H    Isotropic =    30.5376   Anisotropy =     8.0478

 24  H    Isotropic =    29.9280   Anisotropy =     6.9990

 25  H    Isotropic =    29.5187   Anisotropy =     6.6087

 26  H    Isotropic =    30.4681   Anisotropy =     7.0810

 27  H    Isotropic =    29.9773   Anisotropy =     7.7886

 28  H    Isotropic =    29.8041   Anisotropy =     8.3271

  Exact polarizability: 154.983   0.462 129.510  -3.245   0.005  70.931
 Approx polarizability: 209.241   0.831 198.000  -9.505   0.008 107.917

 ******    1 imaginary frequencies (negative Signs) ******

                     1                      2                      3
                     A                      A                      A
 Frequencies --    -4.0926                39.8141                54.8438
 Red. masses --     1.0401                 1.4992                 2.3159
 Frc consts  --     0.0000                 0.0014                 0.0041
 IR Inten    --     0.1553                 0.4967                 1.2154

                     4                      5                      6
                     A                      A                      A
 Frequencies --    71.6881               100.0795               119.2454
 Red. masses --     2.9775                 1.0661                 1.3170
 Frc consts  --     0.0090                 0.0063                 0.0110
 IR Inten    --     0.1867                 0.6408                 0.5461

                     7                      8                      9
                     A                      A                      A
 Frequencies --   173.0575               202.2090               233.8516
 Red. masses --     2.7662                 3.5106                 2.6224
 Frc consts  --     0.0488                 0.0846                 0.0845
 IR Inten    --     2.7318                 0.5642                 0.0045

                    10                     11                     12
                     A                      A                      A
 Frequencies --   249.0807               264.5140               272.8081
 Red. masses --     1.2350                 2.7674                 2.4706
 Frc consts  --     0.0451                 0.1141                 0.1083
 IR Inten    --     0.0019                 0.4788                 1.0542

                    13                     14                     15
                     A                      A                      A
 Frequencies --   327.0916               333.3724               401.9711
 Red. masses --     4.0250                 2.9419                 4.2869
 Frc consts  --     0.2537                 0.1926                 0.4081
 IR Inten    --     5.4311                 1.2356                 0.2991

                    16                     17                     18
                     A                      A                      A
 Frequencies --   506.1390               518.5274               521.2878
 Red. masses --     3.6397                 4.5166                 3.2238
 Frc consts  --     0.5494                 0.7155                 0.5162
 IR Inten    --     1.8632                 3.0302                 0.3351

                    19                     20                     21
                     A                      A                      A
 Frequencies --   577.5139               587.5676               600.3553
 Red. masses --     4.0405                 4.2511                 3.1634
 Frc consts  --     0.7940                 0.8647                 0.6718
 IR Inten    --     0.0479                 0.3820                 2.7659

                    22                     23                     24
                     A                      A                      A
 Frequencies --   737.7426               793.5886               825.1457
 Red. masses --     3.9909                 4.3151                 1.0846
 Frc consts  --     1.2798                 1.6011                 0.4351
 IR Inten    --     0.6675                 5.4370                 0.3828

                    25                     26                     27
                     A                      A                      A
 Frequencies --   876.3335               896.3720               922.6788
 Red. masses --     1.2867                 1.3036                 2.3748
 Frc consts  --     0.5822                 0.6171                 1.1912
 IR Inten    --    11.9278                 0.0856                17.1736

                    28                     29                     30
                     A                      A                      A
 Frequencies --   956.5020               977.9643              1038.3613
 Red. masses --     2.5410                 3.8209                 1.6444
 Frc consts  --     1.3697                 2.1531                 1.0446
 IR Inten    --     1.9852                 1.0510                10.1565

                    31                     32                     33
                     A                      A                      A
 Frequencies --  1045.1226              1061.1388              1066.6522
 Red. masses --     1.5258                 1.7818                 3.4577
 Frc consts  --     0.9819                 1.1821                 2.3178
 IR Inten    --     1.8691                 0.6473                70.6740

                    34                     35                     36
                     A                      A                      A
 Frequencies --  1073.0009              1075.1726              1076.8362
 Red. masses --     1.5400                 1.4986                 1.4946
 Frc consts  --     1.0446                 1.0207                 1.0211
 IR Inten    --     3.4442                 0.4040                 2.0930

                    37                     38                     39
                     A                      A                      A
 Frequencies --  1149.3885              1184.2036              1194.6402
 Red. masses --     2.1935                 2.1562                 1.5018
 Frc consts  --     1.7074                 1.7815                 1.2628
 IR Inten    --    26.6595                55.9392                 2.9673

                    40                     41                     42
                     A                      A                      A
 Frequencies --  1252.0080              1289.6885              1307.9258
 Red. masses --     2.5850                 1.4090                 1.1151
 Frc consts  --     2.3874                 1.3808                 1.1239
 IR Inten    --   151.4581                 0.4079                 0.2722

                    43                     44                     45
                     A                      A                      A
 Frequencies --  1332.0183              1346.3989              1416.6863
 Red. masses --     6.5001                 6.5763                 1.2627
 Frc consts  --     6.7951                 7.0239                 1.4931
 IR Inten    --    12.0730                 8.5364                16.9447

                    46                     47                     48
                     A                      A                      A
 Frequencies --  1440.4002              1441.7456              1444.5720
 Red. masses --     1.2357                 1.2406                 1.3146
 Frc consts  --     1.5105                 1.5194                 1.6163
 IR Inten    --     0.4319                 0.3571                 7.4959

                    49                     50                     51
                     A                      A                      A
 Frequencies --  1447.5848              1462.5989              1492.1941
 Red. masses --     1.3439                 2.8415                 1.7896
 Frc consts  --     1.6592                 3.5813                 2.3477
 IR Inten    --    34.5071                 0.0249                11.6641

                    52                     53                     54
                     A                      A                      A
 Frequencies --  1511.0841              1511.8262              1513.4678
 Red. masses --     1.0487                 1.0495                 1.0432
 Frc consts  --     1.4108                 1.4133                 1.4078
 IR Inten    --     6.5115                 8.4470                 4.8927

                    55                     56                     57
                     A                      A                      A
 Frequencies --  1517.0818              1525.8107              1529.8782
 Red. masses --     1.0470                 1.0517                 1.0615
 Frc consts  --     1.4198                 1.4426                 1.4639
 IR Inten    --     4.1815                 0.2775                 3.2782

                    58                     59                     60
                     A                      A                      A
 Frequencies --  1533.0001              1545.5400              1557.4632
 Red. masses --     1.1923                 1.4539                 1.0906
 Frc consts  --     1.6509                 2.0462                 1.5587
 IR Inten    --    17.1564                57.0792                 1.7298

                    61                     62                     63
                     A                      A                      A
 Frequencies --  1642.4959              1663.1739              3018.2116
 Red. masses --     7.0000                 5.3959                 1.0558
 Frc consts  --    11.1264                 8.7941                 5.6666
 IR Inten    --     0.8903                 2.3657                32.2869

                    64                     65                     66
                     A                      A                      A
 Frequencies --  3039.9288              3041.5217              3045.6089
 Red. masses --     1.0389                 1.0493                 1.0442
 Frc consts  --     5.6565                 5.7190                 5.7069
 IR Inten    --    45.7466                14.8527                18.4961

                    67                     68                     69
                     A                      A                      A
 Frequencies --  3051.0035              3059.6464              3092.4881
 Red. masses --     1.0992                 1.0352                 1.0989
 Frc consts  --     6.0287                 5.7096                 6.1917
 IR Inten    --    64.2154                20.4194                22.5121

                    70                     71                     72
                     A                      A                      A
 Frequencies --  3101.4437              3102.0590              3121.9735
 Red. masses --     1.0913                 1.0937                 1.1012
 Frc consts  --     6.1845                 6.2008                 6.3240
 IR Inten    --    17.1345                26.4685                17.1627

                    73                     74                     75
                     A                      A                      A
 Frequencies --  3130.5863              3132.8794              3135.8179
 Red. masses --     1.1023                 1.1031                 1.1031
 Frc consts  --     6.3649                 6.3790                 6.3912
 IR Inten    --    28.3583                17.6720                24.4457

                    76                     77                     78
                     A                      A                      A
 Frequencies --  3136.4953              3166.3099              3169.8575
 Red. masses --     1.1035                 1.0897                 1.0898
 Frc consts  --     6.3963                 6.4368                 6.4516
 IR Inten    --    14.4538                27.5080                18.4692

 - Thermochemistry -
 -------------------
 Temperature   298.150 Kelvin.  Pressure   1.00000 Atm.
 Atom     1 has atomic number  6 and mass  12.00000

 Molecular mass:   164.12012 amu.
 Principal axes and moments of inertia in atomic units:
                           1         2         3
     Eigenvalues --  1123.879022915.164743856.02276
           X            1.00000   0.00007   0.00262
           Y           -0.00007   1.00000   0.00003
           Z           -0.00262  -0.00003   1.00000
 This molecule is an asymmetric top.
 Rotational symmetry number  1.
 Warning -- assumption of classical behavior for rotation
           may cause significant error
 Rotational temperatures (Kelvin)      0.07707     0.02971     0.02246
 Rotational constants (GHZ):           1.60581     0.61909     0.46803
    1 imaginary frequencies ignored.
 Zero-point vibrational energy     642253.1 (Joules/Mol)
                                  153.50218 (Kcal/Mol)
 Warning -- explicit consideration of  20 degrees of freedom as
           vibrations may cause significant error
 Vibrational temperatures:     57.28    78.91   103.14   143.99   171.57
          (Kelvin)            248.99   290.93   336.46   358.37   380.58
                              392.51   470.61   479.65   578.35   728.22
                              746.04   750.02   830.91   845.38   863.78
                             1061.45  1141.80  1187.20  1260.85  1289.68
                             1327.53  1376.19  1407.07  1493.97  1503.70
                             1526.74  1534.67  1543.81  1546.93  1549.33
                             1653.71  1703.80  1718.82  1801.36  1855.57
                             1881.81  1916.47  1937.17  2038.29  2072.41
                             2074.35  2078.41  2082.75  2104.35  2146.93
                             2174.11  2175.18  2177.54  2182.74  2195.30
                             2201.15  2205.64  2223.68  2240.84  2363.18
                             2392.93  4342.53  4373.77  4376.07  4381.95
                             4389.71  4402.14  4449.40  4462.28  4463.17
                             4491.82  4504.21  4507.51  4511.74  4512.71
                             4555.61  4560.71

 Zero-point correction=                           0.244621 (Hartree/Particle)
 Thermal correction to Energy=                    0.257550
 Thermal correction to Enthalpy=                  0.258494
 Thermal correction to Gibbs Free Energy=         0.204788
 Sum of electronic and zero-point Energies=           -503.794658
 Sum of electronic and thermal Energies=              -503.781729
 Sum of electronic and thermal Enthalpies=            -503.780785
 Sum of electronic and thermal Free Energies=         -503.834491

                     E (Thermal)             CV                S
                      KCal/Mol        Cal/Mol-Kelvin    Cal/Mol-Kelvin
 Total                  161.615             47.299            113.034
 Electronic               0.000              0.000              0.000
 Translational            0.889              2.981             41.195
 Rotational               0.889              2.981             30.914
 Vibrational            159.838             41.338             40.926
 Vibration     1          0.594              1.981              5.268
 Vibration     2          0.596              1.976              4.635
 Vibration     3          0.598              1.968              4.106
 Vibration     4          0.604              1.949              3.453
 Vibration     5          0.609              1.933              3.113
 Vibration     6          0.627              1.876              2.402
 Vibration     7          0.639              1.837              2.113
 Vibration     8          0.654              1.789              1.849
 Vibration     9          0.662              1.764              1.737
 Vibration    10          0.671              1.738              1.632
 Vibration    11          0.676              1.723              1.578
 Vibration    12          0.711              1.621              1.274
 Vibration    13          0.715              1.609              1.244
 Vibration    14          0.768              1.466              0.955
 Vibration    15          0.861              1.236              0.643
 Vibration    16          0.874              1.209              0.613
 Vibration    17          0.876              1.203              0.607
 Vibration    18          0.934              1.080              0.490
 Vibration    19          0.945              1.058              0.472
 Vibration    20          0.959              1.031              0.449

 Normal termination of Gaussian 09 at Thu Sep 30 15:16:02 2021.
 Gaussian 09:  AM64L-G09RevA.02 11-Jun-2009

 ----------------------------------------------------------------------
 #p TD(NStates=10, Root=1) b3lyp/6-31G* volume pop=NPA density=current
 Geom=AllCheck Guess=Read
 ----------------------------------------------------------------------

 CCOc1c(C)cc(cc1C)C_conf_0
 -------------------------
 Redundant internal coordinates taken from checkpoint file:
 C11H16O_2e51_conf_0.chk
 Charge =  0 Multiplicity = 1

                         Standard orientation:
 ---------------------------------------------------------------------
 Center     Atomic      Atomic             Coordinates (Angstroms)
 Number     Number       Type             X           Y           Z
 ---------------------------------------------------------------------
      1          6           0        3.978465   -0.017492    0.236062
      2          6           0        2.528869    0.029603    0.686286
      3          8           0        1.702726   -0.009777   -0.484730
      4          6           0        0.335945   -0.000176   -0.244420
      5          6           0       -0.342774    1.224257   -0.164632
      6          6           0        0.400256    2.531943   -0.300885
      7          6           0       -1.729662    1.198806    0.027583
      8          6           0       -2.441459    0.001538    0.134018
      9          6           0       -1.729716   -1.200014    0.032196
     10          6           0       -0.346161   -1.225817   -0.159889
     11          6           0        0.402189   -2.530335   -0.296366
     12          6           0       -3.941776   -0.003138    0.320228
     13          1           0        4.207675    0.835565   -0.410777
     14          1           0        4.176924   -0.936033   -0.325583
     15          1           0        4.647872    0.012861    1.102885
     16          1           0        2.326180    0.946614    1.257524
     17          1           0        2.292914   -0.823170    1.338785
     18          1           0        1.176005    2.464775   -1.069691
     19          1           0        0.898564    2.819428    0.634699
     20          1           0       -0.285143    3.343386   -0.565483
     21          1           0       -2.265988    2.144256    0.087550
     22          1           0       -2.266643   -2.145082    0.096970
     23          1           0       -0.293037   -3.367659   -0.411612
     24          1           0        1.026135   -2.739139    0.582405
     25          1           0        1.072320   -2.511516   -1.162023
     26          1           0       -4.315102    0.992563    0.580690
     27          1           0       -4.246125   -0.694073    1.115427
     28          1           0       -4.459415   -0.319614   -0.595008
 ---------------------------------------------------------------------

 SCF Done:  E(RB3LYP) =  -504.039279167     A.U. after    1 cycles

 Excitation energies and oscillator strengths:

 Excited State   1:      Singlet-A      5.1928 eV  238.76 nm  f=0.0041  <S**2>=0.000
      44 -> 46        -0.29197
      44 -> 47        -0.34121
      45 -> 46         0.43281
      45 -> 47        -0.33172
 This state for optimization and/or second-order correction.
 Total Energy, E(TD-HF/TD-KS) =  -503.848445784
 Copying the excited state density for this state as the 1-particle RhoCI density.

 Excited State   2:      Singlet-A      5.8265 eV  212.79 nm  f=0.0506  <S**2>=0.000
      44 -> 46         0.31140
      44 -> 47        -0.21549
      45 -> 46         0.38579
      45 -> 47         0.45099

 Excited State   3:      Singlet-A      6.2618 eV  198.00 nm  f=0.0029  <S**2>=0.000
      43 -> 46         0.54970
      43 -> 47         0.42919

 Excited State   4:      Singlet-A      6.4109 eV  193.40 nm  f=0.0062  <S**2>=0.000
      43 -> 46        -0.43389
      43 -> 47         0.54574

 Excited State   5:      Singlet-A      6.7049 eV  184.92 nm  f=0.5379  <S**2>=0.000
      44 -> 46         0.44702
      44 -> 47         0.27893
      45 -> 46         0.23441
      45 -> 47        -0.37609

 Excited State   6:      Singlet-A      6.7336 eV  184.13 nm  f=0.6773  <S**2>=0.000
      44 -> 46        -0.32250
      44 -> 47         0.49326
      45 -> 46         0.31108
      45 -> 47         0.18300

 Excited State   7:      Singlet-A      7.4521 eV  166.37 nm  f=0.0243  <S**2>=0.000
      45 -> 48         0.69674

 Excited State   8:      Singlet-A      7.7928 eV  159.10 nm  f=0.0033  <S**2>=0.000
      42 -> 46         0.10323
      44 -> 48         0.68836

 Excited State   9:      Singlet-A      7.8678 eV  157.59 nm  f=0.0088  <S**2>=0.000
      39 -> 46        -0.11371
      41 -> 46         0.33724
      42 -> 46         0.55909
      44 -> 48        -0.10657
      45 -> 49        -0.12692

 Excited State  10:      Singlet-A      7.8902 eV  157.14 nm  f=0.0012  <S**2>=0.000
      45 -> 49         0.68400

 The electronic state is 1-A.
 Alpha  occ. eigenvalues --  -19.15138 -10.23420 -10.22359 -10.18675 -10.18651
 Alpha  occ. eigenvalues --  -10.18588 -10.17820 -10.17804 -10.17636 -10.17633
 Alpha  occ. eigenvalues --  -10.17514 -10.17487  -1.03672  -0.84761  -0.77528
 Alpha  occ. eigenvalues --   -0.77354  -0.74729  -0.69379  -0.67135  -0.66485
 Alpha  occ. eigenvalues --   -0.61382  -0.57266  -0.55969  -0.51164  -0.48903
 Alpha  occ. eigenvalues --   -0.45400  -0.44296  -0.43442  -0.41652  -0.41076
 Alpha  occ. eigenvalues --   -0.40590  -0.39845  -0.39611  -0.39365  -0.38877
 Alpha  occ. eigenvalues --   -0.38537  -0.36650  -0.35898  -0.35167  -0.33202
 Alpha  occ. eigenvalues --   -0.32897  -0.31449  -0.26137  -0.22946  -0.21768
 Alpha virt. eigenvalues --    0.00965   0.01276   0.08546   0.10699   0.11277
 Alpha virt. eigenvalues --    0.12422   0.12911   0.13336   0.14210   0.15544
 Alpha virt. eigenvalues --    0.16591   0.16870   0.17079   0.17620   0.18244

 Mulliken atomic charges:
              1
     1  C   -0.457333
     2  C   -0.021120
     3  O   -0.523890
     4  C    0.210647
     5  C    0.170042
     6  C   -0.529955
     7  C   -0.276695
     8  C    0.208963
     9  C   -0.275678
    10  C    0.167257
    11  C   -0.525266
    12  C   -0.532881
    13  H    0.160567
    14  H    0.160411
    15  H    0.146718
    16  H    0.135041
    17  H    0.134573
    18  H    0.169555
    19  H    0.152156
    20  H    0.150362
    21  H    0.113962
    22  H    0.112217
    23  H    0.150091
    24  H    0.152848
    25  H    0.170095
    26  H    0.154795
    27  H    0.157922
    28  H    0.164598
 Sum of Mulliken atomic charges =  -0.00000

 Dipole moment (field-independent basis, Debye):
    X=              0.3847    Y=             -0.0074    Z=              1.0650  Tot=              1.1324
 Quadrupole moment (field-independent basis, Debye-Ang):
   XX=            -66.9854   YY=            -70.1687   ZZ=            -75.3759
   XY=              0.0589   XZ=              2.1944   YZ=              0.0076

 Summary of Natural Population Analysis:

                                       Natural Population
                Natural  -----------------------------------------------
    Atom  No    Charge         Core      Valence    Rydberg      Total
 -----------------------------------------------------------------------
      C    1   -0.69761      1.99944     4.68982    0.00834     6.69761
      C    2   -0.09234      1.99926     4.07866    0.01441     6.09234
      O    3   -0.56173      1.99974     6.54982    0.01217     8.56173
      C    4    0.32249      1.99864     3.65508    0.02379     5.67751
      C    5   -0.06971      1.99898     4.05359    0.01714     6.06971
      C    6   -0.69142      1.99941     4.68370    0.00832     6.69142
      C    7   -0.23130      1.99901     4.21601    0.01628     6.23130
      C    8   -0.00281      1.99906     3.98728    0.01647     6.00281
      C    9   -0.24649      1.99901     4.23080    0.01668     6.24649
      C   10   -0.05849      1.99898     4.04247    0.01704     6.05849
      C   11   -0.68982      1.99941     4.68190    0.00852     6.68982
      C   12   -0.69140      1.99940     4.68436    0.00765     6.69140
      H   13    0.23585      0.00000     0.76268    0.00146     0.76415
      H   14    0.23579      0.00000     0.76275    0.00147     0.76421
      H   15    0.23523      0.00000     0.76403    0.00074     0.76477
      H   16    0.20308      0.00000     0.79453    0.00239     0.79692
      H   17    0.20287      0.00000     0.79473    0.00240     0.79713
      H   18    0.24808      0.00000     0.75018    0.00174     0.75192
      H   19    0.23151      0.00000     0.76617    0.00231     0.76849
      H   20    0.23618      0.00000     0.76260    0.00122     0.76382
      H   21    0.22240      0.00000     0.77641    0.00119     0.77760
      H   22    0.22239      0.00000     0.77643    0.00117     0.77761
      H   23    0.23573      0.00000     0.76329    0.00097     0.76427
      H   24    0.23307      0.00000     0.76484    0.00210     0.76693
      H   25    0.24877      0.00000     0.74947    0.00176     0.75123
      H   26    0.23650      0.00000     0.76249    0.00102     0.76350
      H   27    0.23977      0.00000     0.75824    0.00199     0.76023
      H   28    0.24340      0.00000     0.75461    0.00198     0.75660
 =======================================================================
   * Total *    0.00000     23.99033    65.81696    0.19271    90.00000

 Normal termination of Gaussian 09 at Thu Sep 30 18:25:41 2021.
