 Gaussian 09, Revision A.02,

 -----------------------------------
 #p opt b3lyp/6-31G* scf=(xqc,tight)
 -----------------------------------

 -----------------------------------
 COc1nc(Oc2ccc(cc2)F)nc(n1)OC_conf_0
 -----------------------------------
 Symbolic Z-matrix:
 Charge =  0 Multiplicity = 1

 SCF Done:  E(RB3LYP) =  -914.944485463     A.U. after   14 cycles
 SCF Done:  E(RB3LYP) =  -914.953348262     A.U. after   12 cycles
 SCF Done:  E(RB3LYP) =  -914.956793068     A.U. after   14 cycles
 SCF Done:  E(RB3LYP) =  -914.957681864     A.U. after   12 cycles
 SCF Done:  E(RB3LYP) =  -914.958256409     A.U. after   12 cycles
 SCF Done:  E(RB3LYP) =  -914.958559910     A.U. after   12 cycles
 SCF Done:  E(RB3LYP) =  -914.958655216     A.U. after   11 cycles
 SCF Done:  E(RB3LYP) =  -914.958743677     A.U. after   11 cycles
 SCF Done:  E(RB3LYP) =  -914.958834922     A.U. after   12 cycles
 SCF Done:  E(RB3LYP) =  -914.958906848     A.U. after   13 cycles
 SCF Done:  E(RB3LYP) =  -914.958945245     A.U. after   11 cycles
 SCF Done:  E(RB3LYP) =  -914.958966208     A.U. after   11 cycles
 SCF Done:  E(RB3LYP) =  -914.958970010     A.U. after   10 cycles
 SCF Done:  E(RB3LYP) =  -914.958971001     A.U. after   10 cycles
 SCF Done:  E(RB3LYP) =  -914.958971339     A.U. after    8 cycles
 SCF Done:  E(RB3LYP) =  -914.958971489     A.U. after    7 cycles
 SCF Done:  E(RB3LYP) =  -914.958971528     A.U. after    7 cycles
 SCF Done:  E(RB3LYP) =  -914.958971554     A.U. after    7 cycles
 Optimization completed.
    -- Stationary point found.
 Normal termination of Gaussian 09 at Tue Sep 28 18:23:41 2021.

 ----------------------------------------------------------------------
 #p freq b3lyp/6-31G* volume NMR pop=NPA density=current Geom=AllCheck
 Guess=Read
 ----------------------------------------------------------------------

 COc1nc(Oc2ccc(cc2)F)nc(n1)OC_conf_0
 -----------------------------------
 Redundant internal coordinates taken from checkpoint file:
 C11H10FN3O3_5e60_conf_0.chk
 Charge =  0 Multiplicity = 1

 SCF Done:  E(RB3LYP) =  -914.958971554     A.U. after    1 cycles

  1  C    Isotropic =   136.4078   Anisotropy =    65.3958

  2  O    Isotropic =   191.0959   Anisotropy =    89.5393

  3  C    Isotropic =    23.6099   Anisotropy =    99.3247

  4  N    Isotropic =    62.7279   Anisotropy =   278.6714

  5  C    Isotropic =    23.1914   Anisotropy =    93.7411

  6  O    Isotropic =   142.4261   Anisotropy =    95.9286

  7  C    Isotropic =    48.7342   Anisotropy =   104.5317

  8  C    Isotropic =    70.5425   Anisotropy =   152.2923

  9  C    Isotropic =    79.5327   Anisotropy =   138.1376

 10  C    Isotropic =    36.0132   Anisotropy =    96.0492

 11  C    Isotropic =    79.5415   Anisotropy =   138.3834

 12  C    Isotropic =    73.4666   Anisotropy =   143.7838

 13  F    Isotropic =   301.7001   Anisotropy =   110.2308

 14  N    Isotropic =    63.6676   Anisotropy =   281.0360

 15  C    Isotropic =    23.1735   Anisotropy =   100.6459

 16  N    Isotropic =    61.8823   Anisotropy =   283.8255

 17  O    Isotropic =   191.1538   Anisotropy =    89.9619

 18  C    Isotropic =   136.3232   Anisotropy =    64.6649

 19  H    Isotropic =    28.5999   Anisotropy =     7.8692

 20  H    Isotropic =    28.3464   Anisotropy =     8.2129

 21  H    Isotropic =    28.3629   Anisotropy =     8.3229

 22  H    Isotropic =    25.1862   Anisotropy =     7.6833

 23  H    Isotropic =    25.3994   Anisotropy =     4.3598

 24  H    Isotropic =    25.4158   Anisotropy =     4.1411

 25  H    Isotropic =    25.2862   Anisotropy =     6.3795

 26  H    Isotropic =    28.4819   Anisotropy =     7.6281

 27  H    Isotropic =    28.2238   Anisotropy =     7.6759

 28  H    Isotropic =    28.2269   Anisotropy =     7.9017

  Exact polarizability: 193.057  11.885 133.594  -6.448  12.661  98.821
 Approx polarizability: 267.666  24.859 204.884 -11.915  25.818 162.469

                     1                      2                      3
                     A                      A                      A
 Frequencies --    17.2613                32.5308                53.4829
 Red. masses --     4.0424                 7.4701                 7.0721
 Frc consts  --     0.0007                 0.0047                 0.0119
 IR Inten    --     0.0782                 0.3223                 0.1709

                     4                      5                      6
                     A                      A                      A
 Frequencies --   101.2773               112.4703               149.4076
 Red. masses --     3.4093                 3.1924                 1.9541
 Frc consts  --     0.0206                 0.0238                 0.0257
 IR Inten    --     6.2505                 0.0629                 0.8692

                     7                      8                      9
                     A                      A                      A
 Frequencies --   155.1318               162.3513               174.2471
 Red. masses --     2.0882                 1.2618                 3.6309
 Frc consts  --     0.0296                 0.0196                 0.0650
 IR Inten    --     1.0064                 0.1638                 2.8558

                    10                     11                     12
                     A                      A                      A
 Frequencies --   200.2353               222.6045               232.3379
 Red. masses --     4.6512                 4.5848                 6.2777
 Frc consts  --     0.1099                 0.1339                 0.1997
 IR Inten    --     0.2976                 1.5681                 0.0868

                    13                     14                     15
                     A                      A                      A
 Frequencies --   252.8644               331.2620               336.7309
 Red. masses --     5.4255                 7.3054                 5.5321
 Frc consts  --     0.2044                 0.4723                 0.3696
 IR Inten    --     4.4889                 4.9152                 3.0137

                    16                     17                     18
                     A                      A                      A
 Frequencies --   370.9792               432.0851               442.1411
 Red. masses --     8.7451                 3.1879                 5.2408
 Frc consts  --     0.7091                 0.3507                 0.6036
 IR Inten    --     3.7679                 0.0381                 3.5112

                    19                     20                     21
                     A                      A                      A
 Frequencies --   461.9059               498.1194               535.3134
 Red. masses --     5.2356                 4.4944                 3.9972
 Frc consts  --     0.6581                 0.6570                 0.6749
 IR Inten    --    14.1403                14.9810                 9.7360

                    22                     23                     24
                     A                      A                      A
 Frequencies --   579.4065               607.5521               624.3566
 Red. masses --     8.5277                 7.2254                 6.2723
 Frc consts  --     1.6867                 1.5714                 1.4406
 IR Inten    --     5.4930                 1.0992                 2.3519

                    25                     26                     27
                     A                      A                      A
 Frequencies --   652.1773               704.9406               738.1683
 Red. masses --     7.2391                 4.8624                12.0707
 Frc consts  --     1.8141                 1.4237                 3.8752
 IR Inten    --     0.1918                 1.2793                 0.7252

                    28                     29                     30
                     A                      A                      A
 Frequencies --   749.9477               765.7994               794.6534
 Red. masses --    11.9503                 5.6418                 4.8954
 Frc consts  --     3.9600                 1.9494                 1.8213
 IR Inten    --     0.0119                 8.5151                18.8459

                    31                     32                     33
                     A                      A                      A
 Frequencies --   815.8797               828.0869               854.7203
 Red. masses --     1.2589                11.6333                 1.9934
 Frc consts  --     0.4937                 4.7001                 0.8580
 IR Inten    --     0.7894                40.6486                44.7120

                    34                     35                     36
                     A                      A                      A
 Frequencies --   877.4850               939.6587               948.2648
 Red. masses --     5.8350                 1.3026                 1.3141
 Frc consts  --     2.6471                 0.6776                 0.6962
 IR Inten    --     3.4184                 0.0610                 0.1971

                    37                     38                     39
                     A                      A                      A
 Frequencies --   979.7864               997.5122              1033.1882
 Red. masses --     7.4685                13.7718                 3.7159
 Frc consts  --     4.2242                 8.0738                 2.3371
 IR Inten    --    12.2306                 0.2412                 7.0991

                    40                     41                     42
                     A                      A                      A
 Frequencies --  1038.2949              1121.7480              1131.6849
 Red. masses --     3.9166                 1.2524                 4.9158
 Frc consts  --     2.4877                 0.9285                 3.7093
 IR Inten    --     4.6536                 9.6704               100.2954

                    43                     44                     45
                     A                      A                      A
 Frequencies --  1160.2548              1180.2168              1184.8529
 Red. masses --     3.6099                 1.1350                 1.2657
 Frc consts  --     2.8632                 0.9315                 1.0469
 IR Inten    --   152.2917                 5.9029                 0.3641

                    46                     47                     48
                     A                      A                      A
 Frequencies --  1185.4626              1218.3391              1235.1908
 Red. masses --     1.2662                 1.6755                 2.1582
 Frc consts  --     1.0484                 1.4653                 1.9400
 IR Inten    --     1.0696                11.4641               203.3565

                    49                     50                     51
                     A                      A                      A
 Frequencies --  1248.2394              1293.1117              1316.8995
 Red. masses --     2.7945                 7.6613                 3.5391
 Frc consts  --     2.5654                 7.5479                 3.6162
 IR Inten    --   526.5913                 3.7707                 0.8393

                    52                     53                     54
                     A                      A                      A
 Frequencies --  1319.2101              1351.0622              1410.9666
 Red. masses --     1.7028                11.4323                 4.6403
 Frc consts  --     1.7460                12.2951                 5.4429
 IR Inten    --     1.7507                 0.5740               799.0950

                    55                     56                     57
                     A                      A                      A
 Frequencies --  1418.6544              1457.9977              1471.8447
 Red. masses --     3.4149                 3.2679                 1.7290
 Frc consts  --     4.0493                 4.0929                 2.2068
 IR Inten    --   728.3454                 3.4804                58.1782

                    58                     59                     60
                     A                      A                      A
 Frequencies --  1512.1898              1512.3327              1518.4574
 Red. masses --     1.0482                 1.0479                 1.2652
 Frc consts  --     1.4122                 1.4121                 1.7188
 IR Inten    --     5.8783                 6.5530               118.6495

                    61                     62                     63
                     A                      A                      A
 Frequencies --  1521.7904              1524.9137              1555.6891
 Red. masses --     1.0893                 1.2918                 2.8025
 Frc consts  --     1.4863                 1.7698                 3.9961
 IR Inten    --    14.3722                24.7370               321.9222

                    64                     65                     66
                     A                      A                      A
 Frequencies --  1566.9292              1611.3961              1624.0425
 Red. masses --     3.4977                 8.7975                 9.7198
 Frc consts  --     5.0597                13.4591                15.1043
 IR Inten    --    15.5830               656.2830               708.2116

                    67                     68                     69
                     A                      A                      A
 Frequencies --  1660.7227              1669.9171              3076.6922
 Red. masses --     7.6838                 6.2585                 1.0292
 Frc consts  --    12.4859                10.2827                 5.7403
 IR Inten    --     3.9541                26.6260                43.5736

                    70                     71                     72
                     A                      A                      A
 Frequencies --  3077.0827              3153.2988              3153.9241
 Red. masses --     1.0292                 1.1077                 1.1078
 Frc consts  --     5.7416                 6.4895                 6.4923
 IR Inten    --    28.9431                16.9565                20.6954

                    73                     74                     75
                     A                      A                      A
 Frequencies --  3181.3593              3181.4201              3218.1900
 Red. masses --     1.1075                 1.1074                 1.0887
 Frc consts  --     6.6043                 6.6040                 6.6432
 IR Inten    --    26.1689                17.4288                 6.9479

                    76                     77                     78
                     A                      A                      A
 Frequencies --  3222.4851              3231.9635              3236.2719
 Red. masses --     1.0891                 1.0954                 1.0954
 Frc consts  --     6.6632                 6.7414                 6.7595
 IR Inten    --     3.9835                 3.3079                 1.6541

 - Thermochemistry -
 -------------------
 Temperature   298.150 Kelvin.  Pressure   1.00000 Atm.
 Atom     1 has atomic number  6 and mass  12.00000

 Molecular mass:   251.07062 amu.
 Principal axes and moments of inertia in atomic units:
                           1         2         3
     Eigenvalues --  2276.829948703.58066**********
           X            1.00000  -0.00181  -0.00093
           Y            0.00182   0.99998   0.00524
           Z            0.00093  -0.00525   0.99999
 This molecule is an asymmetric top.
 Rotational symmetry number  1.
 Warning -- assumption of classical behavior for rotation
           may cause significant error
 Rotational temperatures (Kelvin)      0.03804     0.00995     0.00830
 Rotational constants (GHZ):           0.79266     0.20736     0.17301
 Zero-point vibrational energy     547419.7 (Joules/Mol)
                                  130.83644 (Kcal/Mol)
 Warning -- explicit consideration of  23 degrees of freedom as
           vibrations may cause significant error
 Vibrational temperatures:     24.84    46.80    76.95   145.72   161.82
          (Kelvin)            214.96   223.20   233.59   250.70   288.09
                              320.28   334.28   363.81   476.61   484.48
                              533.76   621.67   636.14   664.58   716.68
                              770.20   833.64   874.13   898.31   938.34
                             1014.25  1062.06  1079.01  1101.81  1143.33
                             1173.87  1191.43  1229.75  1262.50  1351.96
                             1364.34  1409.69  1435.20  1486.53  1493.87
                             1613.94  1628.24  1669.35  1698.07  1704.74
                             1705.61  1752.92  1777.16  1795.94  1860.50
                             1894.72  1898.05  1943.87  2030.06  2041.12
                             2097.73  2117.65  2175.70  2175.91  2184.72
                             2189.51  2194.01  2238.29  2254.46  2318.44
                             2336.63  2389.41  2402.64  4426.67  4427.23
                             4536.89  4537.79  4577.26  4577.35  4630.25
                             4636.43  4650.07  4656.27

 Zero-point correction=                           0.208501 (Hartree/Particle)
 Thermal correction to Energy=                    0.224142
 Thermal correction to Enthalpy=                  0.225086
 Thermal correction to Gibbs Free Energy=         0.163283
 Sum of electronic and zero-point Energies=           -914.750470
 Sum of electronic and thermal Energies=              -914.734830
 Sum of electronic and thermal Enthalpies=            -914.733885
 Sum of electronic and thermal Free Energies=         -914.795689

                     E (Thermal)             CV                S
                      KCal/Mol        Cal/Mol-Kelvin    Cal/Mol-Kelvin
 Total                  140.651             57.718            130.076
 Electronic               0.000              0.000              0.000
 Translational            0.889              2.981             42.462
 Rotational               0.889              2.981             33.691
 Vibrational            138.874             51.756             53.923
 Vibration     1          0.593              1.986              6.927
 Vibration     2          0.594              1.983              5.669
 Vibration     3          0.596              1.976              4.684
 Vibration     4          0.604              1.948              3.430
 Vibration     5          0.607              1.939              3.226
 Vibration     6          0.618              1.903              2.680
 Vibration     7          0.620              1.897              2.608
 Vibration     8          0.622              1.889              2.522
 Vibration     9          0.627              1.874              2.389
 Vibration    10          0.638              1.840              2.131
 Vibration    11          0.648              1.807              1.938
 Vibration    12          0.653              1.791              1.861
 Vibration    13          0.664              1.758              1.711
 Vibration    14          0.714              1.613              1.254
 Vibration    15          0.717              1.602              1.228
 Vibration    16          0.743              1.532              1.076
 Vibration    17          0.793              1.400              0.852
 Vibration    18          0.802              1.378              0.820
 Vibration    19          0.820              1.335              0.761
 Vibration    20          0.854              1.254              0.663
 Vibration    21          0.890              1.172              0.575
 Vibration    22          0.936              1.076              0.486
 Vibration    23          0.966              1.016              0.437

 Optimization completed.
    -- Stationary point found.
 Normal termination of Gaussian 09 at Tue Sep 28 19:43:12 2021.
 Gaussian 09:  AM64L-G09RevA.02 11-Jun-2009

 ----------------------------------------------------------------------
 #p TD(NStates=10, Root=1) b3lyp/6-31G* volume pop=NPA density=current
 Geom=AllCheck Guess=Read
 ----------------------------------------------------------------------

 COc1nc(Oc2ccc(cc2)F)nc(n1)OC_conf_0
 -----------------------------------
 Redundant internal coordinates taken from checkpoint file:
 C11H10FN3O3_5e60_conf_0.chk
 Charge =  0 Multiplicity = 1

                         Standard orientation:
 ---------------------------------------------------------------------
 Center     Atomic      Atomic             Coordinates (Angstroms)
 Number     Number       Type             X           Y           Z
 ---------------------------------------------------------------------
      1          6           0       -2.821168    3.401912   -0.245063
      2          8           0       -1.599672    2.649059   -0.196463
      3          6           0       -1.698676    1.323850   -0.106142
      4          7           0       -0.515129    0.688907   -0.068226
      5          6           0       -0.632820   -0.626990    0.022002
      6          8           0        0.472297   -1.396841    0.061632
      7          6           0        1.744938   -0.817606    0.046983
      8          6           0        2.209956   -0.072410    1.129072
      9          6           0        3.520446    0.400653    1.119425
     10          6           0        4.334712    0.108442    0.029774
     11          6           0        3.882442   -0.641583   -1.048901
     12          6           0        2.567858   -1.109374   -1.036687
     13          9           0        5.605114    0.564700    0.023608
     14          7           0       -1.768347   -1.335258    0.076333
     15          6           0       -2.861976   -0.576995    0.028629
     16          7           0       -2.903006    0.760817   -0.062540
     17          8           0       -4.060231   -1.157379    0.073741
     18          6           0       -4.099383   -2.589390    0.172508
     19          1           0       -2.506282    4.443422   -0.318329
     20          1           0       -3.412864    3.240764    0.659694
     21          1           0       -3.418252    3.117747   -1.115336
     22          1           0        1.552130    0.139926    1.964181
     23          1           0        3.915221    0.987674    1.941783
     24          1           0        4.550774   -0.851090   -1.877204
     25          1           0        2.177955   -1.702203   -1.857468
     26          1           0       -5.160434   -2.840413    0.193580
     27          1           0       -3.604860   -2.929481    1.085935
     28          1           0       -3.611164   -3.051675   -0.689154
 ---------------------------------------------------------------------

 SCF Done:  E(RB3LYP) =  -914.958971554     A.U. after    1 cycles

 Excitation energies and oscillator strengths:

 Excited State   1:      Singlet-A      5.2210 eV  237.47 nm  f=0.0591  <S**2>=0.000
      64 -> 66         0.15352
      64 -> 69         0.19114
      65 -> 66         0.53896
      65 -> 67         0.34238
 This state for optimization and/or second-order correction.
 Total Energy, E(TD-HF/TD-KS) =  -914.767104617
 Copying the excited state density for this state as the 1-particle RhoCI density.

 Excited State   2:      Singlet-A      5.2762 eV  234.99 nm  f=0.0365  <S**2>=0.000
      60 -> 66         0.10230
      64 -> 69         0.15484
      65 -> 66        -0.39763
      65 -> 67         0.50077
      65 -> 68         0.16471

 Excited State   3:      Singlet-A      5.4511 eV  227.45 nm  f=0.0046  <S**2>=0.000
      60 -> 67         0.11820
      60 -> 68        -0.10439
      64 -> 67        -0.10704
      64 -> 69         0.14523
      65 -> 67        -0.24109
      65 -> 68         0.59613

 Excited State   4:      Singlet-A      5.7108 eV  217.10 nm  f=0.0091  <S**2>=0.000
      60 -> 66         0.36462
      61 -> 66        -0.23338
      61 -> 67         0.35621
      61 -> 68        -0.20367
      62 -> 66         0.17606
      62 -> 68        -0.10799
      63 -> 66        -0.11151
      64 -> 66        -0.15642
      65 -> 66         0.12580

 Excited State   5:      Singlet-A      5.7747 eV  214.70 nm  f=0.0080  <S**2>=0.000
      60 -> 66         0.19791
      61 -> 66         0.46759
      61 -> 67        -0.19619
      61 -> 69        -0.10497
      62 -> 66         0.26787
      64 -> 66        -0.28574
      65 -> 66         0.10437

 Excited State   6:      Singlet-A      5.8217 eV  212.97 nm  f=0.0028  <S**2>=0.000
      60 -> 66        -0.19387
      60 -> 67         0.13566
      61 -> 66         0.32295
      61 -> 67         0.16547
      61 -> 68        -0.22290
      62 -> 66        -0.11974
      62 -> 67         0.31668
      62 -> 68        -0.19766
      63 -> 66        -0.18215
      63 -> 68         0.11613
      64 -> 67        -0.14684

 Excited State   7:      Singlet-A      5.8694 eV  211.24 nm  f=0.0026  <S**2>=0.000
      60 -> 66        -0.16470
      61 -> 66         0.18141
      61 -> 67         0.32518
      61 -> 68        -0.30126
      62 -> 67        -0.24582
      62 -> 68         0.16060
      63 -> 66         0.33259
      63 -> 68        -0.12202

 Excited State   8:      Singlet-A      5.9613 eV  207.98 nm  f=0.0039  <S**2>=0.000
      60 -> 67         0.40305
      60 -> 68        -0.28236
      63 -> 66         0.29810
      64 -> 67        -0.23047
      64 -> 68         0.16954
      65 -> 67         0.13279
      65 -> 68        -0.15585

 Excited State   9:      Singlet-A      6.1360 eV  202.06 nm  f=0.0258  <S**2>=0.000
      60 -> 68         0.13714
      64 -> 67        -0.35313
      64 -> 68        -0.18089
      65 -> 69         0.52598

 Excited State  10:      Singlet-A      6.1563 eV  201.39 nm  f=0.0112  <S**2>=0.000
      60 -> 66         0.23976
      61 -> 66         0.12302
      62 -> 66         0.21833
      64 -> 66         0.54548
      64 -> 69        -0.17475
      65 -> 68        -0.10736

 The electronic state is 1-A.
 Alpha  occ. eigenvalues --  -24.70415 -19.20695 -19.19981 -19.19856 -14.33728
 Alpha  occ. eigenvalues --  -14.33601 -14.33597 -10.33085 -10.32722 -10.32641
 Alpha  occ. eigenvalues --  -10.27398 -10.25654 -10.24446 -10.24326 -10.20519
 Alpha  occ. eigenvalues --  -10.20466 -10.20240 -10.20228  -1.21571  -1.11644
 Alpha  occ. eigenvalues --   -1.10188  -1.09673  -0.99908  -0.90265  -0.90004
 Alpha  occ. eigenvalues --   -0.86516  -0.76504  -0.76069  -0.74427  -0.73330
 Alpha  occ. eigenvalues --   -0.67567  -0.63813  -0.63229  -0.60735  -0.58467
 Alpha  occ. eigenvalues --   -0.56811  -0.54319  -0.52460  -0.51290  -0.50935
 Alpha  occ. eigenvalues --   -0.49744  -0.47812  -0.46223  -0.45776  -0.45001
 Alpha  occ. eigenvalues --   -0.44848  -0.44016  -0.43856  -0.43080  -0.41441
 Alpha  occ. eigenvalues --   -0.40227  -0.39091  -0.38240  -0.37552  -0.36206
 Alpha  occ. eigenvalues --   -0.35881  -0.35498  -0.35133  -0.30830  -0.28236
 Alpha  occ. eigenvalues --   -0.28028  -0.27933  -0.27524  -0.26355  -0.23819
 Alpha virt. eigenvalues --   -0.01895  -0.01762  -0.01020   0.00491   0.08148
 Alpha virt. eigenvalues --    0.11105   0.11546   0.12463   0.12562   0.13489
 Alpha virt. eigenvalues --    0.13849   0.14661   0.15417   0.15454   0.15662

 Mulliken atomic charges:
              1
     1  C   -0.201939
     2  O   -0.473975
     3  C    0.648041
     4  N   -0.510777
     5  C    0.598290
     6  O   -0.522282
     7  C    0.393144
     8  C   -0.107384
     9  C   -0.216727
    10  C    0.407805
    11  C   -0.196031
    12  C   -0.161847
    13  F   -0.256386
    14  N   -0.543956
    15  C    0.671764
    16  N   -0.549652
    17  O   -0.463732
    18  C   -0.203687
    19  H    0.155442
    20  H    0.165303
    21  H    0.166457
    22  H    0.187771
    23  H    0.171698
    24  H    0.175502
    25  H    0.175058
    26  H    0.160322
    27  H    0.165702
    28  H    0.166078
 Sum of Mulliken atomic charges =  -0.00000

 Dipole moment (field-independent basis, Debye):
    X=              3.9398    Y=             -0.8925    Z=              0.2844  Tot=              4.0497
 Quadrupole moment (field-independent basis, Debye-Ang):
   XX=            -91.7762   YY=            -95.3993   ZZ=            -93.6842
   XY=             -0.3031   XZ=             -1.0929   YZ=              3.0007

 Summary of Natural Population Analysis:

                                       Natural Population
                Natural  -----------------------------------------------
    Atom  No    Charge         Core      Valence    Rydberg      Total
 -----------------------------------------------------------------------
      C    1   -0.31695      1.99941     4.30387    0.01366     6.31695
      O    2   -0.51644      1.99972     6.50457    0.01215     8.51644
      C    3    0.71433      1.99922     3.25003    0.03641     5.28567
      N    4   -0.56977      1.99922     5.55086    0.01969     7.56977
      C    5    0.64993      1.99916     3.31449    0.03643     5.35007
      O    6   -0.49107      1.99966     6.47905    0.01236     8.49107
      C    7    0.40055      1.99871     3.57729    0.02345     5.59945
      C    8   -0.20636      1.99900     4.19154    0.01582     6.20636
      C    9   -0.32662      1.99903     4.30984    0.01775     6.32662
      C   10    0.48144      1.99846     3.49307    0.02704     5.51856
      C   11   -0.26903      1.99903     4.25309    0.01691     6.26903
      C   12   -0.28580      1.99901     4.26865    0.01814     6.28580
      F   13   -0.29021      1.99994     7.28459    0.00568     9.29021
      N   14   -0.63095      1.99925     5.61009    0.02161     7.63095
      C   15    0.76883      1.99922     3.19508    0.03687     5.23117
      N   16   -0.64857      1.99926     5.62715    0.02216     7.64857
      O   17   -0.50674      1.99972     6.49500    0.01202     8.50674
      C   18   -0.31836      1.99941     4.30543    0.01352     6.31836
      H   19    0.21708      0.00000     0.78226    0.00066     0.78292
      H   20    0.21672      0.00000     0.78180    0.00148     0.78328
      H   21    0.21740      0.00000     0.78110    0.00150     0.78260
      H   22    0.26956      0.00000     0.72970    0.00074     0.73044
      H   23    0.26149      0.00000     0.73746    0.00105     0.73851
      H   24    0.26023      0.00000     0.73870    0.00107     0.73977
      H   25    0.26476      0.00000     0.73429    0.00095     0.73524
      H   26    0.21986      0.00000     0.77949    0.00065     0.78014
      H   27    0.21724      0.00000     0.78116    0.00160     0.78276
      H   28    0.21747      0.00000     0.78092    0.00161     0.78253
 =======================================================================
   * Total *    0.00000     35.98644    93.64059    0.37297   130.00000

 Normal termination of Gaussian 09 at Wed Sep 29 00:39:21 2021.
