 Gaussian 09, Revision A.02,

 -----------------------------------
 #p opt b3lyp/6-31G* scf=(xqc,tight)
 -----------------------------------

 ------------------------------
 Fc1ccccc1B1OCC(CO1)(C)C_conf_0
 ------------------------------
 Symbolic Z-matrix:
 Charge =  0 Multiplicity = 1

 SCF Done:  E(RB3LYP) =  -702.810004345     A.U. after   14 cycles
 SCF Done:  E(RB3LYP) =  -702.827031074     A.U. after   12 cycles
 SCF Done:  E(RB3LYP) =  -702.841688298     A.U. after   15 cycles
 SCF Done:  E(RB3LYP) =  -702.848138715     A.U. after   13 cycles
 SCF Done:  E(RB3LYP) =  -702.850975024     A.U. after   12 cycles
 SCF Done:  E(RB3LYP) =  -702.850631971     A.U. after   12 cycles
 SCF Done:  E(RB3LYP) =  -702.851531682     A.U. after   11 cycles
 SCF Done:  E(RB3LYP) =  -702.851541171     A.U. after    9 cycles
 SCF Done:  E(RB3LYP) =  -702.851541667     A.U. after    8 cycles
 SCF Done:  E(RB3LYP) =  -702.851541495     A.U. after    8 cycles
 SCF Done:  E(RB3LYP) =  -702.851541331     A.U. after    7 cycles
 SCF Done:  E(RB3LYP) =  -702.851541358     A.U. after    7 cycles
 Optimization completed.
    -- Stationary point found.
 Normal termination of Gaussian 09 at Tue Oct  5 17:01:00 2021.

 ----------------------------------------------------------------------
 #p freq b3lyp/6-31G* volume NMR pop=NPA density=current Geom=AllCheck
 Guess=Read
 ----------------------------------------------------------------------

 Fc1ccccc1B1OCC(CO1)(C)C_conf_0
 ------------------------------
 Redundant internal coordinates taken from checkpoint file:
 C11H14BFO2_2711_conf_0.chk
 Charge =  0 Multiplicity = 1

 SCF Done:  E(RB3LYP) =  -702.851541358     A.U. after    1 cycles

  1  F    Isotropic =   285.8438   Anisotropy =   133.2061

  2  C    Isotropic =    27.4873   Anisotropy =    99.1406

  3  C    Isotropic =    80.4580   Anisotropy =   134.9849

  4  C    Isotropic =    64.1458   Anisotropy =   166.7440

  5  C    Isotropic =    74.4440   Anisotropy =   159.1313

  6  C    Isotropic =    58.6547   Anisotropy =   177.1335

  7  C    Isotropic =    76.5537   Anisotropy =   161.3328

  8  B    Isotropic =    86.5659   Anisotropy =    15.0005

  9  O    Isotropic =   225.7842   Anisotropy =   165.9457

 10  C    Isotropic =   119.1291   Anisotropy =    42.1543

 11  C    Isotropic =   157.1976   Anisotropy =    13.8134

 12  C    Isotropic =   118.9992   Anisotropy =    42.2555

 13  O    Isotropic =   232.2898   Anisotropy =   157.0272

 14  C    Isotropic =   166.9168   Anisotropy =    32.4651

 15  C    Isotropic =   166.2913   Anisotropy =    37.8357

 16  H    Isotropic =    25.5569   Anisotropy =     5.2760

 17  H    Isotropic =    24.9763   Anisotropy =     4.1358

 18  H    Isotropic =    25.2972   Anisotropy =     4.6252

 19  H    Isotropic =    24.3944   Anisotropy =     9.5435

 20  H    Isotropic =    28.3451   Anisotropy =     5.2426

 21  H    Isotropic =    28.1555   Anisotropy =     5.8306

 22  H    Isotropic =    28.3988   Anisotropy =     5.2873

 23  H    Isotropic =    28.1880   Anisotropy =     5.8415

 24  H    Isotropic =    30.2378   Anisotropy =     5.7012

 25  H    Isotropic =    31.3657   Anisotropy =     8.8542

 26  H    Isotropic =    31.3998   Anisotropy =     8.8509

 27  H    Isotropic =    31.5501   Anisotropy =     9.2827

 28  H    Isotropic =    31.3128   Anisotropy =     8.7233

 29  H    Isotropic =    31.2893   Anisotropy =     8.7266

  Exact polarizability: 178.148   3.176 127.254  -6.983   0.408  79.175
 Approx polarizability: 230.028   3.754 214.877 -11.870   0.867 116.895

                     1                      2                      3
                     A                      A                      A
 Frequencies --    20.2183                50.1553               103.0025
 Red. masses --     4.8260                 4.2426                 4.8967
 Frc consts  --     0.0012                 0.0063                 0.0306
 IR Inten    --     0.2362                 1.1301                 1.6638

                     4                      5                      6
                     A                      A                      A
 Frequencies --   130.2609               138.4544               190.2690
 Red. masses --     4.2705                 3.7741                 1.0954
 Frc consts  --     0.0427                 0.0426                 0.0234
 IR Inten    --     0.3993                 0.1856                 0.2248

                     7                      8                      9
                     A                      A                      A
 Frequencies --   218.2458               222.3337               241.0700
 Red. masses --     3.0889                 1.5469                 3.8894
 Frc consts  --     0.0867                 0.0451                 0.1332
 IR Inten    --     1.9032                 0.7245                 0.4503

                    10                     11                     12
                     A                      A                      A
 Frequencies --   266.4541               272.1906               308.7024
 Red. masses --     2.0063                 4.7626                 4.0094
 Frc consts  --     0.0839                 0.2079                 0.2251
 IR Inten    --     0.2745                 2.0669                 0.9666

                    13                     14                     15
                     A                      A                      A
 Frequencies --   355.8504               397.3719               412.1981
 Red. masses --     2.4443                 2.5473                 2.0410
 Frc consts  --     0.1824                 0.2370                 0.2043
 IR Inten    --     0.2852                 0.0489                 0.4297

                    16                     17                     18
                     A                      A                      A
 Frequencies --   445.7754               478.3893               506.5736
 Red. masses --     3.7257                 4.9864                 5.4768
 Frc consts  --     0.4362                 0.6724                 0.8281
 IR Inten    --     0.7599                 3.2161                 4.7443

                    19                     20                     21
                     A                      A                      A
 Frequencies --   532.9851               543.1592               570.1542
 Red. masses --     3.6241                 6.3803                 5.5591
 Frc consts  --     0.6066                 1.1090                 1.0647
 IR Inten    --     5.5805                 2.6400                 1.9992

                    22                     23                     24
                     A                      A                      A
 Frequencies --   644.9143               662.5769               716.7583
 Red. masses --     6.3581                 5.9234                 6.5444
 Frc consts  --     1.5581                 1.5321                 1.9809
 IR Inten    --    22.8764                16.6981                 5.6878

                    25                     26                     27
                     A                      A                      A
 Frequencies --   751.7186               778.7305               817.5967
 Red. masses --     5.3704                 1.2709                 3.6620
 Frc consts  --     1.7880                 0.4541                 1.4423
 IR Inten    --     8.7039                44.2862                 5.7737

                    28                     29                     30
                     A                      A                      A
 Frequencies --   841.4753               877.1493               922.4741
 Red. masses --     6.4542                 1.3743                 1.8884
 Frc consts  --     2.6926                 0.6230                 0.9468
 IR Inten    --    13.8864                 1.7608                 3.0718

                    31                     32                     33
                     A                      A                      A
 Frequencies --   938.5428               960.4620               964.5634
 Red. masses --     2.2076                 1.3323                 1.3298
 Frc consts  --     1.1457                 0.7241                 0.7289
 IR Inten    --     3.9216                 0.5106                 1.2953

                    34                     35                     36
                     A                      A                      A
 Frequencies --   965.8290               990.0719               990.6831
 Red. masses --     1.4589                 1.2752                 4.3488
 Frc consts  --     0.8018                 0.7365                 2.5147
 IR Inten    --     0.8353                 0.1140                 0.5195

                    37                     38                     39
                     A                      A                      A
 Frequencies --  1029.9775              1056.0296              1063.3517
 Red. masses --     3.2404                 2.1112                 1.7374
 Frc consts  --     2.0254                 1.3872                 1.1574
 IR Inten    --     1.2041                14.1618                 1.1671

                    40                     41                     42
                     A                      A                      A
 Frequencies --  1072.0172              1130.8560              1173.2788
 Red. masses --     2.0346                 2.0272                 2.6545
 Frc consts  --     1.3776                 1.5274                 2.1529
 IR Inten    --     1.9008                25.7374               138.9705

                    43                     44                     45
                     A                      A                      A
 Frequencies --  1189.1096              1220.9604              1248.9596
 Red. masses --     1.1754                 2.4135                 1.9727
 Frc consts  --     0.9792                 2.1199                 1.8130
 IR Inten    --    33.8479                 1.8300                 0.6824

                    46                     47                     48
                     A                      A                      A
 Frequencies --  1258.2285              1268.1313              1279.3131
 Red. masses --     1.5278                 2.8384                 2.3268
 Frc consts  --     1.4251                 2.6894                 2.2437
 IR Inten    --     1.9932                40.8248                63.4448

                    49                     50                     51
                     A                      A                      A
 Frequencies --  1296.3529              1322.5143              1339.9902
 Red. masses --     1.9103                 1.8416                 3.5005
 Frc consts  --     1.8914                 1.8977                 3.7033
 IR Inten    --   117.9871                66.1821               440.7400

                    52                     53                     54
                     A                      A                      A
 Frequencies --  1349.6968              1358.1794              1430.8296
 Red. masses --     1.5681                 4.8157                 1.2639
 Frc consts  --     1.6831                 5.2339                 1.5246
 IR Inten    --     2.8561               255.1285                 3.3859

                    55                     56                     57
                     A                      A                      A
 Frequencies --  1434.9869              1462.2124              1464.7014
 Red. masses --     1.3205                 1.7589                 1.3235
 Frc consts  --     1.6021                 2.2157                 1.6729
 IR Inten    --     2.7104                19.0161                11.1698

                    58                     59                     60
                     A                      A                      A
 Frequencies --  1496.3738              1516.0291              1517.9816
 Red. masses --     2.2765                 1.0503                 1.0538
 Frc consts  --     3.0033                 1.4223                 1.4307
 IR Inten    --   111.1628                 0.5707                 2.3496

                    61                     62                     63
                     A                      A                      A
 Frequencies --  1532.7963              1534.8498              1537.7397
 Red. masses --     2.5434                 1.0579                 1.0815
 Frc consts  --     3.5207                 1.4683                 1.5067
 IR Inten    --    42.0239                 5.0919                 0.2711

                    64                     65                     66
                     A                      A                      A
 Frequencies --  1545.6626              1551.9436              1630.5919
 Red. masses --     1.1707                 1.0995                 5.8829
 Frc consts  --     1.6478                 1.5603                 9.2158
 IR Inten    --    49.6287                 3.9330                31.8220

                    67                     68                     69
                     A                      A                      A
 Frequencies --  1666.0826              3026.6249              3033.4696
 Red. masses --     6.4568                 1.0638                 1.0594
 Frc consts  --    10.5600                 5.7416                 5.7439
 IR Inten    --    82.4063                30.7908                54.1512

                    70                     71                     72
                     A                      A                      A
 Frequencies --  3043.1365              3052.1354              3082.2640
 Red. masses --     1.0382                 1.0391                 1.1014
 Frc consts  --     5.6646                 5.7032                 6.1648
 IR Inten    --    60.5947                20.2791                29.3734

                    73                     74                     75
                     A                      A                      A
 Frequencies --  3087.0570              3108.9492              3110.0082
 Red. masses --     1.1020                 1.1027                 1.1023
 Frc consts  --     6.1873                 6.2795                 6.2816
 IR Inten    --    28.5853                 6.7055                34.2276

                    76                     77                     78
                     A                      A                      A
 Frequencies --  3114.6374              3134.0922              3186.9053
 Red. masses --     1.1019                 1.1003                 1.0858
 Frc consts  --     6.2978                 6.3674                 6.4974
 IR Inten    --    53.5612                26.2505                 2.5238

                    79                     80                     81
                     A                      A                      A
 Frequencies --  3201.0385              3214.2422              3221.1405
 Red. masses --     1.0906                 1.0934                 1.0952
 Frc consts  --     6.5840                 6.6557                 6.6950
 IR Inten    --    17.5090                18.2832                 8.7314

 - Thermochemistry -
 -------------------
 Temperature   298.150 Kelvin.  Pressure   1.00000 Atm.
 Atom     1 has atomic number  9 and mass  18.99840

 Molecular mass:   208.10709 amu.
 Principal axes and moments of inertia in atomic units:
                           1         2         3
     Eigenvalues --  1229.144165431.800976203.74232
           X            0.99996   0.00890   0.00132
           Y           -0.00890   0.99996   0.00010
           Z           -0.00132  -0.00011   1.00000
 This molecule is an asymmetric top.
 Rotational symmetry number  1.
 Warning -- assumption of classical behavior for rotation
           may cause significant error
 Rotational temperatures (Kelvin)      0.07047     0.01595     0.01396
 Rotational constants (GHZ):           1.46829     0.33225     0.29091
 Zero-point vibrational energy     626979.5 (Joules/Mol)
                                  149.85170 (Kcal/Mol)
 Warning -- explicit consideration of  21 degrees of freedom as
           vibrations may cause significant error
 Vibrational temperatures:     29.09    72.16   148.20   187.42   199.20
          (Kelvin)            273.75   314.01   319.89   346.85   383.37
                              391.62   444.15   511.99   571.73   593.06
                              641.37   688.29   728.85   766.85   781.48
                              820.32   927.89   953.30  1031.25  1081.55
                             1120.42  1176.34  1210.69  1262.02  1327.23
                             1350.35  1381.89  1387.79  1389.61  1424.49
                             1425.37  1481.91  1519.39  1529.92  1542.39
                             1627.05  1688.08  1710.86  1756.69  1796.97
                             1810.31  1824.56  1840.64  1865.16  1902.80
                             1927.94  1941.91  1954.11  2058.64  2064.62
                             2103.79  2107.38  2152.95  2181.23  2184.03
                             2205.35  2208.30  2212.46  2223.86  2232.90
                             2346.06  2397.12  4354.63  4364.48  4378.39
                             4391.34  4434.68  4441.58  4473.08  4474.60
                             4481.26  4509.25  4585.24  4605.57  4624.57
                             4634.50

 Zero-point correction=                           0.238804 (Hartree/Particle)
 Thermal correction to Energy=                    0.252576
 Thermal correction to Enthalpy=                  0.253520
 Thermal correction to Gibbs Free Energy=         0.197647
 Sum of electronic and zero-point Energies=           -702.612737
 Sum of electronic and thermal Energies=              -702.598965
 Sum of electronic and thermal Enthalpies=            -702.598021
 Sum of electronic and thermal Free Energies=         -702.653894

                     E (Thermal)             CV                S
                      KCal/Mol        Cal/Mol-Kelvin    Cal/Mol-Kelvin
 Total                  158.494             53.127            117.595
 Electronic               0.000              0.000              0.000
 Translational            0.889              2.981             41.903
 Rotational               0.889              2.981             32.094
 Vibrational            156.716             47.166             43.599
 Vibration     1          0.593              1.986              6.613
 Vibration     2          0.595              1.978              4.811
 Vibration     3          0.605              1.947              3.397
 Vibration     4          0.612              1.923              2.942
 Vibration     5          0.614              1.915              2.825
 Vibration     6          0.634              1.853              2.225
 Vibration     7          0.646              1.813              1.974
 Vibration     8          0.648              1.807              1.940
 Vibration     9          0.658              1.777              1.795
 Vibration    10          0.672              1.735              1.619
 Vibration    11          0.675              1.725              1.582
 Vibration    12          0.698              1.657              1.369
 Vibration    13          0.731              1.563              1.140
 Vibration    14          0.764              1.476              0.972
 Vibration    15          0.776              1.444              0.919
 Vibration    16          0.805              1.370              0.809
 Vibration    17          0.835              1.298              0.714
 Vibration    18          0.862              1.235              0.642
 Vibration    19          0.888              1.177              0.581
 Vibration    20          0.898              1.155              0.559
 Vibration    21          0.926              1.096              0.504

 Normal termination of Gaussian 09 at Tue Oct  5 17:12:25 2021.
 Gaussian 09:  AM64L-G09RevA.02 11-Jun-2009

 ----------------------------------------------------------------------
 #p TD(NStates=10, Root=1) b3lyp/6-31G* volume pop=NPA density=current
 Geom=AllCheck Guess=Read
 ----------------------------------------------------------------------

 Fc1ccccc1B1OCC(CO1)(C)C_conf_0
 ------------------------------
 Redundant internal coordinates taken from checkpoint file:
 C11H14BFO2_2711_conf_0.chk
 Charge =  0 Multiplicity = 1

                         Standard orientation:
 ---------------------------------------------------------------------
 Center     Atomic      Atomic             Coordinates (Angstroms)
 Number     Number       Type             X           Y           Z
 ---------------------------------------------------------------------
      1          9           0       -1.760380    2.166232   -0.043243
      2          6           0       -2.275956    0.918986   -0.005562
      3          6           0       -3.656425    0.812109    0.134030
      4          6           0       -4.232527   -0.456437    0.177452
      5          6           0       -3.426389   -1.593756    0.080848
      6          6           0       -2.047553   -1.450786   -0.058357
      7          6           0       -1.424066   -0.187630   -0.105530
      8          5           0        0.133993   -0.096644   -0.262250
      9          8           0        0.768254    1.112417   -0.295399
     10          6           0        2.186260    1.177870   -0.451669
     11          6           0        2.909853   -0.054785    0.118193
     12          6           0        2.236475   -1.291568   -0.501609
     13          8           0        0.817563   -1.284654   -0.343625
     14          6           0        2.793231   -0.088755    1.653565
     15          6           0        4.388424   -0.016712   -0.296326
     16          1           0       -4.251943    1.716537    0.205805
     17          1           0       -5.309568   -0.553732    0.286163
     18          1           0       -3.872322   -2.583858    0.113802
     19          1           0       -1.418734   -2.332898   -0.133993
     20          1           0        2.521832    2.090980    0.053319
     21          1           0        2.412614    1.286977   -1.521743
     22          1           0        2.608520   -2.210076   -0.032782
     23          1           0        2.467051   -1.348551   -1.574895
     24          1           0        1.751131   -0.117237    1.985295
     25          1           0        3.260123    0.798948    2.096069
     26          1           0        3.298369   -0.973122    2.059528
     27          1           0        4.502805    0.008288   -1.386874
     28          1           0        4.922685   -0.898004    0.078264
     29          1           0        4.886390    0.869570    0.114451
 ---------------------------------------------------------------------

 SCF Done:  E(RB3LYP) =  -702.851541358     A.U. after    1 cycles

 Excitation energies and oscillator strengths:

 Excited State   1:      Singlet-A      5.0351 eV  246.24 nm  f=0.0424  <S**2>=0.000
      54 -> 56         0.15360
      54 -> 57        -0.28771
      55 -> 56         0.61605
      55 -> 57         0.11553
 This state for optimization and/or second-order correction.
 Total Energy, E(TD-HF/TD-KS) =  -702.666505358
 Copying the excited state density for this state as the 1-particle RhoCI density.

 Excited State   2:      Singlet-A      5.7653 eV  215.05 nm  f=0.2336  <S**2>=0.000
      54 -> 56         0.60519
      55 -> 56        -0.20479
      55 -> 57         0.29416

 Excited State   3:      Singlet-A      6.2919 eV  197.05 nm  f=0.0002  <S**2>=0.000
      52 -> 56         0.61987
      53 -> 56        -0.31976

 Excited State   4:      Singlet-A      6.4590 eV  191.96 nm  f=0.0035  <S**2>=0.000
      52 -> 56         0.31554
      53 -> 56         0.61469
      55 -> 57        -0.10343

 Excited State   5:      Singlet-A      6.7463 eV  183.78 nm  f=0.4703  <S**2>=0.000
      53 -> 56         0.11572
      54 -> 56        -0.30249
      54 -> 57        -0.12251
      54 -> 59         0.10615
      55 -> 57         0.56972

 Excited State   6:      Singlet-A      6.8668 eV  180.56 nm  f=0.4153  <S**2>=0.000
      51 -> 56         0.25691
      54 -> 57         0.55481
      55 -> 56         0.22286
      55 -> 57         0.15767
      55 -> 59        -0.15821

 Excited State   7:      Singlet-A      6.8951 eV  179.81 nm  f=0.0737  <S**2>=0.000
      49 -> 56        -0.14292
      50 -> 56        -0.26629
      51 -> 56         0.58167
      54 -> 57        -0.19612

 Excited State   8:      Singlet-A      7.3307 eV  169.13 nm  f=0.0030  <S**2>=0.000
      53 -> 57         0.68417

 Excited State   9:      Singlet-A      7.3568 eV  168.53 nm  f=0.0009  <S**2>=0.000
      49 -> 57         0.10426
      51 -> 57        -0.20880
      52 -> 57         0.64166
      53 -> 57         0.13090

 Excited State  10:      Singlet-A      7.4626 eV  166.14 nm  f=0.0043  <S**2>=0.000
      47 -> 56         0.18479
      49 -> 56         0.39379
      50 -> 56         0.45306
      51 -> 56         0.25869

 The electronic state is 1-A.
 Alpha  occ. eigenvalues --  -24.68752 -19.15338 -19.15101 -10.26124 -10.24120
 Alpha  occ. eigenvalues --  -10.23937 -10.20947 -10.19288 -10.19016 -10.18641
 Alpha  occ. eigenvalues --  -10.18507 -10.18198 -10.18172 -10.16797  -6.77867
 Alpha  occ. eigenvalues --   -1.19955  -1.04489  -1.00480  -0.84662  -0.82586
 Alpha  occ. eigenvalues --   -0.74402  -0.73360  -0.69720  -0.69022  -0.68707
 Alpha  occ. eigenvalues --   -0.60952  -0.59811  -0.57993  -0.52899  -0.50624
 Alpha  occ. eigenvalues --   -0.50496  -0.48948  -0.46938  -0.46714  -0.45755
 Alpha  occ. eigenvalues --   -0.45341  -0.44202  -0.42838  -0.41880  -0.41196
 Alpha  occ. eigenvalues --   -0.40266  -0.39271  -0.38247  -0.37814  -0.37306
 Alpha  occ. eigenvalues --   -0.36138  -0.35281  -0.34618  -0.33520  -0.31942
 Alpha  occ. eigenvalues --   -0.31310  -0.28526  -0.28213  -0.24672  -0.23250
 Alpha virt. eigenvalues --   -0.02041   0.01245   0.06827   0.08539   0.09691
 Alpha virt. eigenvalues --    0.11164   0.12526   0.12637   0.12918   0.14854
 Alpha virt. eigenvalues --    0.15067   0.15626   0.15852   0.17321   0.18399

 Mulliken atomic charges:
              1
     1  F   -0.240838
     2  C    0.306780
     3  C   -0.175275
     4  C   -0.160570
     5  C   -0.092914
     6  C   -0.210595
     7  C    0.011474
     8  B    0.380656
     9  O   -0.443921
    10  C   -0.020397
    11  C    0.017744
    12  C   -0.018058
    13  O   -0.458645
    14  C   -0.450835
    15  C   -0.459583
    16  H    0.152743
    17  H    0.135057
    18  H    0.148583
    19  H    0.157672
    20  H    0.137279
    21  H    0.128521
    22  H    0.135354
    23  H    0.128742
    24  H    0.169470
    25  H    0.141326
    26  H    0.139988
    27  H    0.144069
    28  H    0.147660
    29  H    0.148512
 Sum of Mulliken atomic charges =  -0.00000

 Dipole moment (field-independent basis, Debye):
    X=              0.4285    Y=             -0.8310    Z=              0.1295  Tot=              0.9439
 Quadrupole moment (field-independent basis, Debye-Ang):
   XX=            -70.4523   YY=            -86.1482   ZZ=            -88.1760
   XY=              1.5016   XZ=             -1.3663   YZ=              0.0801

 Summary of Natural Population Analysis:

                                       Natural Population
                Natural  -----------------------------------------------
    Atom  No    Charge         Core      Valence    Rydberg      Total
 -----------------------------------------------------------------------
      F    1   -0.28053      1.99994     7.27475    0.00583     9.28053
      C    2    0.49923      1.99845     3.47485    0.02747     5.50077
      C    3   -0.26496      1.99904     4.24791    0.01801     6.26496
      C    4   -0.29939      1.99916     4.28248    0.01775     6.29939
      C    5   -0.14426      1.99912     4.12931    0.01583     6.14426
      C    6   -0.19630      1.99915     4.18030    0.01685     6.19630
      C    7   -0.45801      1.99888     4.43955    0.01958     6.45801
      B    8    1.01690      1.99906     1.95476    0.02928     3.98310
      O    9   -0.72039      1.99973     6.71151    0.00916     8.72039
      C   10   -0.09003      1.99910     4.07005    0.02087     6.09003
      C   11   -0.12577      1.99912     4.11539    0.01127     6.12577
      C   12   -0.08803      1.99911     4.06822    0.02071     6.08803
      O   13   -0.73298      1.99973     6.72438    0.00888     8.73298
      C   14   -0.67778      1.99938     4.66683    0.01157     6.67778
      C   15   -0.67501      1.99937     4.66578    0.00985     6.67501
      H   16    0.24597      0.00000     0.75269    0.00135     0.75403
      H   17    0.23584      0.00000     0.76337    0.00079     0.76416
      H   18    0.23493      0.00000     0.76423    0.00084     0.76507
      H   19    0.24680      0.00000     0.75183    0.00137     0.75320
      H   20    0.22229      0.00000     0.77631    0.00139     0.77771
      H   21    0.20876      0.00000     0.78886    0.00237     0.79124
      H   22    0.22096      0.00000     0.77764    0.00140     0.77904
      H   23    0.20879      0.00000     0.78891    0.00230     0.79121
      H   24    0.24541      0.00000     0.75377    0.00083     0.75459
      H   25    0.23147      0.00000     0.76757    0.00096     0.76853
      H   26    0.23063      0.00000     0.76840    0.00097     0.76937
      H   27    0.23223      0.00000     0.76654    0.00123     0.76777
      H   28    0.23635      0.00000     0.76257    0.00108     0.76365
      H   29    0.23690      0.00000     0.76202    0.00107     0.76310
 =======================================================================
   * Total *    0.00000     29.98833    79.75080    0.26087   110.00000

 Normal termination of Gaussian 09 at Tue Oct  5 17:33:53 2021.
