 Gaussian 09, Revision A.02,

 -----------------------------------
 #p opt b3lyp/6-31G* scf=(xqc,tight)
 -----------------------------------

 ------------------------------
 O=C(Oc1ccccc1)OC(C)(C)C_conf_0
 ------------------------------
 Symbolic Z-matrix:
 Charge =  0 Multiplicity = 1

 SCF Done:  E(RB3LYP) =  -653.292431079     A.U. after   15 cycles
 SCF Done:  E(RB3LYP) =  -653.295447850     A.U. after   12 cycles
 SCF Done:  E(RB3LYP) =  -653.293636536     A.U. after   13 cycles
 SCF Done:  E(RB3LYP) =  -653.296138953     A.U. after   12 cycles
 SCF Done:  E(RB3LYP) =  -653.296428893     A.U. after   12 cycles
 SCF Done:  E(RB3LYP) =  -653.296738391     A.U. after   12 cycles
 SCF Done:  E(RB3LYP) =  -653.296813464     A.U. after   10 cycles
 SCF Done:  E(RB3LYP) =  -653.296851381     A.U. after   12 cycles
 SCF Done:  E(RB3LYP) =  -653.296883581     A.U. after   11 cycles
 SCF Done:  E(RB3LYP) =  -653.296913561     A.U. after   11 cycles
 SCF Done:  E(RB3LYP) =  -653.296928463     A.U. after   11 cycles
 SCF Done:  E(RB3LYP) =  -653.296930225     A.U. after    8 cycles
 SCF Done:  E(RB3LYP) =  -653.296929874     A.U. after    8 cycles
 Optimization completed.
    -- Stationary point found.
 Normal termination of Gaussian 09 at Thu Sep 30 04:08:59 2021.

 ----------------------------------------------------------------------
 #p freq b3lyp/6-31G* volume NMR pop=NPA density=current Geom=AllCheck
 Guess=Read
 ----------------------------------------------------------------------

 O=C(Oc1ccccc1)OC(C)(C)C_conf_0
 ------------------------------
 Redundant internal coordinates taken from checkpoint file:
 C11H14O3_b7a9_conf_0.chk
 Charge =  0 Multiplicity = 1

 SCF Done:  E(RB3LYP) =  -653.296929874     A.U. after    1 cycles

  1  O    Isotropic =    52.2389   Anisotropy =   370.5285

  2  C    Isotropic =    45.5398   Anisotropy =    91.1935

  3  O    Isotropic =   135.0258   Anisotropy =   133.3803

  4  C    Isotropic =    44.6490   Anisotropy =   109.4247

  5  C    Isotropic =    73.8192   Anisotropy =   154.3067

  6  C    Isotropic =    67.7579   Anisotropy =   164.1785

  7  C    Isotropic =    72.1009   Anisotropy =   163.7200

  8  C    Isotropic =    67.7349   Anisotropy =   164.3148

  9  C    Isotropic =    76.2418   Anisotropy =   141.6703

 10  O    Isotropic =   143.4791   Anisotropy =    69.1817

 11  C    Isotropic =   109.0242   Anisotropy =    71.8119

 12  C    Isotropic =   165.1331   Anisotropy =    35.1199

 13  C    Isotropic =   159.3556   Anisotropy =    41.5623

 14  C    Isotropic =   165.2231   Anisotropy =    35.4503

 15  H    Isotropic =    24.8353   Anisotropy =     8.9301

 16  H    Isotropic =    24.9418   Anisotropy =     4.9248

 17  H    Isotropic =    25.1464   Anisotropy =     3.8883

 18  H    Isotropic =    24.9737   Anisotropy =     4.5110

 19  H    Isotropic =    25.3739   Anisotropy =     6.7236

 20  H    Isotropic =    30.9934   Anisotropy =     7.3254

 21  H    Isotropic =    29.5928   Anisotropy =     5.6709

 22  H    Isotropic =    31.2136   Anisotropy =     8.2243

 23  H    Isotropic =    30.7013   Anisotropy =     7.5619

 24  H    Isotropic =    31.1569   Anisotropy =     7.8631

 25  H    Isotropic =    30.6878   Anisotropy =     7.2713

 26  H    Isotropic =    29.4772   Anisotropy =     6.2996

 27  H    Isotropic =    30.9207   Anisotropy =     7.0932

 28  H    Isotropic =    31.1760   Anisotropy =     8.1619

  Exact polarizability: 169.083  -0.854 118.185  -6.489  -4.795  74.949
 Approx polarizability: 216.670  -2.386 197.475 -12.949  -3.004 112.125

                     1                      2                      3
                     A                      A                      A
 Frequencies --    25.9318                38.8721                72.2931
 Red. masses --     3.5332                 4.6361                 4.9495
 Frc consts  --     0.0014                 0.0041                 0.0152
 IR Inten    --     0.1140                 1.3801                 0.8331

                     4                      5                      6
                     A                      A                      A
 Frequencies --   100.6074               120.9112               192.9220
 Red. masses --     5.3994                 3.9102                 4.0067
 Frc consts  --     0.0322                 0.0337                 0.0879
 IR Inten    --     0.9559                 0.0818                 3.4209

                     7                      8                      9
                     A                      A                      A
 Frequencies --   199.3281               244.4060               260.8586
 Red. masses --     1.0606                 2.5973                 1.2455
 Frc consts  --     0.0248                 0.0914                 0.0499
 IR Inten    --     0.0577                 0.6147                 0.1131

                    10                     11                     12
                     A                      A                      A
 Frequencies --   261.8094               280.1227               328.8853
 Red. masses --     1.0930                 4.1037                 3.4420
 Frc consts  --     0.0441                 0.1897                 0.2194
 IR Inten    --     0.1045                 3.3788                10.7973

                    13                     14                     15
                     A                      A                      A
 Frequencies --   349.5886               385.9923               423.0369
 Red. masses --     2.5298                 5.7882                 3.0306
 Frc consts  --     0.1822                 0.5081                 0.3196
 IR Inten    --     1.3719                 6.3059                 0.1277

                    16                     17                     18
                     A                      A                      A
 Frequencies --   430.7677               457.4738               459.5498
 Red. masses --     2.9240                 2.7635                 2.9558
 Frc consts  --     0.3197                 0.3408                 0.3678
 IR Inten    --     0.8238                 3.9430                 2.4651

                    19                     20                     21
                     A                      A                      A
 Frequencies --   514.1209               604.7154               628.3409
 Red. masses --     3.2802                 5.3528                 6.3427
 Frc consts  --     0.5108                 1.1533                 1.4754
 IR Inten    --     4.5561                 1.6508                 0.5762

                    22                     23                     24
                     A                      A                      A
 Frequencies --   699.0840               736.7739               759.3874
 Red. masses --     2.7148                 2.7934                 4.2334
 Frc consts  --     0.7817                 0.8934                 1.4383
 IR Inten    --    10.3794                21.6243                16.0456

                    25                     26                     27
                     A                      A                      A
 Frequencies --   773.5476               785.6717               834.6999
 Red. masses --    11.6751                 2.4191                 3.7481
 Frc consts  --     4.1161                 0.8798                 1.5386
 IR Inten    --    25.8637                22.5613                36.1784

                    28                     29                     30
                     A                      A                      A
 Frequencies --   840.8352               895.1625               920.9873
 Red. masses --     1.2595                 3.4251                 1.7385
 Frc consts  --     0.5247                 1.6171                 0.8688
 IR Inten    --     0.5153                27.0576                14.6452

                    31                     32                     33
                     A                      A                      A
 Frequencies --   933.4159               937.9563               962.1135
 Red. masses --     1.6350                 1.6228                 1.3353
 Frc consts  --     0.8393                 0.8412                 0.7282
 IR Inten    --     0.1184                 1.4199                 0.1294

                    34                     35                     36
                     A                      A                      A
 Frequencies --   983.2278               987.8083              1021.1583
 Red. masses --     1.1982                 1.2403                 6.1812
 Frc consts  --     0.6825                 0.7131                 3.7976
 IR Inten    --     0.1791                 0.1101                 4.5882

                    37                     38                     39
                     A                      A                      A
 Frequencies --  1043.1490              1059.1513              1065.8016
 Red. masses --     3.8194                 1.8703                 1.4067
 Frc consts  --     2.4487                 1.2361                 0.9415
 IR Inten    --     6.6636                 3.7331                 0.3941

                    40                     41                     42
                     A                      A                      A
 Frequencies --  1080.4668              1109.6825              1190.6921
 Red. masses --     1.9185                 1.4996                 1.1072
 Frc consts  --     1.3196                 1.0880                 0.9248
 IR Inten    --     5.2143                 6.4878                 3.0320

                    43                     44                     45
                     A                      A                      A
 Frequencies --  1200.7717              1205.0305              1263.3627
 Red. masses --     1.3452                 1.9209                 4.3540
 Frc consts  --     1.1428                 1.6434                 4.0944
 IR Inten    --   261.9042               652.0834               107.3660

                    46                     47                     48
                     A                      A                      A
 Frequencies --  1285.3593              1291.6320              1314.2396
 Red. masses --     2.7115                 3.4153                 4.7534
 Frc consts  --     2.6394                 3.3570                 4.8373
 IR Inten    --    16.2135               300.9387               584.7796

                    49                     50                     51
                     A                      A                      A
 Frequencies --  1346.6776              1364.8606              1424.9144
 Red. masses --     1.8858                 2.8656                 1.2764
 Frc consts  --     2.0150                 3.1451                 1.5270
 IR Inten    --    20.9026                19.8643                16.7640

                    52                     53                     54
                     A                      A                      A
 Frequencies --  1428.7680              1454.4292              1499.9970
 Red. masses --     1.2811                 1.2337                 1.0465
 Frc consts  --     1.5409                 1.5376                 1.3873
 IR Inten    --    18.8684                17.4313                 0.5321

                    55                     56                     57
                     A                      A                      A
 Frequencies --  1503.7319              1518.8340              1519.8636
 Red. masses --     2.2710                 1.0465                 1.0517
 Frc consts  --     3.0255                 1.4224                 1.4314
 IR Inten    --     3.1827                 0.7665                 0.6413

                    58                     59                     60
                     A                      A                      A
 Frequencies --  1526.4335              1533.9382              1543.6720
 Red. masses --     1.0661                 1.0527                 2.2630
 Frc consts  --     1.4636                 1.4594                 3.1772
 IR Inten    --    10.8663                 0.9651                57.8138

                    61                     62                     63
                     A                      A                      A
 Frequencies --  1555.5729              1653.1949              1660.2733
 Red. masses --     1.0548                 5.9053                 5.9405
 Frc consts  --     1.5039                 9.5091                 9.6479
 IR Inten    --    13.4640                12.8076                14.5261

                    64                     65                     66
                     A                      A                      A
 Frequencies --  1825.0950              3059.8818              3060.6956
 Red. masses --    12.0316                 1.0356                 1.0378
 Frc consts  --    23.6127                 5.7130                 5.7280
 IR Inten    --   230.9404                 7.4637                21.0376

                    67                     68                     69
                     A                      A                      A
 Frequencies --  3068.1250              3123.1730              3125.1252
 Red. masses --     1.0378                 1.1026                 1.1024
 Frc consts  --     5.7561                 6.3365                 6.3435
 IR Inten    --    18.4254                 7.1475                14.7594

                    70                     71                     72
                     A                      A                      A
 Frequencies --  3137.9093              3138.0919              3167.2166
 Red. masses --     1.1029                 1.1030                 1.1004
 Frc consts  --     6.3983                 6.3994                 6.5035
 IR Inten    --    36.3712                33.7904                 1.7853

                    73                     74                     75
                     A                      A                      A
 Frequencies --  3170.4961              3188.1182              3197.9661
 Red. masses --     1.0998                 1.0854                 1.0899
 Frc consts  --     6.5134                 6.4998                 6.5674
 IR Inten    --    14.0671                 0.0765                15.5039

                    76                     77                     78
                     A                      A                      A
 Frequencies --  3210.4271              3221.0732              3249.8876
 Red. masses --     1.0944                 1.0953                 1.0930
 Frc consts  --     6.6458                 6.6955                 6.8014
 IR Inten    --    29.3222                 6.5361                 2.0952

 - Thermochemistry -
 -------------------
 Temperature   298.150 Kelvin.  Pressure   1.00000 Atm.
 Atom     1 has atomic number  8 and mass  15.99491

 Molecular mass:   194.09429 amu.
 Principal axes and moments of inertia in atomic units:
                           1         2         3
     Eigenvalues --   862.786495846.509546183.00594
           X            1.00000  -0.00015  -0.00080
           Y            0.00012   0.99920  -0.03991
           Z            0.00080   0.03991   0.99920
 This molecule is an asymmetric top.
 Rotational symmetry number  1.
 Warning -- assumption of classical behavior for rotation
           may cause significant error
 Rotational temperatures (Kelvin)      0.10039     0.01481     0.01401
 Rotational constants (GHZ):           2.09176     0.30869     0.29189
 Zero-point vibrational energy     610335.6 (Joules/Mol)
                                  145.87371 (Kcal/Mol)
 Warning -- explicit consideration of  20 degrees of freedom as
           vibrations may cause significant error
 Vibrational temperatures:     37.31    55.93   104.01   144.75   173.96
          (Kelvin)            277.57   286.79   351.65   375.32   376.68
                              403.03   473.19   502.98   555.36   608.65
                              619.78   658.20   661.19   739.70   870.05
                              904.04  1005.82  1060.05  1092.59  1112.96
                             1130.40  1200.95  1209.77  1287.94  1325.09
                             1342.98  1349.51  1384.26  1414.64  1421.23
                             1469.22  1500.86  1523.88  1533.45  1554.55
                             1596.58  1713.14  1727.64  1733.77  1817.69
                             1849.34  1858.37  1890.90  1937.57  1963.73
                             2050.13  2055.68  2092.60  2158.16  2163.53
                             2185.26  2186.74  2196.19  2206.99  2221.00
                             2238.12  2378.58  2388.76  2625.90  4402.48
                             4403.65  4414.34  4493.54  4496.35  4514.75
                             4515.01  4556.91  4561.63  4586.99  4601.15
                             4619.08  4634.40  4675.86

 Zero-point correction=                           0.232465 (Hartree/Particle)
 Thermal correction to Energy=                    0.246221
 Thermal correction to Enthalpy=                  0.247165
 Thermal correction to Gibbs Free Energy=         0.191094
 Sum of electronic and zero-point Energies=           -653.064465
 Sum of electronic and thermal Energies=              -653.050709
 Sum of electronic and thermal Enthalpies=            -653.049765
 Sum of electronic and thermal Free Energies=         -653.105836

                     E (Thermal)             CV                S
                      KCal/Mol        Cal/Mol-Kelvin    Cal/Mol-Kelvin
 Total                  154.506             52.107            118.013
 Electronic               0.000              0.000              0.000
 Translational            0.889              2.981             41.695
 Rotational               0.889              2.981             31.812
 Vibrational            152.729             46.145             44.506
 Vibration     1          0.593              1.985              6.119
 Vibration     2          0.594              1.981              5.316
 Vibration     3          0.598              1.967              4.090
 Vibration     4          0.604              1.949              3.443
 Vibration     5          0.609              1.932              3.086
 Vibration     6          0.635              1.850              2.200
 Vibration     7          0.637              1.841              2.139
 Vibration     8          0.660              1.772              1.771
 Vibration     9          0.669              1.744              1.656
 Vibration    10          0.669              1.743              1.650
 Vibration    11          0.680              1.710              1.533
 Vibration    12          0.712              1.618              1.266
 Vibration    13          0.727              1.576              1.168
 Vibration    14          0.755              1.500              1.016
 Vibration    15          0.785              1.420              0.882
 Vibration    16          0.792              1.403              0.856
 Vibration    17          0.816              1.344              0.773
 Vibration    18          0.817              1.340              0.767
 Vibration    19          0.869              1.219              0.624
 Vibration    20          0.963              1.022              0.442

 Optimization completed.
    -- Stationary point found.
 Normal termination of Gaussian 09 at Thu Sep 30 05:03:23 2021.
 Gaussian 09:  AM64L-G09RevA.02 11-Jun-2009

 ----------------------------------------------------------------------
 #p TD(NStates=10, Root=1) b3lyp/6-31G* volume pop=NPA density=current
 Geom=AllCheck Guess=Read
 ----------------------------------------------------------------------

 O=C(Oc1ccccc1)OC(C)(C)C_conf_0
 ------------------------------
 Redundant internal coordinates taken from checkpoint file:
 C11H14O3_b7a9_conf_0.chk
 Charge =  0 Multiplicity = 1

                         Standard orientation:
 ---------------------------------------------------------------------
 Center     Atomic      Atomic             Coordinates (Angstroms)
 Number     Number       Type             X           Y           Z
 ---------------------------------------------------------------------
      1          8           0        0.480311    1.016746    0.736814
      2          6           0        0.584190    0.035024    0.037884
      3          8           0       -0.447386   -0.684953   -0.480148
      4          6           0       -1.767026   -0.303495   -0.229256
      5          6           0       -2.215109    1.009431   -0.369999
      6          6           0       -3.571410    1.278695   -0.181162
      7          6           0       -4.466080    0.254024    0.133760
      8          6           0       -3.999752   -1.055541    0.261578
      9          6           0       -2.645912   -1.339097    0.081268
     10          8           0        1.697539   -0.567011   -0.381712
     11          6           0        3.027248   -0.041735   -0.002753
     12          6           0        3.195812   -0.102893    1.518073
     13          6           0        3.972253   -1.023786   -0.698284
     14          6           0        3.204452    1.374812   -0.557142
     15          1           0       -1.517998    1.802617   -0.608382
     16          1           0       -3.927900    2.299917   -0.284444
     17          1           0       -5.519998    0.474914    0.276898
     18          1           0       -4.687795   -1.861014    0.503063
     19          1           0       -2.259818   -2.349321    0.172544
     20          1           0        3.014817   -1.120795    1.880036
     21          1           0        2.509515    0.580163    2.021417
     22          1           0        4.222370    0.173916    1.782404
     23          1           0        3.807159   -2.042573   -0.333798
     24          1           0        5.012589   -0.746888   -0.498661
     25          1           0        3.811091   -1.014686   -1.780854
     26          1           0        2.519507    2.076867   -0.078693
     27          1           0        3.029170    1.385545   -1.638434
     28          1           0        4.231583    1.710435   -0.376523
 ---------------------------------------------------------------------

 SCF Done:  E(RB3LYP) =  -653.296929874     A.U. after    1 cycles

 Excitation energies and oscillator strengths:

 Excited State   1:      Singlet-A      5.3987 eV  229.65 nm  f=0.0030  <S**2>=0.000
      51 -> 53         0.15998
      51 -> 54        -0.41145
      52 -> 53         0.51401
      52 -> 54         0.19073
 This state for optimization and/or second-order correction.
 Total Energy, E(TD-HF/TD-KS) =  -653.098529944
 Copying the excited state density for this state as the 1-particle RhoCI density.

 Excited State   2:      Singlet-A      5.9943 eV  206.84 nm  f=0.1258  <S**2>=0.000
      51 -> 53         0.30218
      52 -> 53        -0.23015
      52 -> 54         0.57352
      52 -> 55        -0.10394

 Excited State   3:      Singlet-A      6.3994 eV  193.74 nm  f=0.0165  <S**2>=0.000
      50 -> 53        -0.22666
      50 -> 54         0.49794
      50 -> 55        -0.32464
      51 -> 54        -0.18000
      51 -> 55         0.17343
      52 -> 53        -0.11144

 Excited State   4:      Singlet-A      6.7078 eV  184.83 nm  f=0.3218  <S**2>=0.000
      50 -> 53        -0.17867
      51 -> 53         0.40933
      51 -> 54         0.22790
      52 -> 53         0.10159
      52 -> 54        -0.13597
      52 -> 55         0.44904

 Excited State   5:      Singlet-A      6.8576 eV  180.80 nm  f=0.0126  <S**2>=0.000
      50 -> 53         0.56469
      50 -> 54         0.27711
      52 -> 55         0.28019

 Excited State   6:      Singlet-A      6.9591 eV  178.16 nm  f=0.1953  <S**2>=0.000
      48 -> 53        -0.10747
      50 -> 53        -0.19875
      50 -> 54         0.22185
      51 -> 53        -0.20031
      51 -> 54         0.37369
      51 -> 55        -0.30153
      52 -> 53         0.29447
      52 -> 54         0.14296

 Excited State   7:      Singlet-A      7.1619 eV  173.12 nm  f=0.0526  <S**2>=0.000
      48 -> 53         0.15817
      48 -> 54        -0.10028
      50 -> 53        -0.10358
      50 -> 54         0.24561
      50 -> 55         0.44465
      51 -> 54        -0.17284
      51 -> 55        -0.34819
      52 -> 53        -0.13982

 Excited State   8:      Singlet-A      7.2161 eV  171.82 nm  f=0.3828  <S**2>=0.000
      48 -> 53         0.10992
      48 -> 54        -0.25243
      50 -> 53        -0.15378
      50 -> 54        -0.15023
      50 -> 55        -0.10146
      51 -> 53        -0.35719
      51 -> 54        -0.11895
      52 -> 54         0.21767
      52 -> 55         0.40067

 Excited State   9:      Singlet-A      7.4324 eV  166.82 nm  f=0.0387  <S**2>=0.000
      48 -> 53        -0.24267
      48 -> 54        -0.20868
      49 -> 53        -0.19957
      49 -> 54        -0.10572
      50 -> 54         0.11911
      50 -> 55         0.35060
      51 -> 55         0.41829
      52 -> 53         0.11959

 Excited State  10:      Singlet-A      7.5311 eV  164.63 nm  f=0.0469  <S**2>=0.000
      49 -> 53         0.53012
      49 -> 54        -0.42777

 The electronic state is 1-A.
 Alpha  occ. eigenvalues --  -19.20185 -19.19096 -19.13632 -10.36300 -10.26359
 Alpha  occ. eigenvalues --  -10.25184 -10.19351 -10.19289 -10.19151 -10.19099
 Alpha  occ. eigenvalues --  -10.18932 -10.18296 -10.17961 -10.17897  -1.13895
 Alpha  occ. eigenvalues --   -1.05451  -1.02060  -0.85476  -0.81659  -0.75180
 Alpha  occ. eigenvalues --   -0.74790  -0.69853  -0.69736  -0.66498  -0.61551
 Alpha  occ. eigenvalues --   -0.59584  -0.55576  -0.51355  -0.50408  -0.49026
 Alpha  occ. eigenvalues --   -0.48504  -0.46171  -0.45756  -0.44709  -0.43880
 Alpha  occ. eigenvalues --   -0.42883  -0.42268  -0.40996  -0.39493  -0.39256
 Alpha  occ. eigenvalues --   -0.37385  -0.37102  -0.36439  -0.35920  -0.35553
 Alpha  occ. eigenvalues --   -0.35035  -0.34035  -0.31960  -0.30133  -0.28112
 Alpha  occ. eigenvalues --   -0.25109  -0.23832
 Alpha virt. eigenvalues --   -0.00154  -0.00101   0.04286   0.08043   0.08629
 Alpha virt. eigenvalues --    0.09980   0.14322   0.14512   0.15077   0.15101
 Alpha virt. eigenvalues --    0.15836   0.16009   0.16335   0.17011   0.18459

 Mulliken atomic charges:
              1
     1  O   -0.475147
     2  C    0.794328
     3  O   -0.491997
     4  C    0.331861
     5  C   -0.142082
     6  C   -0.158029
     7  C   -0.115204
     8  C   -0.153571
     9  C   -0.165964
    10  O   -0.486503
    11  C    0.304290
    12  C   -0.468354
    13  C   -0.449874
    14  C   -0.469021
    15  H    0.153449
    16  H    0.135534
    17  H    0.136738
    18  H    0.134417
    19  H    0.144278
    20  H    0.152993
    21  H    0.188154
    22  H    0.147236
    23  H    0.158846
    24  H    0.148021
    25  H    0.158865
    26  H    0.186357
    27  H    0.152513
    28  H    0.147867
 Sum of Mulliken atomic charges =  -0.00000

 Dipole moment (field-independent basis, Debye):
    X=              1.3705    Y=             -0.2504    Z=             -0.2506  Tot=              1.4155
 Quadrupole moment (field-independent basis, Debye-Ang):
   XX=            -67.0051   YY=            -80.5672   ZZ=            -85.0841
   XY=              0.2732   XZ=             -0.5494   YZ=             -3.6531

 Summary of Natural Population Analysis:

                                       Natural Population
                Natural  -----------------------------------------------
    Atom  No    Charge         Core      Valence    Rydberg      Total
 -----------------------------------------------------------------------
      O    1   -0.63127      1.99976     6.61135    0.02016     8.63127
      C    2    1.05033      1.99953     2.89785    0.05229     4.94967
      O    3   -0.50422      1.99968     6.49308    0.01146     8.50422
      C    4    0.30897      1.99873     3.66909    0.02320     5.69103
      C    5   -0.27491      1.99904     4.25798    0.01789     6.27491
      C    6   -0.24242      1.99915     4.22480    0.01847     6.24242
      C    7   -0.20279      1.99914     4.18664    0.01702     6.20279
      C    8   -0.24816      1.99915     4.23057    0.01844     6.24816
      C    9   -0.26691      1.99905     4.24886    0.01900     6.26691
      O   10   -0.55950      1.99970     6.54717    0.01263     8.55950
      C   11    0.28240      1.99900     3.69974    0.01887     5.71760
      C   12   -0.70336      1.99932     4.69482    0.00922     6.70336
      C   13   -0.68513      1.99932     4.67561    0.01019     6.68513
      C   14   -0.70341      1.99932     4.69492    0.00917     6.70341
      H   15    0.24898      0.00000     0.74987    0.00114     0.75102
      H   16    0.23273      0.00000     0.76644    0.00084     0.76727
      H   17    0.23190      0.00000     0.76727    0.00083     0.76810
      H   18    0.23249      0.00000     0.76668    0.00082     0.76751
      H   19    0.24205      0.00000     0.75681    0.00114     0.75795
      H   20    0.23828      0.00000     0.76057    0.00116     0.76172
      H   21    0.25874      0.00000     0.74009    0.00116     0.74126
      H   22    0.23844      0.00000     0.76078    0.00077     0.76156
      H   23    0.24256      0.00000     0.75635    0.00109     0.75744
      H   24    0.23718      0.00000     0.76214    0.00068     0.76282
      H   25    0.24256      0.00000     0.75636    0.00108     0.75744
      H   26    0.25772      0.00000     0.74108    0.00120     0.74228
      H   27    0.23789      0.00000     0.76094    0.00116     0.76211
      H   28    0.23886      0.00000     0.76036    0.00078     0.76114
 =======================================================================
   * Total *    0.00000     27.98989    75.73822    0.27189   104.00000

 Normal termination of Gaussian 09 at Thu Sep 30 09:08:51 2021.
