 Gaussian 09, Revision A.02,

 -----------------------------------
 #p opt b3lyp/6-31G* scf=(xqc,tight)
 -----------------------------------

 ----------------------------
 COc1ccc2c(c1)cc(cc2)O_conf_0
 ----------------------------
 Symbolic Z-matrix:
 Charge =  0 Multiplicity = 1

 SCF Done:  E(RB3LYP) =  -575.628547411     A.U. after   14 cycles
 SCF Done:  E(RB3LYP) =  -575.632602108     A.U. after   12 cycles
 SCF Done:  E(RB3LYP) =  -575.632994594     A.U. after   11 cycles
 SCF Done:  E(RB3LYP) =  -575.633080076     A.U. after   11 cycles
 SCF Done:  E(RB3LYP) =  -575.633122826     A.U. after   10 cycles
 SCF Done:  E(RB3LYP) =  -575.633134696     A.U. after    9 cycles
 SCF Done:  E(RB3LYP) =  -575.633137273     A.U. after    8 cycles
 Optimization completed.
    -- Stationary point found.
 Normal termination of Gaussian 09 at Tue Sep 28 14:21:13 2021.

 ----------------------------------------------------------------------
 #p freq b3lyp/6-31G* volume NMR pop=NPA density=current Geom=AllCheck
 Guess=Read
 ----------------------------------------------------------------------

 COc1ccc2c(c1)cc(cc2)O_conf_0
 ----------------------------
 Redundant internal coordinates taken from checkpoint file:
 C11H10O2_d7c7_conf_0.chk
 Charge =  0 Multiplicity = 1

 SCF Done:  E(RB3LYP) =  -575.633137273     A.U. after    1 cycles

  1  C    Isotropic =   137.2779   Anisotropy =    65.3537

  2  O    Isotropic =   234.5252   Anisotropy =    82.3689

  3  C    Isotropic =    39.4901   Anisotropy =   123.9497

  4  C    Isotropic =    79.2907   Anisotropy =   130.4842

  5  C    Isotropic =    66.1717   Anisotropy =   143.9872

  6  C    Isotropic =    72.6132   Anisotropy =   184.0215

  7  C    Isotropic =    60.5744   Anisotropy =   189.8637

  8  C    Isotropic =    91.8158   Anisotropy =   114.8681

  9  C    Isotropic =    88.3983   Anisotropy =    90.8736

 10  C    Isotropic =    42.5073   Anisotropy =   128.9514

 11  C    Isotropic =    81.7975   Anisotropy =   132.4231

 12  C    Isotropic =    65.5119   Anisotropy =   145.2701

 13  O    Isotropic =   215.1736   Anisotropy =    55.2257

 14  H    Isotropic =    28.2528   Anisotropy =     8.1283

 15  H    Isotropic =    28.5542   Anisotropy =     7.8951

 16  H    Isotropic =    28.5536   Anisotropy =     7.8966

 17  H    Isotropic =    25.4415   Anisotropy =     5.9622

 18  H    Isotropic =    24.8062   Anisotropy =     6.3539

 19  H    Isotropic =    25.8729   Anisotropy =     9.6282

 20  H    Isotropic =    25.9696   Anisotropy =     7.7247

 21  H    Isotropic =    25.4034   Anisotropy =     5.2036

 22  H    Isotropic =    24.7613   Anisotropy =     6.3275

 23  H    Isotropic =    28.5459   Anisotropy =    12.3363

  Exact polarizability: 194.162  -2.050 131.263   0.002   0.004  46.358
 Approx polarizability: 321.218 -15.168 223.244   0.008   0.008  70.910

                     1                      2                      3
                     A                      A                      A
 Frequencies --    81.9471               113.7697               157.7995
 Red. masses --     3.2200                 5.3610                 4.0332
 Frc consts  --     0.0127                 0.0409                 0.0592
 IR Inten    --     1.3284                 0.1445                 4.0899

                     4                      5                      6
                     A                      A                      A
 Frequencies --   178.5742               242.1783               304.1187
 Red. masses --     3.8792                 1.2093                 4.1970
 Frc consts  --     0.0729                 0.0418                 0.2287
 IR Inten    --     0.4275                 0.0028                 1.4601

                     7                      8                      9
                     A                      A                      A
 Frequencies --   304.1372               320.4858               381.6670
 Red. masses --     4.2548                 3.3550                 1.1329
 Frc consts  --     0.2319                 0.2030                 0.0972
 IR Inten    --     5.7024                 0.1559               121.2272

                    10                     11                     12
                     A                      A                      A
 Frequencies --   399.8034               441.3663               450.3473
 Red. masses --     5.7280                 3.4518                 4.8674
 Frc consts  --     0.5394                 0.3962                 0.5816
 IR Inten    --     4.2117                 0.1473                 4.4616

                    13                     14                     15
                     A                      A                      A
 Frequencies --   470.5192               481.6631               529.6452
 Red. masses --     6.6051                 2.5473                 3.9322
 Frc consts  --     0.8616                 0.3482                 0.6499
 IR Inten    --    10.5024                 7.9302                 9.2631

                    16                     17                     18
                     A                      A                      A
 Frequencies --   623.8901               649.6478               653.6623
 Red. masses --     4.7784                 7.2066                 2.5816
 Frc consts  --     1.0958                 1.7920                 0.6499
 IR Inten    --     0.0587                 4.5767                 0.0015

                    19                     20                     21
                     A                      A                      A
 Frequencies --   695.7238               751.4146               791.0725
 Red. masses --     6.0025                 2.9538                 5.1063
 Frc consts  --     1.7118                 0.9826                 1.8827
 IR Inten    --     0.0439                 0.4917                 0.9204

                    22                     23                     24
                     A                      A                      A
 Frequencies --   805.5122               808.4400               817.2635
 Red. masses --     1.3025                 5.9259                 1.5892
 Frc consts  --     0.4979                 2.2819                 0.6254
 IR Inten    --     0.4611                29.4570                 1.8979

                    25                     26                     27
                     A                      A                      A
 Frequencies --   850.1046               864.5289               951.5013
 Red. masses --     1.6462                 1.6951                 1.2454
 Frc consts  --     0.7009                 0.7465                 0.6643
 IR Inten    --    46.4558                47.5265                 0.0506

                    28                     29                     30
                     A                      A                      A
 Frequencies --   964.0842               973.4115               996.4315
 Red. masses --     1.2949                 4.1922                 2.8214
 Frc consts  --     0.7091                 2.3404                 1.6505
 IR Inten    --     0.3073                 7.5039                 1.1766

                    31                     32                     33
                     A                      A                      A
 Frequencies --  1075.3500              1147.6640              1172.7606
 Red. masses --     4.5499                 1.4695                 1.1648
 Frc consts  --     3.0999                 1.1404                 0.9439
 IR Inten    --    41.7396                 2.1316                28.6644

                    34                     35                     36
                     A                      A                      A
 Frequencies --  1185.9036              1202.2034              1213.1252
 Red. masses --     1.2727                 1.4947                 1.5850
 Frc consts  --     1.0545                 1.2728                 1.3744
 IR Inten    --     0.7780                78.5716               257.5065

                    37                     38                     39
                     A                      A                      A
 Frequencies --  1223.6391              1258.3688              1272.7433
 Red. masses --     1.4950                 2.0702                 2.7238
 Frc consts  --     1.3189                 1.9314                 2.5996
 IR Inten    --    33.4235                64.5559               102.8969

                    40                     41                     42
                     A                      A                      A
 Frequencies --  1303.8322              1324.5830              1395.9827
 Red. masses --     2.0690                 2.2235                 1.8260
 Frc consts  --     2.0723                 2.2985                 2.0966
 IR Inten    --    15.3038                68.8131                 0.9178

                    43                     44                     45
                     A                      A                      A
 Frequencies --  1422.5336              1440.3915              1486.0775
 Red. masses --     6.5182                 4.3093                 2.0121
 Frc consts  --     7.7715                 5.2676                 2.6181
 IR Inten    --    11.2876               104.2281                65.0038

                    46                     47                     48
                     A                      A                      A
 Frequencies --  1502.2698              1519.7436              1530.6337
 Red. masses --     1.7956                 1.0479                 1.6798
 Frc consts  --     2.3876                 1.4260                 2.3188
 IR Inten    --    18.3468                 5.5341                81.2811

                    49                     50                     51
                     A                      A                      A
 Frequencies --  1537.4103              1578.9647              1637.5693
 Red. masses --     1.2573                 3.5860                 7.0123
 Frc consts  --     1.7509                 5.2675                11.0793
 IR Inten    --     3.4148                46.2221                 4.9483

                    52                     53                     54
                     A                      A                      A
 Frequencies --  1671.2799              1686.9983              3025.4767
 Red. masses --     5.7444                 6.2579                 1.0347
 Frc consts  --     9.4535                10.4932                 5.5800
 IR Inten    --    42.2661               269.4738                50.2729

                    55                     56                     57
                     A                      A                      A
 Frequencies --  3083.8069              3157.5162              3159.7941
 Red. masses --     1.1066                 1.0998                 1.0899
 Frc consts  --     6.2002                 6.4603                 6.4113
 IR Inten    --    44.0334                30.2916                22.9809

                    58                     59                     60
                     A                      A                      A
 Frequencies --  3182.3216              3186.1064              3215.0748
 Red. masses --     1.0888                 1.0886                 1.0893
 Frc consts  --     6.4968                 6.5106                 6.6341
 IR Inten    --     0.3875                23.2557                12.5821

                    61                     62                     63
                     A                      A                      A
 Frequencies --  3218.3575              3219.5958              3746.9328
 Red. masses --     1.0936                 1.0936                 1.0658
 Frc consts  --     6.6739                 6.6789                 8.8159
 IR Inten    --     9.6442                 8.9440                39.9695

 - Thermochemistry -
 -------------------
 Temperature   298.150 Kelvin.  Pressure   1.00000 Atm.
 Atom     1 has atomic number  6 and mass  12.00000

 Molecular mass:   174.06808 amu.
 Principal axes and moments of inertia in atomic units:
                           1         2         3
     Eigenvalues --   983.112013753.378364724.97279
           X            0.99981   0.01944  -0.00000
           Y           -0.01944   0.99981  -0.00000
           Z            0.00000   0.00000   1.00000
 This molecule is an asymmetric top.
 Rotational symmetry number  1.
 Warning -- assumption of classical behavior for rotation
           may cause significant error
 Rotational temperatures (Kelvin)      0.08810     0.02308     0.01833
 Rotational constants (GHZ):           1.83574     0.48083     0.38196
 Zero-point vibrational energy     484725.2 (Joules/Mol)
                                  115.85210 (Kcal/Mol)
 Warning -- explicit consideration of  15 degrees of freedom as
           vibrations may cause significant error
 Vibrational temperatures:    117.90   163.69   227.04   256.93   348.44
          (Kelvin)            437.56   437.59   461.11   549.13   575.23
                              635.03   647.95   676.97   693.00   762.04
                              897.64   934.70   940.47  1000.99  1081.12
                             1138.18  1158.95  1163.16  1175.86  1223.11
                             1243.86  1369.00  1387.10  1400.52  1433.64
                             1547.19  1651.23  1687.34  1706.25  1729.70
                             1745.41  1760.54  1810.51  1831.19  1875.92
                             1905.78  2008.51  2046.71  2072.40  2138.13
                             2161.43  2186.57  2202.24  2211.99  2271.78
                             2356.09  2404.60  2427.21  4352.98  4436.90
                             4542.96  4546.23  4578.65  4584.09  4625.77
                             4630.49  4632.27  5390.99

 Zero-point correction=                           0.184622 (Hartree/Particle)
 Thermal correction to Energy=                    0.195196
 Thermal correction to Enthalpy=                  0.196140
 Thermal correction to Gibbs Free Energy=         0.148654
 Sum of electronic and zero-point Energies=           -575.448515
 Sum of electronic and thermal Energies=              -575.437941
 Sum of electronic and thermal Enthalpies=            -575.436997
 Sum of electronic and thermal Free Energies=         -575.484483

                     E (Thermal)             CV                S
                      KCal/Mol        Cal/Mol-Kelvin    Cal/Mol-Kelvin
 Total                  122.488             42.628             99.943
 Electronic               0.000              0.000              0.000
 Translational            0.889              2.981             41.370
 Rotational               0.889              2.981             31.234
 Vibrational            120.710             36.666             27.339
 Vibration     1          0.600              1.962              3.844
 Vibration     2          0.607              1.938              3.204
 Vibration     3          0.621              1.894              2.576
 Vibration     4          0.629              1.869              2.343
 Vibration     5          0.658              1.776              1.787
 Vibration     6          0.695              1.666              1.394
 Vibration     7          0.695              1.666              1.394
 Vibration     8          0.706              1.634              1.308
 Vibration     9          0.751              1.509              1.033
 Vibration    10          0.766              1.471              0.963
 Vibration    11          0.801              1.380              0.822
 Vibration    12          0.809              1.360              0.795
 Vibration    13          0.828              1.315              0.736
 Vibration    14          0.838              1.291              0.706
 Vibration    15          0.885              1.184              0.588

 Optimization completed.
    -- Stationary point found.
 Normal termination of Gaussian 09 at Tue Sep 28 14:30:03 2021.
 Gaussian 09:  AM64L-G09RevA.02 11-Jun-2009

 ----------------------------------------------------------------------
 #p TD(NStates=10, Root=1) b3lyp/6-31G* volume pop=NPA density=current
 Geom=AllCheck Guess=Read
 ----------------------------------------------------------------------

 COc1ccc2c(c1)cc(cc2)O_conf_0
 ----------------------------
 Redundant internal coordinates taken from checkpoint file:
 C11H10O2_d7c7_conf_0.chk
 Charge =  0 Multiplicity = 1

                         Standard orientation:
 ---------------------------------------------------------------------
 Center     Atomic      Atomic             Coordinates (Angstroms)
 Number     Number       Type             X           Y           Z
 ---------------------------------------------------------------------
      1          6           0       -3.767888   -1.544818    0.000332
      2          8           0       -3.428010   -0.168215   -0.000226
      3          6           0       -2.104833    0.166335   -0.000052
      4          6           0       -1.851189    1.565581   -0.000086
      5          6           0       -0.560293    2.028681   -0.000003
      6          6           0        0.544825    1.134753    0.000014
      7          6           0        0.287315   -0.273208   -0.000114
      8          6           0       -1.058208   -0.735398   -0.000148
      9          6           0        1.387553   -1.169954   -0.000144
     10          6           0        2.683544   -0.693903   -0.000002
     11          6           0        2.942697    0.699724    0.000146
     12          6           0        1.891177    1.584572    0.000137
     13          8           0        3.781169   -1.510409   -0.000005
     14          1           0       -4.858710   -1.585533    0.000680
     15          1           0       -3.384288   -2.053463    0.894863
     16          1           0       -3.384824   -2.054105   -0.894047
     17          1           0       -2.701691    2.239766   -0.000108
     18          1           0       -0.367777    3.099073    0.000073
     19          1           0       -1.237148   -1.805066   -0.000306
     20          1           0        1.198136   -2.242702   -0.000240
     21          1           0        3.974524    1.035861    0.000229
     22          1           0        2.084265    2.654845    0.000228
     23          1           0        3.484045   -2.433869    0.000002
 ---------------------------------------------------------------------

 SCF Done:  E(RB3LYP) =  -575.633137273     A.U. after    2 cycles

 Excitation energies and oscillator strengths:

 Excited State   1:      Singlet-A      4.2954 eV  288.65 nm  f=0.0448  <S**2>=0.000
      45 -> 47         0.58056
      46 -> 48         0.39190
 This state for optimization and/or second-order correction.
 Total Energy, E(TD-HF/TD-KS) =  -575.475286033
 Copying the excited state density for this state as the 1-particle RhoCI density.

 Excited State   2:      Singlet-A      4.3722 eV  283.57 nm  f=0.0264  <S**2>=0.000
      45 -> 48        -0.16354
      46 -> 47         0.68124

 Excited State   3:      Singlet-A      5.5843 eV  222.02 nm  f=0.3717  <S**2>=0.000
      43 -> 47         0.11606
      44 -> 47         0.15985
      45 -> 47        -0.18964
      45 -> 48         0.51860
      45 -> 49         0.13651
      46 -> 47         0.12435
      46 -> 48         0.28384
      46 -> 49         0.14803

 Excited State   4:      Singlet-A      5.6006 eV  221.38 nm  f=0.4001  <S**2>=0.000
      44 -> 47         0.26122
      45 -> 47        -0.24427
      45 -> 48        -0.36438
      46 -> 48         0.38471
      46 -> 49         0.24314

 Excited State   5:      Singlet-A      5.9772 eV  207.43 nm  f=0.6118  <S**2>=0.000
      43 -> 47         0.11279
      44 -> 47         0.25447
      45 -> 47         0.24171
      46 -> 48        -0.30374
      46 -> 49         0.51306

 Excited State   6:      Singlet-A      6.1058 eV  203.06 nm  f=0.0181  <S**2>=0.000
      43 -> 47        -0.16350
      44 -> 48        -0.20082
      45 -> 48        -0.16155
      45 -> 49         0.63115

 Excited State   7:      Singlet-A      6.3605 eV  194.93 nm  f=0.1068  <S**2>=0.000
      43 -> 47         0.61925
      44 -> 48        -0.21663
      45 -> 48        -0.17871

 Excited State   8:      Singlet-A      6.4415 eV  192.48 nm  f=0.0000  <S**2>=0.000
      45 -> 50        -0.30337
      46 -> 50         0.62913

 Excited State   9:      Singlet-A      6.5347 eV  189.73 nm  f=0.0457  <S**2>=0.000
      44 -> 47         0.57108
      46 -> 48        -0.12937
      46 -> 49        -0.37464

 Excited State  10:      Singlet-A      6.8486 eV  181.04 nm  f=0.0002  <S**2>=0.000
      45 -> 50         0.62883
      46 -> 50         0.31073

 The electronic state is 1-A.
 Alpha  occ. eigenvalues --  -19.17841 -19.17808 -10.24813 -10.24580 -10.24098
 Alpha  occ. eigenvalues --  -10.19870 -10.19003 -10.18921 -10.18719 -10.18311
 Alpha  occ. eigenvalues --  -10.18280 -10.18243 -10.18127  -1.06374  -1.05812
 Alpha  occ. eigenvalues --   -0.86558  -0.81254  -0.76804  -0.74594  -0.71408
 Alpha  occ. eigenvalues --   -0.69832  -0.62939  -0.60463  -0.59455  -0.54545
 Alpha  occ. eigenvalues --   -0.53014  -0.51175  -0.47296  -0.46808  -0.46091
 Alpha  occ. eigenvalues --   -0.45267  -0.42779  -0.42644  -0.40955  -0.40675
 Alpha  occ. eigenvalues --   -0.38499  -0.37712  -0.37587  -0.35637  -0.33680
 Alpha  occ. eigenvalues --   -0.33477  -0.32545  -0.27903  -0.27708  -0.21040
 Alpha  occ. eigenvalues --   -0.20292
 Alpha virt. eigenvalues --   -0.02652   0.00585   0.04062   0.06855   0.09521
 Alpha virt. eigenvalues --    0.10389   0.11606   0.12454   0.12543   0.14652
 Alpha virt. eigenvalues --    0.15590   0.16707   0.17817   0.19374   0.19977

 Mulliken atomic charges:
              1
     1  C   -0.216660
     2  O   -0.486203
     3  C    0.354634
     4  C   -0.167844
     5  C   -0.213176
     6  C    0.152399
     7  C    0.135995
     8  C   -0.278992
     9  C   -0.279622
    10  C    0.338862
    11  C   -0.159416
    12  C   -0.216456
    13  O   -0.620060
    14  H    0.171883
    15  H    0.157879
    16  H    0.157880
    17  H    0.136878
    18  H    0.126579
    19  H    0.121261
    20  H    0.108779
    21  H    0.137266
    22  H    0.126330
    23  H    0.411802
 Sum of Mulliken atomic charges =  -0.00000

 Dipole moment (field-independent basis, Debye):
    X=             -1.1097    Y=             -2.6699    Z=              0.0007  Tot=              2.8913
 Quadrupole moment (field-independent basis, Debye-Ang):
   XX=            -72.3285   YY=            -60.9668   ZZ=            -78.8076
   XY=              2.4496   XZ=             -0.0022   YZ=              0.0001

 Summary of Natural Population Analysis:

                                       Natural Population
                Natural  -----------------------------------------------
    Atom  No    Charge         Core      Valence    Rydberg      Total
 -----------------------------------------------------------------------
      C    1   -0.31933      1.99943     4.30581    0.01409     6.31933
      O    2   -0.48437      1.99975     6.47276    0.01187     8.48437
      C    3    0.30158      1.99881     3.67657    0.02305     5.69842
      C    4   -0.24934      1.99905     4.23377    0.01652     6.24934
      C    5   -0.24048      1.99908     4.22642    0.01497     6.24048
      C    6   -0.03022      1.99902     4.01625    0.01495     6.03022
      C    7   -0.03291      1.99905     4.01770    0.01616     6.03291
      C    8   -0.31936      1.99900     4.30781    0.01255     6.31936
      C    9   -0.31714      1.99899     4.30414    0.01400     6.31714
      C   10    0.32020      1.99879     3.65895    0.02205     5.67980
      C   11   -0.27267      1.99903     4.25714    0.01650     6.27267
      C   12   -0.23821      1.99909     4.22406    0.01506     6.23821
      O   13   -0.64999      1.99979     6.63873    0.01147     8.64999
      H   14    0.22902      0.00000     0.77044    0.00053     0.77098
      H   15    0.20677      0.00000     0.79123    0.00200     0.79323
      H   16    0.20676      0.00000     0.79124    0.00200     0.79324
      H   17    0.24248      0.00000     0.75633    0.00119     0.75752
      H   18    0.23326      0.00000     0.76571    0.00103     0.76674
      H   19    0.22961      0.00000     0.76932    0.00108     0.77039
      H   20    0.22102      0.00000     0.77765    0.00133     0.77898
      H   21    0.24301      0.00000     0.75588    0.00111     0.75699
      H   22    0.23292      0.00000     0.76603    0.00104     0.76708
      H   23    0.48738      0.00000     0.51104    0.00158     0.51262
 =======================================================================
   * Total *   -0.00000     25.98888    65.79499    0.21613    92.00000

 Normal termination of Gaussian 09 at Tue Sep 28 14:47:34 2021.
