 Gaussian 09, Revision A.02,

 -----------------------------------
 #p opt b3lyp/6-31G* scf=(xqc,tight)
 -----------------------------------

 -----------------------------
 CC(=O)c1cn(c2c1cccc2)C_conf_0
 -----------------------------
 Symbolic Z-matrix:
 Charge =  0 Multiplicity = 1

 SCF Done:  E(RB3LYP) =  -555.777659920     A.U. after   15 cycles
 SCF Done:  E(RB3LYP) =  -555.780812472     A.U. after   13 cycles
 SCF Done:  E(RB3LYP) =  -555.781042271     A.U. after   13 cycles
 SCF Done:  E(RB3LYP) =  -555.781041290     A.U. after   12 cycles
 SCF Done:  E(RB3LYP) =  -555.781225036     A.U. after   12 cycles
 SCF Done:  E(RB3LYP) =  -555.781262061     A.U. after   11 cycles
 SCF Done:  E(RB3LYP) =  -555.781281100     A.U. after   11 cycles
 SCF Done:  E(RB3LYP) =  -555.781282708     A.U. after    8 cycles
 SCF Done:  E(RB3LYP) =  -555.781282865     A.U. after    7 cycles
 Optimization completed.
    -- Stationary point found.
 Normal termination of Gaussian 09 at Mon Oct  4 09:50:25 2021.

 ----------------------------------------------------------------------
 #p freq b3lyp/6-31G* volume NMR pop=NPA density=current Geom=AllCheck
 Guess=Read
 ----------------------------------------------------------------------

 CC(=O)c1cn(c2c1cccc2)C_conf_0
 -----------------------------
 Redundant internal coordinates taken from checkpoint file:
 C11H11NO_0e3a_conf_0.chk
 Charge =  0 Multiplicity = 1

 SCF Done:  E(RB3LYP) =  -555.781282865     A.U. after    1 cycles

  1  C    Isotropic =   159.6959   Anisotropy =    42.6022

  2  C    Isotropic =     9.3062   Anisotropy =   148.4201

  3  O    Isotropic =  -224.5790   Anisotropy =   832.6386

  4  C    Isotropic =    76.5647   Anisotropy =   100.6742

  5  C    Isotropic =    60.3246   Anisotropy =   101.1843

  6  N    Isotropic =   121.3014   Anisotropy =    98.7528

  7  C    Isotropic =    60.4755   Anisotropy =   126.4153

  8  C    Isotropic =    69.1806   Anisotropy =   156.7152

  9  C    Isotropic =    74.7542   Anisotropy =   154.6431

 10  C    Isotropic =    73.7789   Anisotropy =   158.1996

 11  C    Isotropic =    73.9134   Anisotropy =   157.9402

 12  C    Isotropic =    86.0546   Anisotropy =   143.5703

 13  C    Isotropic =   156.3248   Anisotropy =    50.4394

 14  H    Isotropic =    30.2416   Anisotropy =     6.8003

 15  H    Isotropic =    29.6259   Anisotropy =     3.7803

 16  H    Isotropic =    29.6256   Anisotropy =     3.7773

 17  H    Isotropic =    24.6172   Anisotropy =     5.5100

 18  H    Isotropic =    24.5451   Anisotropy =     8.0023

 19  H    Isotropic =    24.9783   Anisotropy =     5.1639

 20  H    Isotropic =    25.0503   Anisotropy =     5.0030

 21  H    Isotropic =    25.1573   Anisotropy =     7.1989

 22  H    Isotropic =    28.6835   Anisotropy =     8.3217

 23  H    Isotropic =    28.5447   Anisotropy =     9.4383

 24  H    Isotropic =    28.5500   Anisotropy =     9.4831

  Exact polarizability: 166.161  -5.913 147.812   0.013   0.008  53.097
 Approx polarizability: 264.225 -17.756 244.602   0.012  -0.006  81.964

                     1                      2                      3
                     A                      A                      A
 Frequencies --    64.6076                92.8331               113.4045
 Red. masses --     3.7353                 1.2551                 3.2442
 Frc consts  --     0.0092                 0.0064                 0.0246
 IR Inten    --     5.3484                 0.0059                 0.0986

                     4                      5                      6
                     A                      A                      A
 Frequencies --   139.6662               159.5528               188.1398
 Red. masses --     2.4959                 4.3312                 1.0631
 Frc consts  --     0.0287                 0.0650                 0.0222
 IR Inten    --     2.4969                 3.2866                 0.4372

                     7                      8                      9
                     A                      A                      A
 Frequencies --   246.0778               250.1347               303.1777
 Red. masses --     3.1163                 4.2096                 5.3038
 Frc consts  --     0.1112                 0.1552                 0.2872
 IR Inten    --     1.5064                 1.9664                 0.8141

                    10                     11                     12
                     A                      A                      A
 Frequencies --   334.9235               381.0287               436.4361
 Red. masses --     3.2341                 7.9668                 3.0078
 Frc consts  --     0.2137                 0.6815                 0.3375
 IR Inten    --     3.7870                 3.2627                 3.3139

                    13                     14                     15
                     A                      A                      A
 Frequencies --   545.4738               555.3013               564.1681
 Red. masses --     5.1469                 3.1733                 4.0672
 Frc consts  --     0.9023                 0.5765                 0.7627
 IR Inten    --     0.0207                 0.8056                22.4140

                    16                     17                     18
                     A                      A                      A
 Frequencies --   585.4684               615.9470               624.0779
 Red. masses --     4.0687                 3.8589                 5.7309
 Frc consts  --     0.8217                 0.8626                 1.3151
 IR Inten    --     0.0979                13.2332                 1.3059

                    19                     20                     21
                     A                      A                      A
 Frequencies --   653.4924               758.1984               768.2363
 Red. masses --     2.7028                 1.2863                 4.7407
 Frc consts  --     0.6801                 0.4357                 1.6485
 IR Inten    --     2.6142                59.0864                 3.7619

                    22                     23                     24
                     A                      A                      A
 Frequencies --   778.9401               786.2946               862.9254
 Red. masses --     4.0041                 5.0273                 1.4905
 Frc consts  --     1.4314                 1.8313                 0.6539
 IR Inten    --     0.0968                 4.2560                 0.3853

                    25                     26                     27
                     A                      A                      A
 Frequencies --   865.7996               925.7224               964.2799
 Red. masses --     1.4466                 1.3383                 2.9859
 Frc consts  --     0.6389                 0.6757                 1.6358
 IR Inten    --     7.9601                 0.6949                40.1055

                    28                     29                     30
                     A                      A                      A
 Frequencies --   972.4550              1010.2804              1051.6705
 Red. masses --     1.2378                 2.7043                 2.1450
 Frc consts  --     0.6897                 1.6263                 1.3978
 IR Inten    --     0.0043                 7.0585                 6.6843

                    31                     32                     33
                     A                      A                      A
 Frequencies --  1054.5312              1079.2806              1126.6322
 Red. masses --     1.8199                 1.9928                 2.3045
 Frc consts  --     1.1924                 1.3677                 1.7235
 IR Inten    --     3.8028                13.4731                40.4308

                    34                     35                     36
                     A                      A                      A
 Frequencies --  1160.2474              1160.2813              1175.2373
 Red. masses --     1.4520                 1.6575                 1.4408
 Frc consts  --     1.1517                 1.3147                 1.1724
 IR Inten    --     7.5027                14.1454                 7.6806

                    37                     38                     39
                     A                      A                      A
 Frequencies --  1195.3317              1256.1055              1301.6265
 Red. masses --     1.1915                 1.9266                 2.2352
 Frc consts  --     1.0030                 1.7910                 2.2312
 IR Inten    --    10.4014               157.5245                 9.4509

                    40                     41                     42
                     A                      A                      A
 Frequencies --  1373.1873              1381.2267              1394.6019
 Red. masses --     2.4139                 7.5913                 2.6736
 Frc consts  --     2.6819                 8.5329                 3.0637
 IR Inten    --    11.0596                31.9027                23.1487

                    43                     44                     45
                     A                      A                      A
 Frequencies --  1409.6957              1446.6953              1475.5362
 Red. masses --     1.6034                 4.4620                 1.3168
 Frc consts  --     1.8774                 5.5021                 1.6892
 IR Inten    --    34.5741                 0.1034                41.0474

                    46                     47                     48
                     A                      A                      A
 Frequencies --  1497.0289              1506.4874              1508.8940
 Red. masses --     1.1124                 1.0484                 1.0414
 Frc consts  --     1.4688                 1.4019                 1.3970
 IR Inten    --    48.1369                 9.5784                 7.5686

                    49                     50                     51
                     A                      A                      A
 Frequencies --  1516.4039              1524.4352              1549.2495
 Red. masses --     2.0909                 2.4250                 1.2902
 Frc consts  --     2.8328                 3.3204                 1.8245
 IR Inten    --    47.1450                 0.2180                16.3582

                    52                     53                     54
                     A                      A                      A
 Frequencies --  1571.5416              1625.8341              1669.0914
 Red. masses --     4.3370                 5.7539                 6.3401
 Frc consts  --     6.3110                 8.9612                10.4066
 IR Inten    --   253.5079                 0.0313                10.2235

                    55                     56                     57
                     A                      A                      A
 Frequencies --  1751.7761              3048.8657              3053.6378
 Red. masses --    10.2305                 1.0379                 1.0350
 Frc consts  --    18.4971                 5.6842                 5.6861
 IR Inten    --   234.2209                 3.5545                52.5771

                    58                     59                     60
                     A                      A                      A
 Frequencies --  3109.2494              3111.1017              3162.0309
 Red. masses --     1.1001                 1.1059                 1.1017
 Frc consts  --     6.2660                 6.3065                 6.4898
 IR Inten    --    10.7310                19.7661                 6.7386

                    61                     62                     63
                     A                      A                      A
 Frequencies --  3163.7639              3186.5840              3197.1019
 Red. masses --     1.1013                 1.0855                 1.0895
 Frc consts  --     6.4948                 6.4942                 6.5613
 IR Inten    --    17.9314                 0.7190                14.9265

                    64                     65                     66
                     A                      A                      A
 Frequencies --  3210.0868              3222.1175              3282.7550
 Red. masses --     1.0950                 1.0935                 1.0962
 Frc consts  --     6.6480                 6.6887                 6.9600
 IR Inten    --    26.6673                15.2016                 1.6890

 - Thermochemistry -
 -------------------
 Temperature   298.150 Kelvin.  Pressure   1.00000 Atm.
 Atom     1 has atomic number  6 and mass  12.00000

 Molecular mass:   173.08406 amu.
 Principal axes and moments of inertia in atomic units:
                           1         2         3
     Eigenvalues --  1498.526652554.162104030.02260
           X            0.99797   0.06375   0.00001
           Y           -0.06375   0.99797   0.00001
           Z           -0.00000  -0.00001   1.00000
 This molecule is an asymmetric top.
 Rotational symmetry number  1.
 Warning -- assumption of classical behavior for rotation
           may cause significant error
 Rotational temperatures (Kelvin)      0.05780     0.03391     0.02149
 Rotational constants (GHZ):           1.20434     0.70659     0.44782
 Zero-point vibrational energy     514735.0 (Joules/Mol)
                                  123.02461 (Kcal/Mol)
 Warning -- explicit consideration of  17 degrees of freedom as
           vibrations may cause significant error
 Vibrational temperatures:     92.96   133.57   163.16   200.95   229.56
          (Kelvin)            270.69   354.05   359.89   436.20   481.88
                              548.21   627.93   784.81   798.95   811.71
                              842.36   886.21   897.91   940.23  1090.88
                             1105.32  1120.72  1131.30  1241.56  1245.69
                             1331.91  1387.38  1399.14  1453.57  1513.12
                             1517.23  1552.84  1620.97  1669.34  1669.38
                             1690.90  1719.81  1807.25  1872.75  1975.71
                             1987.27  2006.52  2028.24  2081.47  2122.96
                             2153.89  2167.50  2170.96  2181.76  2193.32
                             2229.02  2261.09  2339.21  2401.45  2520.41
                             4386.63  4393.50  4473.51  4476.18  4549.45
                             4551.94  4584.78  4599.91  4618.59  4635.90
                             4723.15

 Zero-point correction=                           0.196052 (Hartree/Particle)
 Thermal correction to Energy=                    0.207478
 Thermal correction to Enthalpy=                  0.208422
 Thermal correction to Gibbs Free Energy=         0.158602
 Sum of electronic and zero-point Energies=           -555.585231
 Sum of electronic and thermal Energies=              -555.573805
 Sum of electronic and thermal Enthalpies=            -555.572860
 Sum of electronic and thermal Free Energies=         -555.622681

                     E (Thermal)             CV                S
                      KCal/Mol        Cal/Mol-Kelvin    Cal/Mol-Kelvin
 Total                  130.195             43.716            104.856
 Electronic               0.000              0.000              0.000
 Translational            0.889              2.981             41.353
 Rotational               0.889              2.981             31.112
 Vibrational            128.417             37.754             32.391
 Vibration     1          0.597              1.971              4.311
 Vibration     2          0.602              1.954              3.599
 Vibration     3          0.607              1.938              3.210
 Vibration     4          0.615              1.914              2.808
 Vibration     5          0.621              1.892              2.555
 Vibration     6          0.633              1.856              2.246
 Vibration     7          0.661              1.769              1.759
 Vibration     8          0.663              1.763              1.730
 Vibration     9          0.695              1.668              1.399
 Vibration    10          0.716              1.606              1.236
 Vibration    11          0.751              1.511              1.035
 Vibration    12          0.797              1.391              0.838
 Vibration    13          0.901              1.150              0.554
 Vibration    14          0.911              1.128              0.533
 Vibration    15          0.920              1.109              0.516
 Vibration    16          0.942              1.063              0.475
 Vibration    17          0.976              0.998              0.423

 Normal termination of Gaussian 09 at Mon Oct  4 10:56:13 2021.
 Gaussian 09:  AM64L-G09RevA.02 11-Jun-2009

 ----------------------------------------------------------------------
 #p TD(NStates=10, Root=1) b3lyp/6-31G* volume pop=NPA density=current
 Geom=AllCheck Guess=Read
 ----------------------------------------------------------------------

 CC(=O)c1cn(c2c1cccc2)C_conf_0
 -----------------------------
 Redundant internal coordinates taken from checkpoint file:
 C11H11NO_0e3a_conf_0.chk
 Charge =  0 Multiplicity = 1

                         Standard orientation:
 ---------------------------------------------------------------------
 Center     Atomic      Atomic             Coordinates (Angstroms)
 Number     Number       Type             X           Y           Z
 ---------------------------------------------------------------------
      1          6           0       -2.919203   -1.545373    0.000334
      2          6           0       -2.517821   -0.079512   -0.000024
      3          8           0       -3.374583    0.799609    0.000084
      4          6           0       -1.086563    0.262772   -0.000143
      5          6           0       -0.663638    1.579584   -0.000462
      6          7           0        0.698600    1.653400   -0.000957
      7          6           0        1.212345    0.361310   -0.000368
      8          6           0        0.117180   -0.547353   -0.000150
      9          6           0        0.403709   -1.924215   -0.000017
     10          6           0        1.729127   -2.345300    0.000102
     11          6           0        2.791841   -1.422989    0.000075
     12          6           0        2.546311   -0.054204   -0.000104
     13          6           0        1.490909    2.868456    0.000928
     14          1           0       -4.008815   -1.614044    0.000052
     15          1           0       -2.521835   -2.059024    0.884386
     16          1           0       -2.521231   -2.059855   -0.882928
     17          1           0       -1.276049    2.470393   -0.000660
     18          1           0       -0.393774   -2.659296    0.000145
     19          1           0        1.949234   -3.409349    0.000259
     20          1           0        3.816533   -1.783624    0.000251
     21          1           0        3.363421    0.661504    0.000047
     22          1           0        0.819571    3.729138   -0.007795
     23          1           0        2.133895    2.913658   -0.885187
     24          1           0        2.120337    2.920764    0.896435
 ---------------------------------------------------------------------

 SCF Done:  E(RB3LYP) =  -555.781282865     A.U. after    1 cycles

 Excitation energies and oscillator strengths:

 Excited State   1:      Singlet-A      3.9778 eV  311.69 nm  f=0.0001  <S**2>=0.000
      44 -> 47         0.65728
      44 -> 48         0.24420
 This state for optimization and/or second-order correction.
 Total Energy, E(TD-HF/TD-KS) =  -555.635100169
 Copying the excited state density for this state as the 1-particle RhoCI density.

 Excited State   2:      Singlet-A      4.4727 eV  277.20 nm  f=0.1550  <S**2>=0.000
      45 -> 47        -0.11957
      46 -> 47         0.67487

 Excited State   3:      Singlet-A      4.7091 eV  263.28 nm  f=0.0055  <S**2>=0.000
      45 -> 47         0.58431
      46 -> 47         0.11480
      46 -> 48         0.30682
      46 -> 49        -0.20065

 Excited State   4:      Singlet-A      5.1970 eV  238.57 nm  f=0.1698  <S**2>=0.000
      43 -> 47         0.13221
      45 -> 47        -0.21624
      46 -> 48         0.56753
      46 -> 49         0.29803

 Excited State   5:      Singlet-A      5.3530 eV  231.62 nm  f=0.0455  <S**2>=0.000
      45 -> 47         0.21983
      45 -> 48         0.53604
      45 -> 49         0.13759
      46 -> 48        -0.14951
      46 -> 49         0.31770

 Excited State   6:      Singlet-A      5.3702 eV  230.87 nm  f=0.0000  <S**2>=0.000
      44 -> 47        -0.25316
      44 -> 48         0.65505

 Excited State   7:      Singlet-A      5.9296 eV  209.09 nm  f=0.3386  <S**2>=0.000
      43 -> 47         0.53633
      45 -> 47         0.11682
      45 -> 48        -0.22451
      46 -> 48        -0.18910
      46 -> 49         0.30879

 Excited State   8:      Singlet-A      6.1894 eV  200.32 nm  f=0.0000  <S**2>=0.000
      44 -> 49         0.70352

 Excited State   9:      Singlet-A      6.2481 eV  198.44 nm  f=0.0974  <S**2>=0.000
      43 -> 47         0.40033
      43 -> 49         0.18479
      45 -> 47        -0.14468
      45 -> 48         0.32146
      45 -> 49        -0.14512
      46 -> 49        -0.37793

 Excited State  10:      Singlet-A      6.4453 eV  192.36 nm  f=0.1670  <S**2>=0.000
      43 -> 47         0.12092
      43 -> 48        -0.30814
      45 -> 49         0.58699
      46 -> 49        -0.13742

 The electronic state is 1-A.
 Alpha  occ. eigenvalues --  -19.11255 -14.39901 -10.26061 -10.24457 -10.22952
 Alpha  occ. eigenvalues --  -10.22344 -10.19583 -10.19434 -10.18982 -10.18967
 Alpha  occ. eigenvalues --  -10.18601 -10.18114 -10.17740  -1.01314  -0.99955
 Alpha  occ. eigenvalues --   -0.84951  -0.80929  -0.75488  -0.73566  -0.72843
 Alpha  occ. eigenvalues --   -0.69843  -0.62672  -0.60900  -0.57989  -0.54532
 Alpha  occ. eigenvalues --   -0.50309  -0.49109  -0.48038  -0.47420  -0.45448
 Alpha  occ. eigenvalues --   -0.43707  -0.43038  -0.43014  -0.41979  -0.41052
 Alpha  occ. eigenvalues --   -0.39832  -0.38651  -0.37792  -0.35804  -0.34663
 Alpha  occ. eigenvalues --   -0.34137  -0.33102  -0.27637  -0.23190  -0.22985
 Alpha  occ. eigenvalues --   -0.20908
 Alpha virt. eigenvalues --   -0.03170  -0.00159   0.01978   0.08023   0.09997
 Alpha virt. eigenvalues --    0.10156   0.11154   0.12220   0.14630   0.14771
 Alpha virt. eigenvalues --    0.14937   0.15773   0.16686   0.16814   0.18610

 Mulliken atomic charges:
              1
     1  C   -0.513480
     2  C    0.319823
     3  O   -0.329932
     4  C   -0.001749
     5  C   -0.027522
     6  N   -0.496982
     7  C    0.304908
     8  C    0.052187
     9  C   -0.219568
    10  C   -0.143703
    11  C   -0.148423
    12  C   -0.173447
    13  C   -0.321029
    14  H    0.176004
    15  H    0.191382
    16  H    0.191401
    17  H    0.149429
    18  H    0.116828
    19  H    0.116807
    20  H    0.121129
    21  H    0.123151
    22  H    0.171780
    23  H    0.170518
    24  H    0.170487
 Sum of Mulliken atomic charges =  -0.00000

 Dipole moment (field-independent basis, Debye):
    X=              0.6651    Y=              0.5516    Z=              0.0010  Tot=              0.8641
 Quadrupole moment (field-independent basis, Debye-Ang):
   XX=            -72.2223   YY=            -64.2248   ZZ=            -79.2087
   XY=              9.1558   XZ=             -0.0003   YZ=             -0.0025

 Summary of Natural Population Analysis:

                                       Natural Population
                Natural  -----------------------------------------------
    Atom  No    Charge         Core      Valence    Rydberg      Total
 -----------------------------------------------------------------------
      C    1   -0.70181      1.99933     4.69581    0.00667     6.70181
      C    2    0.34626      1.99924     3.62296    0.03154     5.65374
      O    3   -0.26704      1.99982     6.24955    0.01768     8.26704
      C    4   -0.20810      1.99885     4.19369    0.01557     6.20810
      C    5   -0.05229      1.99908     4.03256    0.02064     6.05229
      N    6   -0.37349      1.99927     5.36288    0.01135     7.37349
      C    7    0.16464      1.99901     3.81833    0.01802     5.83536
      C    8   -0.07334      1.99898     4.06027    0.01408     6.07334
      C    9   -0.22528      1.99904     4.21377    0.01246     6.22528
      C   10   -0.26258      1.99912     4.24941    0.01405     6.26258
      C   11   -0.23461      1.99912     4.22144    0.01405     6.23461
      C   12   -0.27674      1.99900     4.26523    0.01251     6.27674
      C   13   -0.46125      1.99948     4.45036    0.01142     6.46125
      H   14    0.25281      0.00000     0.74606    0.00113     0.74719
      H   15    0.25476      0.00000     0.74384    0.00140     0.74524
      H   16    0.25477      0.00000     0.74383    0.00140     0.74523
      H   17    0.23208      0.00000     0.76752    0.00040     0.76792
      H   18    0.22803      0.00000     0.77100    0.00097     0.77197
      H   19    0.23271      0.00000     0.76650    0.00079     0.76729
      H   20    0.23392      0.00000     0.76529    0.00078     0.76608
      H   21    0.23526      0.00000     0.76384    0.00090     0.76474
      H   22    0.24003      0.00000     0.75933    0.00064     0.75997
      H   23    0.23071      0.00000     0.76773    0.00156     0.76929
      H   24    0.23054      0.00000     0.76788    0.00158     0.76946
 =======================================================================
   * Total *    0.00000     25.98935    65.79907    0.21158    92.00000

 Normal termination of Gaussian 09 at Mon Oct  4 14:06:26 2021.
