 Gaussian 09, Revision A.02,

 -----------------------------------
 #p opt b3lyp/6-31G* scf=(xqc,tight)
 -----------------------------------

 ---------------------------
 COc1cccc(c1)OCCN(C)C_conf_0
 ---------------------------
 Symbolic Z-matrix:
 Charge =  0 Multiplicity = 1

 SCF Done:  E(RB3LYP) =  -634.566184841     A.U. after   14 cycles
 SCF Done:  E(RB3LYP) =  -634.569372413     A.U. after   12 cycles
 SCF Done:  E(RB3LYP) =  -634.569841266     A.U. after   11 cycles
 SCF Done:  E(RB3LYP) =  -634.570028138     A.U. after   11 cycles
 SCF Done:  E(RB3LYP) =  -634.570097343     A.U. after   11 cycles
 SCF Done:  E(RB3LYP) =  -634.570127482     A.U. after   10 cycles
 SCF Done:  E(RB3LYP) =  -634.570131384     A.U. after   10 cycles
 SCF Done:  E(RB3LYP) =  -634.570131439     A.U. after    8 cycles
 SCF Done:  E(RB3LYP) =  -634.570131605     A.U. after    7 cycles
 SCF Done:  E(RB3LYP) =  -634.570131848     A.U. after    7 cycles
 SCF Done:  E(RB3LYP) =  -634.570132159     A.U. after    7 cycles
 Optimization completed.
    -- Stationary point found.
 Normal termination of Gaussian 09 at Thu Sep 30 13:33:46 2021.

 ----------------------------------------------------------------------
 #p freq b3lyp/6-31G* volume NMR pop=NPA density=current Geom=AllCheck
 Guess=Read
 ----------------------------------------------------------------------

 COc1cccc(c1)OCCN(C)C_conf_0
 ---------------------------
 Redundant internal coordinates taken from checkpoint file:
 C11H17NO2_16c8_conf_0.chk
 Charge =  0 Multiplicity = 1

 SCF Done:  E(RB3LYP) =  -634.570132158     A.U. after    1 cycles

  1  C    Isotropic =   137.5402   Anisotropy =    64.9539

  2  O    Isotropic =   237.7468   Anisotropy =    78.7575

  3  C    Isotropic =    38.0177   Anisotropy =   124.5259

  4  C    Isotropic =    85.4869   Anisotropy =   125.7415

  5  C    Isotropic =    66.8562   Anisotropy =   163.9566

  6  C    Isotropic =    93.8718   Anisotropy =   130.9943

  7  C    Isotropic =    37.7978   Anisotropy =   122.5669

  8  C    Isotropic =    96.3684   Anisotropy =   112.9573

  9  O    Isotropic =   222.7366   Anisotropy =    59.4102

 10  C    Isotropic =   125.7427   Anisotropy =    58.2919

 11  C    Isotropic =   132.9756   Anisotropy =    61.8107

 12  N    Isotropic =   229.0850   Anisotropy =    33.2393

 13  C    Isotropic =   143.0445   Anisotropy =    66.4493

 14  C    Isotropic =   147.1537   Anisotropy =    59.2149

 15  H    Isotropic =    28.3661   Anisotropy =     8.1176

 16  H    Isotropic =    28.6753   Anisotropy =     7.6796

 17  H    Isotropic =    28.6792   Anisotropy =     7.6575

 18  H    Isotropic =    25.9318   Anisotropy =     4.9710

 19  H    Isotropic =    25.2041   Anisotropy =     4.6464

 20  H    Isotropic =    26.2172   Anisotropy =     7.6594

 21  H    Isotropic =    26.3597   Anisotropy =     9.4371

 22  H    Isotropic =    28.3420   Anisotropy =     4.6203

 23  H    Isotropic =    28.3631   Anisotropy =     7.3167

 24  H    Isotropic =    29.6213   Anisotropy =     4.8515

 25  H    Isotropic =    29.4040   Anisotropy =     5.5872

 26  H    Isotropic =    29.8695   Anisotropy =     9.0140

 27  H    Isotropic =    29.9394   Anisotropy =     9.5886

 28  H    Isotropic =    30.0231   Anisotropy =     8.2735

 29  H    Isotropic =    29.7839   Anisotropy =     7.8755

 30  H    Isotropic =    30.3825   Anisotropy =     7.7985

 31  H    Isotropic =    30.0415   Anisotropy =     9.2521

  Exact polarizability: 179.018  -3.876 134.365   1.744  -2.401  79.833
 Approx polarizability: 231.737  -3.675 208.218   3.254  -6.867 117.273

                     1                      2                      3
                     A                      A                      A
 Frequencies --    25.2545                37.0628                67.6278
 Red. masses --     3.4818                 3.4180                 3.9461
 Frc consts  --     0.0013                 0.0028                 0.0106
 IR Inten    --     0.0606                 0.2592                 0.0691

                     4                      5                      6
                     A                      A                      A
 Frequencies --    93.5439               109.6531               129.3890
 Red. masses --     2.9568                 3.2086                 1.9659
 Frc consts  --     0.0152                 0.0227                 0.0194
 IR Inten    --     6.3928                 0.5623                 0.4776

                     7                      8                      9
                     A                      A                      A
 Frequencies --   178.6740               210.4651               224.7923
 Red. masses --     3.4276                 1.7618                 2.4041
 Frc consts  --     0.0645                 0.0460                 0.0716
 IR Inten    --     1.2740                 0.8030                 0.1488

                    10                     11                     12
                     A                      A                      A
 Frequencies --   244.7855               248.2325               269.8441
 Red. masses --     1.6603                 1.8352                 1.5508
 Frc consts  --     0.0586                 0.0666                 0.0665
 IR Inten    --     0.3701                 0.2090                 2.8920

                    13                     14                     15
                     A                      A                      A
 Frequencies --   281.0592               289.2510               382.9149
 Red. masses --     1.7644                 2.6088                 2.3733
 Frc consts  --     0.0821                 0.1286                 0.2050
 IR Inten    --     0.8062                 0.2688                 8.3411

                    16                     17                     18
                     A                      A                      A
 Frequencies --   409.0814               452.2058               463.2960
 Red. masses --     3.2086                 2.3639                 4.1907
 Frc consts  --     0.3164                 0.2848                 0.5300
 IR Inten    --     1.1003                 0.3771                 0.1209

                    19                     20                     21
                     A                      A                      A
 Frequencies --   466.3145               516.7068               562.5671
 Red. masses --     3.1051                 4.1151                 4.9211
 Frc consts  --     0.3978                 0.6473                 0.9176
 IR Inten    --     1.2750                11.4041                 1.8856

                    22                     23                     24
                     A                      A                      A
 Frequencies --   618.6543               631.4253               695.1262
 Red. masses --     5.7591                 4.5932                 2.3162
 Frc consts  --     1.2987                 1.0790                 0.6594
 IR Inten    --     6.7995                 0.1339                 4.4027

                    25                     26                     27
                     A                      A                      A
 Frequencies --   753.8267               769.8744               834.5267
 Red. masses --     6.8682                 1.3511                 1.2137
 Frc consts  --     2.2995                 0.4718                 0.4980
 IR Inten    --     5.7045                36.3521                 0.5257

                    28                     29                     30
                     A                      A                      A
 Frequencies --   847.2689               858.0848               874.1718
 Red. masses --     1.6033                 1.4519                 3.3879
 Frc consts  --     0.6781                 0.6299                 1.5254
 IR Inten    --    37.1580                 0.3935                18.5941

                    31                     32                     33
                     A                      A                      A
 Frequencies --   953.5601               958.0139              1010.4821
 Red. masses --     3.9462                 1.2406                 6.0937
 Frc consts  --     2.1141                 0.6709                 3.6660
 IR Inten    --    11.0346                 0.1594                 1.2147

                    34                     35                     36
                     A                      A                      A
 Frequencies --  1060.7755              1072.8520              1080.2352
 Red. masses --     2.4984                 1.6860                 5.1488
 Frc consts  --     1.6564                 1.1433                 3.5399
 IR Inten    --    59.7756                12.4765                35.2420

                    37                     38                     39
                     A                      A                      A
 Frequencies --  1088.5012              1093.3241              1117.7641
 Red. masses --     2.6058                 2.5237                 1.5187
 Frc consts  --     1.8191                 1.7774                 1.1180
 IR Inten    --    30.8657                55.5320                 9.9756

                    40                     41                     42
                     A                      A                      A
 Frequencies --  1121.4626              1134.9389              1185.2650
 Red. masses --     1.6262                 1.2922                 1.2709
 Frc consts  --     1.2050                 0.9807                 1.0519
 IR Inten    --    25.1868                 9.3083                 0.8536

                    43                     44                     45
                     A                      A                      A
 Frequencies --  1192.7115              1199.9444              1209.4242
 Red. masses --     1.2171                 1.5256                 1.4520
 Frc consts  --     1.0201                 1.2942                 1.2514
 IR Inten    --   105.1093                10.1220                64.1504

                    46                     47                     48
                     A                      A                      A
 Frequencies --  1229.2927              1247.2223              1290.3733
 Red. masses --     1.5628                 2.2125                 1.5507
 Frc consts  --     1.3915                 2.0278                 1.5213
 IR Inten    --     7.8232               315.6558                11.7192

                    49                     50                     51
                     A                      A                      A
 Frequencies --  1315.1934              1316.9766              1336.1536
 Red. masses --     2.7908                 3.1888                 1.7039
 Frc consts  --     2.8442                 3.2586                 1.7923
 IR Inten    --    45.9618                52.9152                67.5749

                    52                     53                     54
                     A                      A                      A
 Frequencies --  1341.4822              1378.6862              1387.7678
 Red. masses --     1.1592                 1.5178                 4.0304
 Frc consts  --     1.2291                 1.6998                 4.5733
 IR Inten    --     6.8054                13.1015                65.6516

                    55                     56                     57
                     A                      A                      A
 Frequencies --  1454.4708              1470.1704              1486.2045
 Red. masses --     1.4440                 1.1708                 1.6182
 Frc consts  --     1.7998                 1.4910                 2.1059
 IR Inten    --     2.9723                 6.1492                16.7533

                    58                     59                     60
                     A                      A                      A
 Frequencies --  1499.4725              1512.2052              1514.1733
 Red. masses --     1.1832                 1.4880                 1.2085
 Frc consts  --     1.5675                 2.0049                 1.6324
 IR Inten    --     0.1117                38.1580                26.5961

                    61                     62                     63
                     A                      A                      A
 Frequencies --  1519.8387              1521.8177              1529.5965
 Red. masses --     1.0483                 1.0643                 1.0659
 Frc consts  --     1.4268                 1.4523                 1.4694
 IR Inten    --     5.1869                 2.8990                22.9456

                    64                     65                     66
                     A                      A                      A
 Frequencies --  1532.9862              1534.4676              1541.2946
 Red. masses --     1.2335                 1.0901                 1.0543
 Frc consts  --     1.7080                 1.5122                 1.4757
 IR Inten    --    72.7468                 5.8437                 9.4165

                    67                     68                     69
                     A                      A                      A
 Frequencies --  1545.9169              1556.1924              1645.7477
 Red. masses --     1.6808                 1.1829                 6.2637
 Frc consts  --     2.3667                 1.6878                 9.9956
 IR Inten    --    61.0576                 1.6721               119.6533

                    70                     71                     72
                     A                      A                      A
 Frequencies --  1667.5659              2934.0788              2939.4738
 Red. masses --     5.8496                 1.0614                 1.0659
 Frc consts  --     9.5840                 5.3837                 5.4263
 IR Inten    --   216.6166                40.9490                58.8813

                    73                     74                     75
                     A                      A                      A
 Frequencies --  2952.2634              3025.2928              3029.4086
 Red. masses --     1.0690                 1.0346                 1.0558
 Frc consts  --     5.4897                 5.5790                 5.7086
 IR Inten    --   138.8779                48.7512                29.3508

                    76                     77                     78
                     A                      A                      A
 Frequencies --  3069.9676              3078.4552              3083.6568
 Red. masses --     1.1026                 1.0710                 1.1066
 Frc consts  --     6.1224                 5.9800                 6.1998
 IR Inten    --    24.6047                29.8528                43.6542

                    79                     80                     81
                     A                      A                      A
 Frequencies --  3088.3629              3096.4305              3123.4688
 Red. masses --     1.0714                 1.0937                 1.1037
 Frc consts  --     6.0210                 6.1783                 6.3444
 IR Inten    --    37.0798                39.2230                36.4054

                    82                     83                     84
                     A                      A                      A
 Frequencies --  3131.7377              3155.3617              3190.1267
 Red. masses --     1.1026                 1.0998                 1.0881
 Frc consts  --     6.3715                 6.4518                 6.5242
 IR Inten    --    41.8766                29.2615                15.5086

                    85                     86                     87
                     A                      A                      A
 Frequencies --  3222.2829              3233.9797              3239.6434
 Red. masses --     1.0927                 1.0921                 1.0898
 Frc consts  --     6.6846                 6.7295                 6.7392
 IR Inten    --    10.4842                 8.5304                 3.1239

 - Thermochemistry -
 -------------------
 Temperature   298.150 Kelvin.  Pressure   1.00000 Atm.
 Atom     1 has atomic number  6 and mass  12.00000

 Molecular mass:   195.12593 amu.
 Principal axes and moments of inertia in atomic units:
                           1         2         3
     Eigenvalues --  1052.976637487.420688288.80910
           X            0.99999  -0.00368  -0.00176
           Y            0.00369   0.99998   0.00565
           Z            0.00174  -0.00565   0.99998
 This molecule is an asymmetric top.
 Rotational symmetry number  1.
 Warning -- assumption of classical behavior for rotation
           may cause significant error
 Rotational temperatures (Kelvin)      0.08226     0.01157     0.01045
 Rotational constants (GHZ):           1.71394     0.24104     0.21773
 Zero-point vibrational energy     705762.0 (Joules/Mol)
                                  168.68117 (Kcal/Mol)
 Warning -- explicit consideration of  22 degrees of freedom as
           vibrations may cause significant error
 Vibrational temperatures:     36.34    53.32    97.30   134.59   157.77
          (Kelvin)            186.16   257.07   302.81   323.43   352.19
                              357.15   388.24   404.38   416.17   550.93
                              588.58   650.62   666.58   670.92   743.42
                              809.41   890.10   908.48  1000.13  1084.59
                             1107.68  1200.70  1219.03  1234.59  1257.74
                             1371.96  1378.37  1453.86  1526.22  1543.59
                             1554.22  1566.11  1573.05  1608.21  1613.53
                             1632.92  1705.33  1716.04  1726.45  1740.09
                             1768.68  1794.47  1856.56  1892.27  1894.83
                             1922.42  1930.09  1983.62  1996.69  2092.66
                             2115.24  2138.31  2157.40  2175.72  2178.55
                             2186.71  2189.55  2200.75  2205.62  2207.75
                             2217.58  2224.23  2239.01  2367.86  2399.25
                             4221.48  4229.24  4247.64  4352.72  4358.64
                             4416.99  4429.20  4436.69  4443.46  4455.07
                             4493.97  4505.87  4539.86  4589.88  4636.14
                             4652.97  4661.12

 Zero-point correction=                           0.268811 (Hartree/Particle)
 Thermal correction to Energy=                    0.283510
 Thermal correction to Enthalpy=                  0.284454
 Thermal correction to Gibbs Free Energy=         0.225844
 Sum of electronic and zero-point Energies=           -634.301322
 Sum of electronic and thermal Energies=              -634.286623
 Sum of electronic and thermal Enthalpies=            -634.285678
 Sum of electronic and thermal Free Energies=         -634.344288

                     E (Thermal)             CV                S
                      KCal/Mol        Cal/Mol-Kelvin    Cal/Mol-Kelvin
 Total                  177.905             54.360            123.354
 Electronic               0.000              0.000              0.000
 Translational            0.889              2.981             41.711
 Rotational               0.889              2.981             32.547
 Vibrational            176.128             48.399             49.097
 Vibration     1          0.593              1.985              6.171
 Vibration     2          0.594              1.982              5.410
 Vibration     3          0.598              1.970              4.221
 Vibration     4          0.603              1.954              3.585
 Vibration     5          0.606              1.941              3.275
 Vibration     6          0.612              1.924              2.955
 Vibration     7          0.629              1.869              2.342
 Vibration     8          0.643              1.825              2.040
 Vibration     9          0.649              1.803              1.920
 Vibration    10          0.660              1.771              1.768
 Vibration    11          0.662              1.766              1.743
 Vibration    12          0.674              1.729              1.597
 Vibration    13          0.681              1.709              1.527
 Vibration    14          0.686              1.694              1.478
 Vibration    15          0.752              1.507              1.028
 Vibration    16          0.773              1.451              0.930
 Vibration    17          0.811              1.356              0.789
 Vibration    18          0.821              1.331              0.757
 Vibration    19          0.824              1.325              0.748
 Vibration    20          0.872              1.213              0.618
 Vibration    21          0.918              1.112              0.519
 Vibration    22          0.979              0.992              0.419

 Optimization completed.
    -- Stationary point found.
 Normal termination of Gaussian 09 at Thu Sep 30 14:20:17 2021.
 Gaussian 09:  AM64L-G09RevA.02 11-Jun-2009

 ----------------------------------------------------------------------
 #p TD(NStates=10, Root=1) b3lyp/6-31G* volume pop=NPA density=current
 Geom=AllCheck Guess=Read
 ----------------------------------------------------------------------

 COc1cccc(c1)OCCN(C)C_conf_0
 ---------------------------
 Redundant internal coordinates taken from checkpoint file:
 C11H17NO2_16c8_conf_0.chk
 Charge =  0 Multiplicity = 1

                         Standard orientation:
 ---------------------------------------------------------------------
 Center     Atomic      Atomic             Coordinates (Angstroms)
 Number     Number       Type             X           Y           Z
 ---------------------------------------------------------------------
      1          6           0        4.262620   -2.099209    0.227679
      2          8           0        4.338474   -0.688612    0.106782
      3          6           0        3.172076    0.015704    0.011860
      4          6           0        3.312426    1.409471   -0.105880
      5          6           0        2.175733    2.196972   -0.207297
      6          6           0        0.890620    1.638059   -0.194921
      7          6           0        0.765550    0.252140   -0.076447
      8          6           0        1.904586   -0.563791    0.027140
      9          8           0       -0.424189   -0.420184   -0.052084
     10          6           0       -1.633970    0.328343   -0.124678
     11          6           0       -2.776452   -0.684111   -0.069099
     12          7           0       -4.083486   -0.042494   -0.191403
     13          6           0       -5.104005   -0.982169   -0.640064
     14          6           0       -4.500813    0.620437    1.039289
     15          1           0        5.294420   -2.450766    0.288255
     16          1           0        3.774983   -2.554310   -0.644735
     17          1           0        3.723292   -2.398476    1.136280
     18          1           0        4.309342    1.837068   -0.114919
     19          1           0        2.280500    3.274907   -0.299326
     20          1           0        0.020920    2.278056   -0.279929
     21          1           0        1.754956   -1.632601    0.116819
     22          1           0       -1.687438    0.895276   -1.063264
     23          1           0       -1.679406    1.042031    0.708868
     24          1           0       -2.683791   -1.288939    0.853536
     25          1           0       -2.646993   -1.370975   -0.912408
     26          1           0       -4.811557   -1.417946   -1.601108
     27          1           0       -6.051708   -0.451332   -0.782421
     28          1           0       -5.282583   -1.810142    0.074152
     29          1           0       -3.768683    1.376038    1.338777
     30          1           0       -4.631505   -0.082897    1.885772
     31          1           0       -5.454843    1.131768    0.872399
 ---------------------------------------------------------------------

 SCF Done:  E(RB3LYP) =  -634.570132158     A.U. after    1 cycles

 Excitation energies and oscillator strengths:

 Excited State   1:      Singlet-A      5.1216 eV  242.08 nm  f=0.0388  <S**2>=0.000
      51 -> 55         0.33835
      53 -> 54         0.60150
 This state for optimization and/or second-order correction.
 Total Energy, E(TD-HF/TD-KS) =  -634.381915845
 Copying the excited state density for this state as the 1-particle RhoCI density.

 Excited State   2:      Singlet-A      5.7632 eV  215.13 nm  f=0.0076  <S**2>=0.000
      52 -> 54         0.67670
      53 -> 54         0.11929
      53 -> 55         0.15063

 Excited State   3:      Singlet-A      5.8827 eV  210.76 nm  f=0.0314  <S**2>=0.000
      51 -> 54        -0.46266
      52 -> 54        -0.16042
      53 -> 55         0.49820

 Excited State   4:      Singlet-A      6.1397 eV  201.94 nm  f=0.0078  <S**2>=0.000
      51 -> 54         0.10412
      52 -> 55         0.68393

 Excited State   5:      Singlet-A      6.4753 eV  191.47 nm  f=0.2696  <S**2>=0.000
      50 -> 54        -0.20046
      51 -> 54         0.48344
      52 -> 55        -0.14918
      53 -> 55         0.43488

 Excited State   6:      Singlet-A      6.7091 eV  184.80 nm  f=0.8081  <S**2>=0.000
      50 -> 55        -0.10202
      51 -> 55         0.59416
      53 -> 54        -0.31632

 Excited State   7:      Singlet-A      6.9202 eV  179.16 nm  f=0.0235  <S**2>=0.000
      52 -> 56         0.63281
      53 -> 56         0.28903

 Excited State   8:      Singlet-A      7.1055 eV  174.49 nm  f=0.0017  <S**2>=0.000
      52 -> 56        -0.25376
      53 -> 56         0.50978
      53 -> 57         0.39241

 Excited State   9:      Singlet-A      7.3035 eV  169.76 nm  f=0.0009  <S**2>=0.000
      52 -> 56         0.12199
      53 -> 56        -0.37228
      53 -> 57         0.55574
      53 -> 59        -0.12018

 Excited State  10:      Singlet-A      7.6264 eV  162.57 nm  f=0.0004  <S**2>=0.000
      51 -> 56         0.50743
      51 -> 57         0.44002
      52 -> 57        -0.14174

 The electronic state is 1-A.
 Alpha  occ. eigenvalues --  -19.17219 -19.17164 -14.32950 -10.24291 -10.24162
 Alpha  occ. eigenvalues --  -10.23685 -10.23644 -10.21025 -10.20460 -10.20406
 Alpha  occ. eigenvalues --  -10.18556 -10.17562 -10.17488 -10.17161  -1.05894
 Alpha  occ. eigenvalues --   -1.05723  -0.92243  -0.84052  -0.76934  -0.74523
 Alpha  occ. eigenvalues --   -0.72489  -0.70636  -0.68845  -0.65582  -0.59972
 Alpha  occ. eigenvalues --   -0.58828  -0.57416  -0.53856  -0.49268  -0.49090
 Alpha  occ. eigenvalues --   -0.48511  -0.47670  -0.46321  -0.45690  -0.45459
 Alpha  occ. eigenvalues --   -0.44949  -0.43343  -0.41170  -0.39558  -0.39441
 Alpha  occ. eigenvalues --   -0.38027  -0.37370  -0.36998  -0.36787  -0.35825
 Alpha  occ. eigenvalues --   -0.35374  -0.33049  -0.32843  -0.32085  -0.29250
 Alpha  occ. eigenvalues --   -0.22508  -0.21703  -0.20537
 Alpha virt. eigenvalues --    0.01250   0.02661   0.07837   0.09693   0.10871
 Alpha virt. eigenvalues --    0.11204   0.12534   0.12811   0.13532   0.14603
 Alpha virt. eigenvalues --    0.15322   0.15777   0.15953   0.16714   0.17098

 Mulliken atomic charges:
              1
     1  C   -0.216874
     2  O   -0.476761
     3  C    0.346536
     4  C   -0.160364
     5  C   -0.183746
     6  C   -0.176274
     7  C    0.350929
     8  C   -0.274476
     9  O   -0.497808
    10  C   -0.035009
    11  C   -0.138950
    12  N   -0.373555
    13  C   -0.295753
    14  C   -0.304231
    15  H    0.169427
    16  H    0.161757
    17  H    0.161649
    18  H    0.131902
    19  H    0.116539
    20  H    0.133703
    21  H    0.123156
    22  H    0.157242
    23  H    0.145756
    24  H    0.128348
    25  H    0.152964
    26  H    0.152949
    27  H    0.150767
    28  H    0.121751
    29  H    0.152024
    30  H    0.123000
    31  H    0.153403
 Sum of Mulliken atomic charges =  -0.00000

 Dipole moment (field-independent basis, Debye):
    X=             -1.8913    Y=             -1.5173    Z=              0.4601  Tot=              2.4680
 Quadrupole moment (field-independent basis, Debye-Ang):
   XX=            -76.6651   YY=            -78.5377   ZZ=            -86.9282
   XY=             -6.3713   XZ=             -0.5711   YZ=              0.6197

 Summary of Natural Population Analysis:

                                       Natural Population
                Natural  -----------------------------------------------
    Atom  No    Charge         Core      Valence    Rydberg      Total
 -----------------------------------------------------------------------
      C    1   -0.31998      1.99943     4.30646    0.01409     6.31998
      O    2   -0.46850      1.99975     6.45679    0.01196     8.46850
      C    3    0.29383      1.99882     3.68349    0.02386     5.70617
      C    4   -0.24744      1.99905     4.23010    0.01829     6.24744
      C    5   -0.31122      1.99916     4.29168    0.02037     6.31122
      C    6   -0.26636      1.99905     4.25207    0.01524     6.26636
      C    7    0.30174      1.99884     3.67519    0.02423     5.69826
      C    8   -0.40976      1.99900     4.39237    0.01839     6.40976
      O    9   -0.48372      1.99974     6.47181    0.01217     8.48372
      C   10   -0.10859      1.99925     4.09226    0.01709     6.10859
      C   11   -0.27629      1.99933     4.25900    0.01796     6.27629
      N   12   -0.50269      1.99948     5.48866    0.01455     7.50269
      C   13   -0.46849      1.99949     4.45617    0.01283     6.46849
      C   14   -0.47260      1.99948     4.46011    0.01301     6.47260
      H   15    0.22716      0.00000     0.77229    0.00055     0.77284
      H   16    0.21004      0.00000     0.78800    0.00196     0.78996
      H   17    0.20997      0.00000     0.78807    0.00196     0.79003
      H   18    0.23746      0.00000     0.76131    0.00123     0.76254
      H   19    0.22846      0.00000     0.77075    0.00079     0.77154
      H   20    0.23045      0.00000     0.76866    0.00089     0.76955
      H   21    0.23577      0.00000     0.76287    0.00136     0.76423
      H   22    0.21924      0.00000     0.77729    0.00346     0.78076
      H   23    0.20796      0.00000     0.78928    0.00275     0.79204
      H   24    0.20609      0.00000     0.78996    0.00395     0.79391
      H   25    0.23841      0.00000     0.75975    0.00183     0.76159
      H   26    0.22693      0.00000     0.77227    0.00080     0.77307
      H   27    0.22717      0.00000     0.77194    0.00088     0.77283
      H   28    0.19146      0.00000     0.80522    0.00332     0.80854
      H   29    0.22288      0.00000     0.77626    0.00086     0.77712
      H   30    0.19153      0.00000     0.80502    0.00345     0.80847
      H   31    0.22907      0.00000     0.77006    0.00087     0.77093
 =======================================================================
   * Total *   -0.00000     27.98985    77.74517    0.26498   106.00000

 Normal termination of Gaussian 09 at Thu Sep 30 18:26:21 2021.
