 Gaussian 09, Revision A.02,

 -----------------------------------
 #p opt b3lyp/6-31G* scf=(xqc,tight)
 -----------------------------------

 -------------------------------
 CCN(C(=O)Oc1ccc(cc1)C)CC_conf_0
 -------------------------------
 Symbolic Z-matrix:
 Charge =  0 Multiplicity = 1

 SCF Done:  E(RB3LYP) =  -672.739927170     A.U. after   15 cycles
 SCF Done:  E(RB3LYP) =  -672.743775272     A.U. after   12 cycles
 SCF Done:  E(RB3LYP) =  -672.743888836     A.U. after   15 cycles
 SCF Done:  E(RB3LYP) =  -672.744185370     A.U. after   12 cycles
 SCF Done:  E(RB3LYP) =  -672.744402928     A.U. after   12 cycles
 SCF Done:  E(RB3LYP) =  -672.744436603     A.U. after   11 cycles
 SCF Done:  E(RB3LYP) =  -672.744457729     A.U. after   15 cycles
 SCF Done:  E(RB3LYP) =  -672.744466454     A.U. after   10 cycles
 SCF Done:  E(RB3LYP) =  -672.744470808     A.U. after    9 cycles
 SCF Done:  E(RB3LYP) =  -672.744471490     A.U. after    8 cycles
 SCF Done:  E(RB3LYP) =  -672.744471623     A.U. after    6 cycles
 SCF Done:  E(RB3LYP) =  -672.744471643     A.U. after    6 cycles
 SCF Done:  E(RB3LYP) =  -672.744471705     A.U. after    7 cycles
 SCF Done:  E(RB3LYP) =  -672.744471850     A.U. after    9 cycles
 SCF Done:  E(RB3LYP) =  -672.744472119     A.U. after    8 cycles
 SCF Done:  E(RB3LYP) =  -672.744472275     A.U. after    7 cycles
 SCF Done:  E(RB3LYP) =  -672.744472337     A.U. after    6 cycles
 SCF Done:  E(RB3LYP) =  -672.744472341     A.U. after    6 cycles
 Optimization completed on the basis of negligible forces.
    -- Stationary point found.
 Normal termination of Gaussian 09 at Thu Sep 30 01:09:52 2021.

 ----------------------------------------------------------------------
 #p freq b3lyp/6-31G* volume NMR pop=NPA density=current Geom=AllCheck
 Guess=Read
 ----------------------------------------------------------------------

 CCN(C(=O)Oc1ccc(cc1)C)CC_conf_0
 -------------------------------
 Redundant internal coordinates taken from checkpoint file:
 C12H17NO2_36e4_conf_0.chk
 Charge =  0 Multiplicity = 1

 SCF Done:  E(RB3LYP) =  -672.744472341     A.U. after    1 cycles

  1  C    Isotropic =   175.6462   Anisotropy =    21.2150

  2  C    Isotropic =   146.8465   Anisotropy =    42.6986

  3  N    Isotropic =   158.8116   Anisotropy =    68.9050

  4  C    Isotropic =    46.6756   Anisotropy =    77.1289

  5  O    Isotropic =    64.8726   Anisotropy =   383.0957

  6  O    Isotropic =   144.7035   Anisotropy =   132.0318

  7  C    Isotropic =    46.5402   Anisotropy =   108.8781

  8  C    Isotropic =    76.5347   Anisotropy =   136.6902

  9  C    Isotropic =    67.1460   Anisotropy =   144.9633

 10  C    Isotropic =    63.1682   Anisotropy =   174.1355

 11  C    Isotropic =    67.0953   Anisotropy =   149.6749

 12  C    Isotropic =    73.0318   Anisotropy =   152.0467

 13  C    Isotropic =   167.9320   Anisotropy =    34.8005

 14  C    Isotropic =   147.6968   Anisotropy =    40.6795

 15  C    Isotropic =   174.8569   Anisotropy =    22.3055

 16  H    Isotropic =    31.3997   Anisotropy =    10.6005

 17  H    Isotropic =    31.0852   Anisotropy =     6.8253

 18  H    Isotropic =    30.6663   Anisotropy =     7.1044

 19  H    Isotropic =    29.5487   Anisotropy =     6.5727

 20  H    Isotropic =    28.3512   Anisotropy =     5.8452

 21  H    Isotropic =    25.5493   Anisotropy =     7.0792

 22  H    Isotropic =    25.2223   Anisotropy =     6.4274

 23  H    Isotropic =    25.1257   Anisotropy =     6.8088

 24  H    Isotropic =    24.8851   Anisotropy =     9.1796

 25  H    Isotropic =    30.2734   Anisotropy =     7.2634

 26  H    Isotropic =    29.7307   Anisotropy =     8.3712

 27  H    Isotropic =    30.0034   Anisotropy =     7.5778

 28  H    Isotropic =    28.4500   Anisotropy =     4.3804

 29  H    Isotropic =    29.3923   Anisotropy =     6.3586

 30  H    Isotropic =    30.6662   Anisotropy =     7.0690

 31  H    Isotropic =    31.3538   Anisotropy =    10.3451

 32  H    Isotropic =    30.9819   Anisotropy =     7.1324

  Exact polarizability: 196.251   2.395 136.484  -3.746   5.234  84.093
 Approx polarizability: 247.599   7.406 216.485  -7.937   7.805 128.494

                     1                      2                      3
                     A                      A                      A
 Frequencies --    26.7266                37.4772                38.8728
 Red. masses --     2.8192                 2.6584                 1.3193
 Frc consts  --     0.0012                 0.0022                 0.0012
 IR Inten    --     0.3267                 0.8599                 0.7717

                     4                      5                      6
                     A                      A                      A
 Frequencies --    52.7022                70.0046                84.6900
 Red. masses --     3.0382                 2.8906                 3.5663
 Frc consts  --     0.0050                 0.0083                 0.0151
 IR Inten    --     0.3427                 0.4455                 1.7284

                     7                      8                      9
                     A                      A                      A
 Frequencies --   113.6255               117.6971               163.2062
 Red. masses --     4.2172                 4.8814                 3.0053
 Frc consts  --     0.0321                 0.0398                 0.0472
 IR Inten    --     0.4115                 1.4239                 0.2754

                    10                     11                     12
                     A                      A                      A
 Frequencies --   221.7713               232.1181               260.6233
 Red. masses --     1.4304                 1.2551                 1.8866
 Frc consts  --     0.0414                 0.0398                 0.0755
 IR Inten    --     0.3404                 1.4213                 0.5935

                    13                     14                     15
                     A                      A                      A
 Frequencies --   302.4675               326.7030               335.9745
 Red. masses --     3.1971                 2.7590                 3.3400
 Frc consts  --     0.1723                 0.1735                 0.2221
 IR Inten    --     0.6924                 1.7180                 0.9350

                    16                     17                     18
                     A                      A                      A
 Frequencies --   374.4035               411.6187               424.5905
 Red. masses --     3.4791                 3.7706                 3.0813
 Frc consts  --     0.2873                 0.3764                 0.3273
 IR Inten    --    13.8351                 3.9240                 0.1252

                    19                     20                     21
                     A                      A                      A
 Frequencies --   438.7010               490.2309               519.3833
 Red. masses --     2.8430                 3.7883                 2.6833
 Frc consts  --     0.3224                 0.5364                 0.4265
 IR Inten    --     5.8780                 4.1839                 7.5010

                    22                     23                     24
                     A                      A                      A
 Frequencies --   569.2090               623.2884               656.1505
 Red. masses --     4.0824                 3.8983                 6.3335
 Frc consts  --     0.7793                 0.8923                 1.6066
 IR Inten    --     2.6403                 2.2853                 2.3625

                    25                     26                     27
                     A                      A                      A
 Frequencies --   712.0557               743.9120               765.3975
 Red. masses --     3.6489                 9.1071                 3.9233
 Frc consts  --     1.0900                 2.9694                 1.3542
 IR Inten    --     0.8242                19.5460                 2.8613

                    28                     29                     30
                     A                      A                      A
 Frequencies --   787.6314               796.4979               815.8204
 Red. masses --     1.5499                 1.1959                 1.6129
 Frc consts  --     0.5665                 0.4470                 0.6325
 IR Inten    --    15.6487                 4.1440                13.1228

                    31                     32                     33
                     A                      A                      A
 Frequencies --   835.0645               852.8527               859.7674
 Red. masses --     1.2604                 2.6466                 3.8302
 Frc consts  --     0.5179                 1.1342                 1.6682
 IR Inten    --     0.3533                13.4003                 9.9948

                    34                     35                     36
                     A                      A                      A
 Frequencies --   949.0963               953.2799               955.1738
 Red. masses --     1.2935                 2.2450                 1.3268
 Frc consts  --     0.6865                 1.2020                 0.7132
 IR Inten    --     2.1371                 7.2571                 0.4626

                    37                     38                     39
                     A                      A                      A
 Frequencies --   973.6187              1019.8574              1039.6550
 Red. masses --     2.6897                 1.4010                 2.8029
 Frc consts  --     1.5022                 0.8586                 1.7850
 IR Inten    --    45.4497                 0.7240                 7.9499

                    40                     41                     42
                     A                      A                      A
 Frequencies --  1063.5457              1076.2538              1102.8065
 Red. masses --     2.8921                 1.5098                 1.9263
 Frc consts  --     1.9274                 1.0304                 1.3803
 IR Inten    --    21.1840                11.3200                16.4460

                    43                     44                     45
                     A                      A                      A
 Frequencies --  1116.6393              1127.1870              1144.3978
 Red. masses --     1.7831                 1.7110                 1.2671
 Frc consts  --     1.3099                 1.2808                 0.9777
 IR Inten    --    11.2120                29.4303                 8.3283

                    46                     47                     48
                     A                      A                      A
 Frequencies --  1189.1314              1205.0598              1238.4212
 Red. masses --     2.2999                 1.2700                 2.2927
 Frc consts  --     1.9161                 1.0866                 2.0717
 IR Inten    --   195.1447                92.1150                82.6956

                    49                     50                     51
                     A                      A                      A
 Frequencies --  1252.0572              1266.0527              1311.1555
 Red. masses --     5.3178                 3.0321                 1.5750
 Frc consts  --     4.9116                 2.8635                 1.5953
 IR Inten    --   425.2938                85.8495               210.9897

                    52                     53                     54
                     A                      A                      A
 Frequencies --  1342.5919              1350.3918              1357.7730
 Red. masses --     1.4264                 5.1076                 1.3187
 Frc consts  --     1.5149                 5.4877                 1.4324
 IR Inten    --     1.7073                11.8405                15.3261

                    55                     56                     57
                     A                      A                      A
 Frequencies --  1400.7780              1421.7141              1437.6932
 Red. masses --     1.2817                 1.2824                 1.2969
 Frc consts  --     1.4817                 1.5272                 1.5794
 IR Inten    --    18.6752                10.5968                12.4872

                    58                     59                     60
                     A                      A                      A
 Frequencies --  1439.4741              1444.3987              1457.4855
 Red. masses --     1.2609                 1.2440                 2.7161
 Frc consts  --     1.5393                 1.5291                 3.3994
 IR Inten    --    24.1026                 0.6866                 4.1495

                    61                     62                     63
                     A                      A                      A
 Frequencies --  1462.2973              1507.1630              1517.4885
 Red. masses --     2.0912                 1.0708                 1.0480
 Frc consts  --     2.6346                 1.4331                 1.4219
 IR Inten    --   274.6645                 7.0402                 5.1799

                    64                     65                     66
                     A                      A                      A
 Frequencies --  1520.4968              1521.9689              1525.7027
 Red. masses --     1.0445                 1.0597                 1.0996
 Frc consts  --     1.4227                 1.4463                 1.5081
 IR Inten    --     2.2295                 3.7070                 7.8781

                    67                     68                     69
                     A                      A                      A
 Frequencies --  1527.7763              1534.0380              1537.6812
 Red. masses --     1.0797                 1.0601                 1.1130
 Frc consts  --     1.4848                 1.4698                 1.5505
 IR Inten    --    47.0774                 8.5444                37.8156

                    70                     71                     72
                     A                      A                      A
 Frequencies --  1562.5046              1643.3513              1671.1890
 Red. masses --     2.5417                 6.2836                 5.9171
 Frc consts  --     3.6561                 9.9982                 9.7366
 IR Inten    --    58.4131                 2.2080                 5.9979

                    73                     74                     75
                     A                      A                      A
 Frequencies --  1809.9141              3040.3587              3051.6428
 Red. masses --    11.2754                 1.0401                 1.0363
 Frc consts  --    21.7620                 5.6649                 5.6860
 IR Inten    --   370.9271                38.6004                18.9677

                    76                     77                     78
                     A                      A                      A
 Frequencies --  3053.2237              3062.3865              3071.8045
 Red. masses --     1.0361                 1.0681                 1.0687
 Frc consts  --     5.6906                 5.9019                 5.9412
 IR Inten    --    18.5355                29.9384                37.8390

                    79                     80                     81
                     A                      A                      A
 Frequencies --  3095.7400              3112.7339              3115.0751
 Red. masses --     1.0966                 1.1019                 1.1021
 Frc consts  --     6.1919                 6.2906                 6.3010
 IR Inten    --    22.6068                18.5678                22.2378

                    82                     83                     84
                     A                      A                      A
 Frequencies --  3122.7081              3133.0739              3133.5734
 Red. masses --     1.1022                 1.0979                 1.0980
 Frc consts  --     6.3326                 6.3496                 6.3522
 IR Inten    --    17.6339                23.9455                21.8179

                    85                     86                     87
                     A                      A                      A
 Frequencies --  3145.8007              3147.2435              3181.4204
 Red. masses --     1.1014                 1.1021                 1.0896
 Frc consts  --     6.4221                 6.4321                 6.4979
 IR Inten    --    18.8790                37.1314                19.4632

                    88                     89                     90
                     A                      A                      A
 Frequencies --  3182.6107              3212.9192              3248.5123
 Red. masses --     1.0887                 1.0934                 1.0928
 Frc consts  --     6.4974                 6.6503                 6.7947
 IR Inten    --    18.5473                 9.5279                 2.8416

 - Thermochemistry -
 -------------------
 Temperature   298.150 Kelvin.  Pressure   1.00000 Atm.
 Atom     1 has atomic number  6 and mass  12.00000

 Molecular mass:   207.12593 amu.
 Principal axes and moments of inertia in atomic units:
                           1         2         3
     Eigenvalues --  1267.658256494.768827431.91528
           X            0.99999   0.00321  -0.00284
           Y           -0.00315   0.99983   0.01833
           Z            0.00290  -0.01832   0.99983
 This molecule is an asymmetric top.
 Rotational symmetry number  1.
 Warning -- assumption of classical behavior for rotation
           may cause significant error
 Rotational temperatures (Kelvin)      0.06833     0.01334     0.01165
 Rotational constants (GHZ):           1.42368     0.27788     0.24284
 Zero-point vibrational energy     718652.5 (Joules/Mol)
                                  171.76208 (Kcal/Mol)
 Warning -- explicit consideration of  22 degrees of freedom as
           vibrations may cause significant error
 Vibrational temperatures:     38.45    53.92    55.93    75.83   100.72
          (Kelvin)            121.85   163.48   169.34   234.82   319.08
                              333.97   374.98   435.18   470.05   483.39
                              538.68   592.23   610.89   631.19   705.33
                              747.28   818.96   896.77   944.05  1024.49
                             1070.32  1101.23  1133.22  1145.98  1173.78
                             1201.47  1227.06  1237.01  1365.54  1371.56
                             1374.28  1400.82  1467.35  1495.83  1530.20
                             1548.49  1586.69  1606.59  1621.77  1646.53
                             1710.89  1733.81  1781.81  1801.43  1821.57
                             1886.46  1931.69  1942.91  1953.53  2015.40
                             2045.53  2068.52  2071.08  2078.16  2096.99
                             2103.92  2168.47  2183.32  2187.65  2189.77
                             2195.14  2198.13  2207.14  2212.38  2248.09
                             2364.41  2404.47  2604.06  4374.39  4390.63
                             4392.90  4406.09  4419.64  4454.07  4478.52
                             4481.89  4492.87  4507.79  4508.51  4526.10
                             4528.18  4577.35  4579.06  4622.67  4673.88

 Zero-point correction=                           0.273720 (Hartree/Particle)
 Thermal correction to Energy=                    0.289675
 Thermal correction to Enthalpy=                  0.290619
 Thermal correction to Gibbs Free Energy=         0.228059
 Sum of electronic and zero-point Energies=           -672.470752
 Sum of electronic and thermal Energies=              -672.454798
 Sum of electronic and thermal Enthalpies=            -672.453853
 Sum of electronic and thermal Free Energies=         -672.516413

                     E (Thermal)             CV                S
                      KCal/Mol        Cal/Mol-Kelvin    Cal/Mol-Kelvin
 Total                  181.774             57.878            131.668
 Electronic               0.000              0.000              0.000
 Translational            0.889              2.981             41.889
 Rotational               0.889              2.981             32.481
 Vibrational            179.996             51.917             57.298
 Vibration     1          0.593              1.984              6.059
 Vibration     2          0.594              1.982              5.388
 Vibration     3          0.594              1.981              5.316
 Vibration     4          0.596              1.977              4.713
 Vibration     5          0.598              1.968              4.153
 Vibration     6          0.601              1.960              3.779
 Vibration     7          0.607              1.938              3.206
 Vibration     8          0.608              1.935              3.138
 Vibration     9          0.623              1.888              2.512
 Vibration    10          0.648              1.808              1.945
 Vibration    11          0.653              1.792              1.863
 Vibration    12          0.669              1.745              1.658
 Vibration    13          0.694              1.669              1.403
 Vibration    14          0.710              1.622              1.276
 Vibration    15          0.717              1.604              1.231
 Vibration    16          0.746              1.525              1.062
 Vibration    17          0.776              1.445              0.921
 Vibration    18          0.787              1.417              0.877
 Vibration    19          0.799              1.386              0.831
 Vibration    20          0.846              1.272              0.683
 Vibration    21          0.874              1.207              0.611
 Vibration    22          0.925              1.098              0.506

 Optimization completed.
    -- Stationary point found.
 Normal termination of Gaussian 09 at Thu Sep 30 02:09:43 2021.
 Gaussian 09:  AM64L-G09RevA.02 11-Jun-2009

 ----------------------------------------------------------------------
 #p TD(NStates=10, Root=1) b3lyp/6-31G* volume pop=NPA density=current
 Geom=AllCheck Guess=Read
 ----------------------------------------------------------------------

 CCN(C(=O)Oc1ccc(cc1)C)CC_conf_0
 -------------------------------
 Redundant internal coordinates taken from checkpoint file:
 C12H17NO2_36e4_conf_0.chk
 Charge =  0 Multiplicity = 1

                         Standard orientation:
 ---------------------------------------------------------------------
 Center     Atomic      Atomic             Coordinates (Angstroms)
 Number     Number       Type             X           Y           Z
 ---------------------------------------------------------------------
      1          6           0        4.042222   -1.863137   -0.401729
      2          6           0        3.575047   -0.767969    0.560195
      3          7           0        2.469272    0.032438    0.024789
      4          6           0        1.201391   -0.393511    0.286199
      5          8           0        0.911903   -1.403317    0.900948
      6          8           0        0.278625    0.489452   -0.238444
      7          6           0       -1.084035    0.220774   -0.128900
      8          6           0       -1.897238    1.297324    0.215009
      9          6           0       -3.281359    1.130478    0.254284
     10          6           0       -3.871612   -0.104366   -0.038719
     11          6           0       -3.027109   -1.168190   -0.385433
     12          6           0       -1.642301   -1.019988   -0.437626
     13          6           0       -5.368966   -0.294551    0.038031
     14          6           0        2.779984    1.243581   -0.740941
     15          6           0        2.867296    2.503019    0.125681
     16          1           0        4.885502   -2.415165    0.029376
     17          1           0        4.367058   -1.443450   -1.360959
     18          1           0        3.229006   -2.570490   -0.590491
     19          1           0        4.397176   -0.080647    0.790651
     20          1           0        3.241638   -1.213551    1.499731
     21          1           0       -1.440382    2.256150    0.440102
     22          1           0       -3.910455    1.977209    0.519018
     23          1           0       -3.460134   -2.137144   -0.624019
     24          1           0       -1.004852   -1.854684   -0.699940
     25          1           0       -5.898640    0.660426   -0.043248
     26          1           0       -5.666048   -0.752660    0.990992
     27          1           0       -5.732414   -0.950185   -0.761285
     28          1           0        2.023882    1.371122   -1.517692
     29          1           0        3.735015    1.065701   -1.248651
     30          1           0        1.904038    2.704146    0.604240
     31          1           0        3.135677    3.371007   -0.487900
     32          1           0        3.624881    2.395278    0.910208
 ---------------------------------------------------------------------

 SCF Done:  E(RB3LYP) =  -672.744472341     A.U. after    2 cycles

 Excitation energies and oscillator strengths:

 Excited State   1:      Singlet-A      5.2645 eV  235.51 nm  f=0.0082  <S**2>=0.000
      54 -> 58        -0.37857
      56 -> 57         0.56689
      56 -> 58         0.12578
 This state for optimization and/or second-order correction.
 Total Energy, E(TD-HF/TD-KS) =  -672.551005188
 Copying the excited state density for this state as the 1-particle RhoCI density.

 Excited State   2:      Singlet-A      5.8274 eV  212.76 nm  f=0.2594  <S**2>=0.000
      54 -> 57         0.26147
      56 -> 57        -0.14548
      56 -> 58         0.62252

 Excited State   3:      Singlet-A      6.0143 eV  206.15 nm  f=0.0006  <S**2>=0.000
      55 -> 57         0.68933
      56 -> 57         0.11764

 Excited State   4:      Singlet-A      6.1292 eV  202.29 nm  f=0.0082  <S**2>=0.000
      54 -> 57        -0.15829
      55 -> 58         0.67173

 Excited State   5:      Singlet-A      6.4120 eV  193.36 nm  f=0.0294  <S**2>=0.000
      53 -> 57        -0.10079
      53 -> 58         0.54667
      53 -> 59        -0.24574
      54 -> 58         0.28235
      54 -> 59        -0.13056
      56 -> 57         0.12270

 Excited State   6:      Singlet-A      6.5743 eV  188.59 nm  f=0.2702  <S**2>=0.000
      53 -> 57         0.54475
      54 -> 57         0.35436
      56 -> 58        -0.15519
      56 -> 59         0.15730

 Excited State   7:      Singlet-A      6.7750 eV  183.00 nm  f=0.1804  <S**2>=0.000
      53 -> 57        -0.36818
      54 -> 57         0.32344
      56 -> 59         0.48021

 Excited State   8:      Singlet-A      6.9412 eV  178.62 nm  f=0.2456  <S**2>=0.000
      52 -> 57        -0.19155
      53 -> 58        -0.28151
      53 -> 59         0.12385
      54 -> 58         0.47251
      55 -> 57        -0.11138
      56 -> 57         0.31509
      56 -> 59         0.10718

 Excited State   9:      Singlet-A      7.0975 eV  174.69 nm  f=0.1500  <S**2>=0.000
      53 -> 57        -0.13284
      53 -> 58         0.25317
      53 -> 59         0.45286
      54 -> 57         0.14655
      54 -> 59         0.29530
      55 -> 59         0.24943
      56 -> 59        -0.14786

 Excited State  10:      Singlet-A      7.1398 eV  173.65 nm  f=0.2274  <S**2>=0.000
      52 -> 58        -0.26829
      53 -> 57         0.15922
      53 -> 58         0.13848
      53 -> 59         0.16458
      54 -> 57        -0.32648
      54 -> 59         0.13989
      56 -> 58         0.16898
      56 -> 59         0.42501

 The electronic state is 1-A.
 Alpha  occ. eigenvalues --  -19.19063 -19.11261 -14.36172 -10.32747 -10.24304
 Alpha  occ. eigenvalues --  -10.22581 -10.22084 -10.19115 -10.18534 -10.18471
 Alpha  occ. eigenvalues --  -10.18387 -10.18331 -10.18273 -10.18071 -10.17873
 Alpha  occ. eigenvalues --   -1.10041  -1.00992  -0.93789  -0.85002  -0.77513
 Alpha  occ. eigenvalues --   -0.76802  -0.74219  -0.74179  -0.68954  -0.64599
 Alpha  occ. eigenvalues --   -0.64307  -0.61246  -0.59137  -0.55302  -0.52532
 Alpha  occ. eigenvalues --   -0.49324  -0.47800  -0.47222  -0.46071  -0.44735
 Alpha  occ. eigenvalues --   -0.44075  -0.43169  -0.42682  -0.41779  -0.41560
 Alpha  occ. eigenvalues --   -0.40744  -0.39808  -0.39032  -0.37950  -0.37392
 Alpha  occ. eigenvalues --   -0.37194  -0.35611  -0.35366  -0.35153  -0.34450
 Alpha  occ. eigenvalues --   -0.33619  -0.30564  -0.26889  -0.24412  -0.23999
 Alpha  occ. eigenvalues --   -0.22268
 Alpha virt. eigenvalues --    0.00391   0.00756   0.05839   0.08209   0.09489
 Alpha virt. eigenvalues --    0.11246   0.12380   0.12871   0.13701   0.14425
 Alpha virt. eigenvalues --    0.14733   0.15364   0.15552   0.15990   0.16271

 Mulliken atomic charges:
              1
     1  C   -0.443974
     2  C   -0.145785
     3  N   -0.436870
     4  C    0.789512
     5  O   -0.508123
     6  O   -0.536733
     7  C    0.347085
     8  C   -0.177105
     9  C   -0.207361
    10  C    0.195905
    11  C   -0.213515
    12  C   -0.144169
    13  C   -0.531912
    14  C   -0.143468
    15  C   -0.443468
    16  H    0.149075
    17  H    0.145441
    18  H    0.173960
    19  H    0.145425
    20  H    0.184918
    21  H    0.129396
    22  H    0.120286
    23  H    0.120883
    24  H    0.147411
    25  H    0.156614
    26  H    0.172177
    27  H    0.159657
    28  H    0.177253
    29  H    0.150682
    30  H    0.167006
    31  H    0.148905
    32  H    0.150890
 Sum of Mulliken atomic charges =  -0.00000

 Dipole moment (field-independent basis, Debye):
    X=              2.0062    Y=              1.6166    Z=             -1.0976  Tot=              2.8005
 Quadrupole moment (field-independent basis, Debye-Ang):
   XX=            -71.6530   YY=            -88.5412   ZZ=            -92.2034
   XY=              2.2279   XZ=             -1.4453   YZ=              2.8165

 Summary of Natural Population Analysis:

                                       Natural Population
                Natural  -----------------------------------------------
    Atom  No    Charge         Core      Valence    Rydberg      Total
 -----------------------------------------------------------------------
      C    1   -0.68807      1.99945     4.68118    0.00744     6.68807
      C    2   -0.25561      1.99935     4.24082    0.01544     6.25561
      N    3   -0.49231      1.99930     5.47943    0.01357     7.49231
      C    4    0.93675      1.99936     3.01835    0.04553     5.06325
      O    5   -0.63738      1.99978     6.61848    0.01912     8.63738
      O    6   -0.52605      1.99969     6.51587    0.01048     8.52605
      C    7    0.32581      1.99872     3.65236    0.02310     5.67419
      C    8   -0.28724      1.99904     4.26877    0.01943     6.28724
      C    9   -0.25356      1.99907     4.23672    0.01777     6.25356
      C   10    0.01476      1.99906     3.97037    0.01581     5.98524
      C   11   -0.26030      1.99907     4.24318    0.01804     6.26030
      C   12   -0.28076      1.99904     4.26356    0.01816     6.28076
      C   13   -0.69425      1.99940     4.68710    0.00775     6.69425
      C   14   -0.26005      1.99934     4.24556    0.01514     6.26005
      C   15   -0.68759      1.99945     4.68067    0.00747     6.68759
      H   16    0.23597      0.00000     0.76317    0.00086     0.76403
      H   17    0.22456      0.00000     0.77451    0.00093     0.77544
      H   18    0.24313      0.00000     0.75561    0.00127     0.75687
      H   19    0.22763      0.00000     0.77105    0.00133     0.77237
      H   20    0.25945      0.00000     0.73859    0.00196     0.74055
      H   21    0.23574      0.00000     0.76300    0.00126     0.76426
      H   22    0.22670      0.00000     0.77226    0.00104     0.77330
      H   23    0.22730      0.00000     0.77166    0.00103     0.77270
      H   24    0.24827      0.00000     0.75054    0.00119     0.75173
      H   25    0.23815      0.00000     0.76053    0.00133     0.76185
      H   26    0.24969      0.00000     0.74869    0.00162     0.75031
      H   27    0.24110      0.00000     0.75704    0.00186     0.75890
      H   28    0.25355      0.00000     0.74497    0.00149     0.74645
      H   29    0.23211      0.00000     0.76646    0.00142     0.76789
      H   30    0.23863      0.00000     0.75998    0.00139     0.76137
      H   31    0.23571      0.00000     0.76337    0.00091     0.76429
      H   32    0.22814      0.00000     0.77095    0.00091     0.77186
 =======================================================================
   * Total *    0.00000     29.98913    81.73480    0.27607   112.00000

 Normal termination of Gaussian 09 at Thu Sep 30 07:02:53 2021.
