 Gaussian 09, Revision A.02,

 -----------------------------------
 #p opt b3lyp/6-31G* scf=(xqc,tight)
 -----------------------------------

 -------------------------------
 Cc1cc(C)c(c(c1)C)n1cncc1_conf_0
 -------------------------------
 Symbolic Z-matrix:
 Charge =  0 Multiplicity = 1

 SCF Done:  E(RB3LYP) =  -575.212256783     A.U. after   15 cycles
 SCF Done:  E(RB3LYP) =  -575.216046993     A.U. after   14 cycles
 SCF Done:  E(RB3LYP) =  -575.217659494     A.U. after   15 cycles
 SCF Done:  E(RB3LYP) =  -575.218112899     A.U. after   15 cycles
 SCF Done:  E(RB3LYP) =  -575.218482782     A.U. after   12 cycles
 SCF Done:  E(RB3LYP) =  -575.218631175     A.U. after   12 cycles
 SCF Done:  E(RB3LYP) =  -575.218684522     A.U. after   11 cycles
 SCF Done:  E(RB3LYP) =  -575.218761682     A.U. after   11 cycles
 SCF Done:  E(RB3LYP) =  -575.218811329     A.U. after   11 cycles
 SCF Done:  E(RB3LYP) =  -575.218839594     A.U. after   11 cycles
 SCF Done:  E(RB3LYP) =  -575.218867216     A.U. after   10 cycles
 SCF Done:  E(RB3LYP) =  -575.218868644     A.U. after    9 cycles
 SCF Done:  E(RB3LYP) =  -575.218872701     A.U. after   11 cycles
 SCF Done:  E(RB3LYP) =  -575.218872687     A.U. after   11 cycles
 SCF Done:  E(RB3LYP) =  -575.218875252     A.U. after   15 cycles
 SCF Done:  E(RB3LYP) =  -575.218875448     A.U. after    9 cycles
 SCF Done:  E(RB3LYP) =  -575.218875479     A.U. after    7 cycles
 SCF Done:  E(RB3LYP) =  -575.218875498     A.U. after    7 cycles
 Optimization completed on the basis of negligible forces.
    -- Stationary point found.
 Normal termination of Gaussian 09 at Mon Oct  4 03:30:28 2021.

 ----------------------------------------------------------------------
 #p freq b3lyp/6-31G* volume NMR pop=NPA density=current Geom=AllCheck
 Guess=Read
 ----------------------------------------------------------------------

 Cc1cc(C)c(c(c1)C)n1cncc1_conf_0
 -------------------------------
 Redundant internal coordinates taken from checkpoint file:
 C12H14N2_b800_conf_0.chk
 Charge =  0 Multiplicity = 1

 SCF Done:  E(RB3LYP) =  -575.218875498     A.U. after    1 cycles

  1  C    Isotropic =   167.8380   Anisotropy =    34.8835

  2  C    Isotropic =    57.4916   Anisotropy =   177.8991

  3  C    Isotropic =    66.2460   Anisotropy =   124.6690

  4  C    Isotropic =    58.0067   Anisotropy =   168.9252

  5  C    Isotropic =   170.5959   Anisotropy =    28.1373

  6  C    Isotropic =    59.7356   Anisotropy =   111.8156

  7  C    Isotropic =    58.0076   Anisotropy =   168.9270

  8  C    Isotropic =    66.2485   Anisotropy =   124.6967

  9  C    Isotropic =   170.5941   Anisotropy =    28.1343

 10  N    Isotropic =    77.5337   Anisotropy =   124.0231

 11  C    Isotropic =    62.4455   Anisotropy =    81.2567

 12  N    Isotropic =   -10.9190   Anisotropy =   391.2707

 13  C    Isotropic =    65.8218   Anisotropy =   108.0118

 14  C    Isotropic =    78.9315   Anisotropy =    92.8036

 15  H    Isotropic =    30.1183   Anisotropy =     7.3350

 16  H    Isotropic =    29.7249   Anisotropy =     8.4043

 17  H    Isotropic =    30.1165   Anisotropy =     7.3373

 18  H    Isotropic =    25.3567   Anisotropy =     8.0401

 19  H    Isotropic =    30.6129   Anisotropy =     8.4849

 20  H    Isotropic =    30.0829   Anisotropy =     6.0649

 21  H    Isotropic =    30.0635   Anisotropy =     6.5099

 22  H    Isotropic =    25.3563   Anisotropy =     8.0413

 23  H    Isotropic =    30.0822   Anisotropy =     6.0682

 24  H    Isotropic =    30.6126   Anisotropy =     8.4848

 25  H    Isotropic =    30.0634   Anisotropy =     6.5080

 26  H    Isotropic =    25.2976   Anisotropy =     6.1917

 27  H    Isotropic =    25.1492   Anisotropy =     3.7031

 28  H    Isotropic =    25.8509   Anisotropy =     5.2147

  Exact polarizability: 181.989   0.003 124.556   2.277  -0.003  88.948
 Approx polarizability: 259.191   0.008 193.322  -1.187  -0.009 148.113

                     1                      2                      3
                     A                      A                      A
 Frequencies --    29.7661                32.6850                66.0850
 Red. masses --     2.3879                 1.1344                 3.6519
 Frc consts  --     0.0012                 0.0007                 0.0094
 IR Inten    --     0.9944                 0.0077                 0.5646

                     4                      5                      6
                     A                      A                      A
 Frequencies --    74.1170                95.6481                97.2420
 Red. masses --     4.8694                 1.0569                 1.1002
 Frc consts  --     0.0158                 0.0057                 0.0061
 IR Inten    --     0.8988                 0.4670                 0.0634

                     7                      8                      9
                     A                      A                      A
 Frequencies --   168.3988               206.6738               232.4792
 Red. masses --     2.8731                 3.7284                 2.9145
 Frc consts  --     0.0480                 0.0938                 0.0928
 IR Inten    --     0.7646                 2.2529                 0.0111

                    10                     11                     12
                     A                      A                      A
 Frequencies --   257.3729               275.6015               326.0744
 Red. masses --     3.3982                 2.5236                 4.3316
 Frc consts  --     0.1326                 0.1129                 0.2714
 IR Inten    --     1.3454                 0.3031                 0.1316

                    13                     14                     15
                     A                      A                      A
 Frequencies --   351.0974               426.6718               509.5225
 Red. masses --     3.9253                 4.3265                 3.4329
 Frc consts  --     0.2851                 0.4641                 0.5251
 IR Inten    --     0.0631                 1.2320                 0.5770

                    16                     17                     18
                     A                      A                      A
 Frequencies --   526.2270               561.4847               578.0510
 Red. masses --     3.1882                 4.0367                 4.1447
 Frc consts  --     0.5202                 0.7498                 0.8160
 IR Inten    --     0.0258                 1.2606                 0.7258

                    19                     20                     21
                     A                      A                      A
 Frequencies --   593.3654               616.7762               657.3019
 Red. masses --     3.1665                 4.6658                 4.7758
 Frc consts  --     0.6569                 1.0458                 1.2157
 IR Inten    --     2.7993                 0.3036                 0.1048

                    22                     23                     24
                     A                      A                      A
 Frequencies --   682.5204               727.5553               753.4538
 Red. masses --     3.9922                 1.2048                 4.4526
 Frc consts  --     1.0957                 0.3758                 1.4893
 IR Inten    --    16.8133                16.2183                 0.0815

                    25                     26                     27
                     A                      A                      A
 Frequencies --   809.6802               849.3720               874.6999
 Red. masses --     1.3133                 1.3230                 1.2636
 Frc consts  --     0.5073                 0.5624                 0.5696
 IR Inten    --    21.1240                 1.4783                12.6883

                    28                     29                     30
                     A                      A                      A
 Frequencies --   898.0590               914.4198               956.6853
 Red. masses --     1.2995                 6.4204                 2.6332
 Frc consts  --     0.6175                 3.1631                 1.4199
 IR Inten    --     0.0002                15.0114                 1.7450

                    31                     32                     33
                     A                      A                      A
 Frequencies --   959.8910               990.0896              1043.3596
 Red. masses --     3.8051                 5.5436                 1.5920
 Frc consts  --     2.0656                 3.2018                 1.0211
 IR Inten    --     7.2746                 7.4917                 6.4998

                    34                     35                     36
                     A                      A                      A
 Frequencies --  1045.2356              1069.4790              1072.3101
 Red. masses --     1.5399                 1.7103                 1.6322
 Frc consts  --     0.9912                 1.1526                 1.1058
 IR Inten    --     0.4382                 0.0003                22.7517

                    37                     38                     39
                     A                      A                      A
 Frequencies --  1074.3222              1076.0035              1077.7601
 Red. masses --     1.5769                 1.4993                 1.7211
 Frc consts  --     1.0723                 1.0227                 1.1779
 IR Inten    --    16.8887                 0.0425                20.0917

                    40                     41                     42
                     A                      A                      A
 Frequencies --  1117.0286              1152.1785              1207.1816
 Red. masses --     1.6860                 2.6044                 1.5624
 Frc consts  --     1.2395                 2.0371                 1.3415
 IR Inten    --     7.7419                10.6192                 0.6396

                    43                     44                     45
                     A                      A                      A
 Frequencies --  1271.5683              1292.7469              1306.0475
 Red. masses --     1.3957                 1.4249                 3.9481
 Frc consts  --     1.3296                 1.4030                 3.9679
 IR Inten    --    19.4572                 0.0717                14.6304

                    46                     47                     48
                     A                      A                      A
 Frequencies --  1326.2777              1337.9075              1347.0161
 Red. masses --     5.5334                 7.3716                 3.6596
 Frc consts  --     5.7347                 7.7744                 3.9123
 IR Inten    --     9.8343                 3.2455                17.7169

                    49                     50                     51
                     A                      A                      A
 Frequencies --  1402.9198              1442.3731              1445.8604
 Red. masses --     5.1504                 1.2424                 1.2315
 Frc consts  --     5.9725                 1.5229                 1.5169
 IR Inten    --     2.9026                 0.0199                 1.4041

                    52                     53                     54
                     A                      A                      A
 Frequencies --  1449.0033              1462.0422              1493.1185
 Red. masses --     1.2685                 2.6010                 1.8899
 Frc consts  --     1.5693                 3.2758                 2.4824
 IR Inten    --     0.0328                 0.1261                 0.0334

                    55                     56                     57
                     A                      A                      A
 Frequencies --  1511.6076              1512.0451              1518.0087
 Red. masses --     1.0468                 1.0441                 1.0561
 Frc consts  --     1.4093                 1.4064                 1.4338
 IR Inten    --    19.4437                 0.0593                 6.7774

                    58                     59                     60
                     A                      A                      A
 Frequencies --  1521.3795              1526.8727              1529.9776
 Red. masses --     1.0522                 2.6155                 1.2141
 Frc consts  --     1.4349                 3.5926                 1.6744
 IR Inten    --     0.0270                34.6895                22.8863

                    61                     62                     63
                     A                      A                      A
 Frequencies --  1546.8753              1552.0759              1637.7898
 Red. masses --     1.8536                 4.2035                 7.0877
 Frc consts  --     2.6132                 5.9660                11.2013
 IR Inten    --    93.5972                17.8857                 5.1922

                    64                     65                     66
                     A                      A                      A
 Frequencies --  1663.5602              3043.2081              3055.2581
 Red. masses --     5.4446                 1.0406                 1.0368
 Frc consts  --     8.8775                 5.6779                 5.7019
 IR Inten    --    12.3095                31.0682                29.7300

                    67                     68                     69
                     A                      A                      A
 Frequencies --  3055.8824              3100.8141              3109.6620
 Red. masses --     1.0368                 1.0956                 1.1005
 Frc consts  --     5.7044                 6.2064                 6.2697
 IR Inten    --     7.7449                19.4116                 0.1902

                    70                     71                     72
                     A                      A                      A
 Frequencies --  3109.7319              3127.3910              3135.5698
 Red. masses --     1.1005                 1.1029                 1.1024
 Frc consts  --     6.2701                 6.3555                 6.3858
 IR Inten    --    21.3205                14.7442                16.4719

                    73                     74                     75
                     A                      A                      A
 Frequencies --  3135.9387              3176.8515              3178.6262
 Red. masses --     1.1023                 1.0898                 1.0902
 Frc consts  --     6.3867                 6.4805                 6.4899
 IR Inten    --    20.2402                25.2096                13.0742

                    76                     77                     78
                     A                      A                      A
 Frequencies --  3258.0735              3264.1375              3291.2492
 Red. masses --     1.0918                 1.0959                 1.1032
 Frc consts  --     6.8280                 6.8793                 7.0407
 IR Inten    --     9.7260                 0.5497                 3.0500

 - Thermochemistry -
 -------------------
 Temperature   298.150 Kelvin.  Pressure   1.00000 Atm.
 Atom     1 has atomic number  6 and mass  12.00000

 Molecular mass:   186.11570 amu.
 Principal axes and moments of inertia in atomic units:
                           1         2         3
     Eigenvalues --  1229.611483848.181094671.89865
           X            0.99998  -0.00000   0.00578
           Y            0.00000   1.00000   0.00000
           Z           -0.00578  -0.00000   0.99998
 This molecule is an asymmetric top.
 Rotational symmetry number  1.
 Warning -- assumption of classical behavior for rotation
           may cause significant error
 Rotational temperatures (Kelvin)      0.07044     0.02251     0.01854
 Rotational constants (GHZ):           1.46773     0.46899     0.38630
 Zero-point vibrational energy     617113.9 (Joules/Mol)
                                  147.49377 (Kcal/Mol)
 Warning -- explicit consideration of  20 degrees of freedom as
           vibrations may cause significant error
 Vibrational temperatures:     42.83    47.03    95.08   106.64   137.62
          (Kelvin)            139.91   242.29   297.36   334.49   370.30
                              396.53   469.15   505.15   613.88   733.09
                              757.12   807.85   831.69   853.72   887.40
                              945.71   981.99  1046.79  1084.05  1164.95
                             1222.06  1258.50  1292.11  1315.64  1376.46
                             1381.07  1424.52  1501.16  1503.86  1538.74
                             1542.81  1545.71  1548.13  1550.65  1607.15
                             1657.73  1736.86  1829.50  1859.97  1879.11
                             1908.22  1924.95  1938.05  2018.49  2075.25
                             2080.27  2084.79  2103.55  2148.26  2174.86
                             2175.49  2184.07  2188.92  2196.83  2201.29
                             2225.61  2233.09  2356.41  2393.49  4378.49
                             4395.83  4396.73  4461.37  4474.10  4474.21
                             4499.61  4511.38  4511.91  4570.78  4573.33
                             4687.64  4696.36  4735.37

 Zero-point correction=                           0.235046 (Hartree/Particle)
 Thermal correction to Energy=                    0.248703
 Thermal correction to Enthalpy=                  0.249647
 Thermal correction to Gibbs Free Energy=         0.192972
 Sum of electronic and zero-point Energies=           -574.983829
 Sum of electronic and thermal Energies=              -574.970173
 Sum of electronic and thermal Enthalpies=            -574.969229
 Sum of electronic and thermal Free Energies=         -575.025903

                     E (Thermal)             CV                S
                      KCal/Mol        Cal/Mol-Kelvin    Cal/Mol-Kelvin
 Total                  156.063             50.161            119.281
 Electronic               0.000              0.000              0.000
 Translational            0.889              2.981             41.570
 Rotational               0.889              2.981             31.470
 Vibrational            154.286             44.200             46.242
 Vibration     1          0.594              1.984              5.845
 Vibration     2          0.594              1.983              5.659
 Vibration     3          0.597              1.970              4.267
 Vibration     4          0.599              1.966              4.041
 Vibration     5          0.603              1.952              3.541
 Vibration     6          0.603              1.951              3.509
 Vibration     7          0.625              1.881              2.453
 Vibration     8          0.641              1.830              2.073
 Vibration     9          0.653              1.791              1.860
 Vibration    10          0.667              1.750              1.680
 Vibration    11          0.677              1.718              1.561
 Vibration    12          0.710              1.623              1.279
 Vibration    13          0.728              1.573              1.161
 Vibration    14          0.788              1.412              0.870
 Vibration    15          0.865              1.229              0.635
 Vibration    16          0.881              1.192              0.596
 Vibration    17          0.917              1.115              0.521
 Vibration    18          0.935              1.079              0.489
 Vibration    19          0.951              1.046              0.461
 Vibration    20          0.976              0.996              0.422

 Optimization completed.
    -- Stationary point found.
 Normal termination of Gaussian 09 at Mon Oct  4 05:03:41 2021.
 Gaussian 09:  AM64L-G09RevA.02 11-Jun-2009

 ----------------------------------------------------------------------
 #p TD(NStates=10, Root=1) b3lyp/6-31G* volume pop=NPA density=current
 Geom=AllCheck Guess=Read
 ----------------------------------------------------------------------

 Cc1cc(C)c(c(c1)C)n1cncc1_conf_0
 -------------------------------
 Redundant internal coordinates taken from checkpoint file:
 C12H14N2_b800_conf_0.chk
 Charge =  0 Multiplicity = 1

                         Standard orientation:
 ---------------------------------------------------------------------
 Center     Atomic      Atomic             Coordinates (Angstroms)
 Number     Number       Type             X           Y           Z
 ---------------------------------------------------------------------
      1          6           0        4.295335   -0.000155    0.020434
      2          6           0        2.784610   -0.000097   -0.010080
      3          6           0        2.067693   -1.200756   -0.012672
      4          6           0        0.669796   -1.227626   -0.010333
      5          6           0       -0.078172   -2.539859   -0.011352
      6          6           0       -0.013833    0.000059   -0.008707
      7          6           0        0.669943    1.227679   -0.010227
      8          6           0        2.067822    1.200657   -0.012549
      9          6           0       -0.077893    2.539987   -0.011133
     10          7           0       -1.449700    0.000146   -0.006225
     11          6           0       -2.271600   -0.000220    1.093083
     12          7           0       -3.546019   -0.000243    0.768122
     13          6           0       -3.563185    0.000088   -0.608895
     14          6           0       -2.285946    0.000333   -1.111363
     15          1           0        4.706499   -0.887001   -0.473147
     16          1           0        4.670237    0.000775    1.052644
     17          1           0        4.706586    0.885759   -0.474753
     18          1           0        2.609402   -2.144306   -0.017853
     19          1           0        0.618413   -3.382479   -0.045520
     20          1           0       -0.753038   -2.619239   -0.870970
     21          1           0       -0.699498   -2.649675    0.885011
     22          1           0        2.609644    2.144144   -0.017609
     23          1           0       -0.752465    2.619674   -0.870954
     24          1           0        0.618785    3.382549   -0.044860
     25          1           0       -0.699507    2.649624    0.885052
     26          1           0       -1.869010   -0.000394    2.097680
     27          1           0       -4.494590    0.000189   -1.159627
     28          1           0       -1.888840    0.000521   -2.115607
 ---------------------------------------------------------------------

 SCF Done:  E(RB3LYP) =  -575.218875498     A.U. after    1 cycles

 Excitation energies and oscillator strengths:

 Excited State   1:      Singlet-A      4.8608 eV  255.07 nm  f=0.0000  <S**2>=0.000
      50 -> 51         0.70553
 This state for optimization and/or second-order correction.
 Total Energy, E(TD-HF/TD-KS) =  -575.040243081
 Copying the excited state density for this state as the 1-particle RhoCI density.

 Excited State   2:      Singlet-A      5.2039 eV  238.25 nm  f=0.0002  <S**2>=0.000
      50 -> 52         0.70665

 Excited State   3:      Singlet-A      5.2162 eV  237.69 nm  f=0.0036  <S**2>=0.000
      47 -> 52         0.12134
      48 -> 51         0.52136
      49 -> 52        -0.46081

 Excited State   4:      Singlet-A      5.7353 eV  216.18 nm  f=0.0942  <S**2>=0.000
      47 -> 51         0.13573
      48 -> 52         0.26813
      49 -> 51         0.63813

 Excited State   5:      Singlet-A      5.9448 eV  208.56 nm  f=0.0001  <S**2>=0.000
      46 -> 51         0.70213

 Excited State   6:      Singlet-A      6.1797 eV  200.63 nm  f=0.0092  <S**2>=0.000
      47 -> 51         0.61486
      48 -> 52        -0.33598

 Excited State   7:      Singlet-A      6.2947 eV  196.97 nm  f=0.0143  <S**2>=0.000
      47 -> 52         0.15743
      47 -> 53         0.27039
      49 -> 52         0.12685
      49 -> 53         0.61420

 Excited State   8:      Singlet-A      6.3105 eV  196.47 nm  f=0.0670  <S**2>=0.000
      47 -> 52         0.49309
      48 -> 51         0.23216
      49 -> 52         0.39306
      49 -> 53        -0.19927

 Excited State   9:      Singlet-A      6.3221 eV  196.11 nm  f=0.0006  <S**2>=0.000
      46 -> 52         0.70013

 Excited State  10:      Singlet-A      6.4967 eV  190.84 nm  f=0.1051  <S**2>=0.000
      46 -> 54         0.11113
      50 -> 53         0.66035
      50 -> 54         0.14943

 The electronic state is 1-A.
 Alpha  occ. eigenvalues --  -14.38773 -14.30350 -10.22974 -10.22896 -10.20838
 Alpha  occ. eigenvalues --  -10.20838 -10.20629 -10.20516 -10.19079 -10.19078
 Alpha  occ. eigenvalues --  -10.19067 -10.19000 -10.18783 -10.18783  -1.00957
 Alpha  occ. eigenvalues --   -0.89287  -0.85097  -0.78975  -0.78179  -0.73489
 Alpha  occ. eigenvalues --   -0.70740  -0.69065  -0.68597  -0.60324  -0.58750
 Alpha  occ. eigenvalues --   -0.58563  -0.56329  -0.54052  -0.49732  -0.46591
 Alpha  occ. eigenvalues --   -0.43806  -0.43560  -0.42751  -0.41781  -0.41714
 Alpha  occ. eigenvalues --   -0.41708  -0.41701  -0.41108  -0.40599  -0.39780
 Alpha  occ. eigenvalues --   -0.39533  -0.37388  -0.34952  -0.34548  -0.34248
 Alpha  occ. eigenvalues --   -0.26592  -0.26495  -0.24636  -0.24088  -0.22115
 Alpha virt. eigenvalues --   -0.01449  -0.00459   0.03135   0.07433   0.09395
 Alpha virt. eigenvalues --    0.10561   0.11838   0.12150   0.12278   0.13702
 Alpha virt. eigenvalues --    0.14060   0.15373   0.15812   0.16391   0.17170

 Mulliken atomic charges:
              1
     1  C   -0.521008
     2  C    0.161914
     3  C   -0.295003
     4  C    0.211799
     5  C   -0.537318
     6  C   -0.060631
     7  C    0.211853
     8  C   -0.295060
     9  C   -0.537318
    10  N   -0.447361
    11  C    0.315053
    12  N   -0.405294
    13  C    0.033115
    14  C    0.141949
    15  H    0.125962
    16  H    0.124668
    17  H    0.125951
    18  H    0.078394
    19  H    0.161335
    20  H    0.109447
    21  H    0.118486
    22  H    0.078387
    23  H    0.109475
    24  H    0.161346
    25  H    0.118501
    26  H    0.243839
    27  H    0.217066
    28  H    0.250453
 Sum of Mulliken atomic charges =  -0.00000

 Dipole moment (field-independent basis, Debye):
    X=             -8.4013    Y=              0.0011    Z=             -1.8455  Tot=              8.6017
 Quadrupole moment (field-independent basis, Debye-Ang):
   XX=            -82.3389   YY=            -85.0695   ZZ=            -78.1552
   XY=             -0.0039   XZ=              8.8053   YZ=             -0.0013

 Summary of Natural Population Analysis:

                                       Natural Population
                Natural  -----------------------------------------------
    Atom  No    Charge         Core      Valence    Rydberg      Total
 -----------------------------------------------------------------------
      C    1   -0.66792      1.99942     4.66154    0.00696     6.66792
      C    2   -0.16189      1.99904     4.14524    0.01762     6.16189
      C    3   -0.24189      1.99899     4.22956    0.01334     6.24189
      C    4   -0.07164      1.99899     4.05767    0.01498     6.07164
      C    5   -0.67509      1.99940     4.66855    0.00714     6.67509
      C    6   -0.13494      1.99877     4.11276    0.02341     6.13494
      C    7   -0.07147      1.99899     4.05751    0.01498     6.07147
      C    8   -0.24203      1.99899     4.22969    0.01335     6.24203
      C    9   -0.67510      1.99940     4.66856    0.00714     6.67510
      N   10   -0.34852      1.99936     5.33445    0.01471     7.34852
      C   11    0.39945      1.99935     3.57563    0.02557     5.60055
      N   12   -0.50940      1.99952     5.48640    0.02347     7.50940
      C   13    0.07403      1.99923     3.90609    0.02065     5.92597
      C   14    0.15214      1.99916     3.83435    0.01435     5.84786
      H   15    0.21811      0.00000     0.78052    0.00137     0.78189
      H   16    0.20972      0.00000     0.78735    0.00293     0.79028
      H   17    0.21809      0.00000     0.78053    0.00137     0.78191
      H   18    0.21237      0.00000     0.78646    0.00117     0.78763
      H   19    0.24390      0.00000     0.75535    0.00075     0.75610
      H   20    0.20281      0.00000     0.79488    0.00231     0.79719
      H   21    0.20761      0.00000     0.79001    0.00238     0.79239
      H   22    0.21237      0.00000     0.78646    0.00117     0.78763
      H   23    0.20283      0.00000     0.79485    0.00231     0.79717
      H   24    0.24391      0.00000     0.75534    0.00075     0.75609
      H   25    0.20764      0.00000     0.78999    0.00237     0.79236
      H   26    0.26472      0.00000     0.73510    0.00018     0.73528
      H   27    0.25443      0.00000     0.74540    0.00017     0.74557
      H   28    0.27551      0.00000     0.72449    0.00000     0.72449
 =======================================================================
   * Total *   -0.00023     27.98860    71.77473    0.23691   100.00023

 Normal termination of Gaussian 09 at Mon Oct  4 10:39:41 2021.
