 Gaussian 09, Revision A.02,

 -----------------------------------
 #p opt b3lyp/6-31G* scf=(xqc,tight)
 -----------------------------------

 --------------------------------
 CC1(C)OB(OC1(C)C)c1ccccc1_conf_0
 --------------------------------
 Symbolic Z-matrix:
 Charge =  0 Multiplicity = 1

 SCF Done:  E(RB3LYP) =  -642.918327128     A.U. after   14 cycles
 SCF Done:  E(RB3LYP) =  -642.936538044     A.U. after   11 cycles
 SCF Done:  E(RB3LYP) =  -642.940977103     A.U. after   12 cycles
 SCF Done:  E(RB3LYP) =  -642.941330569     A.U. after   14 cycles
 SCF Done:  E(RB3LYP) =  -642.941402473     A.U. after   14 cycles
 SCF Done:  E(RB3LYP) =  -642.941423399     A.U. after   14 cycles
 SCF Done:  E(RB3LYP) =  -642.941424781     A.U. after   14 cycles
 SCF Done:  E(RB3LYP) =  -642.941424723     A.U. after   14 cycles
 SCF Done:  E(RB3LYP) =  -642.941424883     A.U. after   14 cycles
 Optimization completed.
    -- Stationary point found.
 Normal termination of Gaussian 09 at Sun Oct  3 16:28:54 2021.

 ----------------------------------------------------------------------
 #p freq b3lyp/6-31G* volume NMR pop=NPA density=current Geom=AllCheck
 Guess=Read
 ----------------------------------------------------------------------

 CC1(C)OB(OC1(C)C)c1ccccc1_conf_0
 --------------------------------
 Redundant internal coordinates taken from checkpoint file:
 C12H17BO2_f60f_conf_0.chk
 Charge =  0 Multiplicity = 1

 SCF Done:  E(RB3LYP) =  -642.941424883     A.U. after    1 cycles

  1  C    Isotropic =   162.5590   Anisotropy =    30.4727

  2  C    Isotropic =   106.4896   Anisotropy =    56.8435

  3  C    Isotropic =   165.7983   Anisotropy =    29.2855

  4  O    Isotropic =   173.6190   Anisotropy =    72.4430

  5  B    Isotropic =    82.2253   Anisotropy =     9.3408

  6  O    Isotropic =   173.6200   Anisotropy =    72.4390

  7  C    Isotropic =   106.4893   Anisotropy =    56.8444

  8  C    Isotropic =   162.5593   Anisotropy =    30.4718

  9  C    Isotropic =   165.7983   Anisotropy =    29.2858

 10  C    Isotropic =    67.5433   Anisotropy =   194.4172

 11  C    Isotropic =    60.3608   Anisotropy =   177.3421

 12  C    Isotropic =    69.4372   Anisotropy =   164.5905

 13  C    Isotropic =    65.4325   Anisotropy =   169.5440

 14  C    Isotropic =    69.4372   Anisotropy =   164.5905

 15  C    Isotropic =    60.3608   Anisotropy =   177.3421

 16  H    Isotropic =    30.8851   Anisotropy =     7.5598

 17  H    Isotropic =    30.6671   Anisotropy =     6.0018

 18  H    Isotropic =    31.0964   Anisotropy =     8.1442

 19  H    Isotropic =    30.7225   Anisotropy =     8.1118

 20  H    Isotropic =    31.1460   Anisotropy =     8.1189

 21  H    Isotropic =    30.6677   Anisotropy =     6.5176

 22  H    Isotropic =    30.6671   Anisotropy =     6.0017

 23  H    Isotropic =    31.0964   Anisotropy =     8.1442

 24  H    Isotropic =    30.8851   Anisotropy =     7.5599

 25  H    Isotropic =    30.6678   Anisotropy =     6.5177

 26  H    Isotropic =    30.7224   Anisotropy =     8.1117

 27  H    Isotropic =    31.1460   Anisotropy =     8.1189

 28  H    Isotropic =    24.3349   Anisotropy =     9.7033

 29  H    Isotropic =    24.9761   Anisotropy =     5.1450

 30  H    Isotropic =    24.9111   Anisotropy =     4.3873

 31  H    Isotropic =    24.9760   Anisotropy =     5.1450

 32  H    Isotropic =    24.3349   Anisotropy =     9.7033

  Exact polarizability: 185.797   0.000 137.983   0.001  -3.959  88.894
 Approx polarizability: 248.339   0.000 222.102   0.002 -11.797 128.273

                     1                      2                      3
                     A                      A                      A
 Frequencies --    36.5738                54.5157                84.4662
 Red. masses --     3.5346                 3.9958                 4.1173
 Frc consts  --     0.0028                 0.0070                 0.0173
 IR Inten    --     0.0005                 1.1073                 0.5308

                     4                      5                      6
                     A                      A                      A
 Frequencies --    95.5996               168.5556               218.5850
 Red. masses --     3.6454                 4.4025                 1.3260
 Frc consts  --     0.0196                 0.0737                 0.0373
 IR Inten    --     0.0964                 0.0015                 0.1429

                     7                      8                      9
                     A                      A                      A
 Frequencies --   234.3184               247.2381               262.4685
 Red. masses --     1.2538                 2.6665                 1.9436
 Frc consts  --     0.0406                 0.0960                 0.0789
 IR Inten    --     0.0153                 0.1394                 0.0668

                    10                     11                     12
                     A                      A                      A
 Frequencies --   293.9519               304.7784               305.4267
 Red. masses --     1.5539                 1.2948                 1.5805
 Frc consts  --     0.0791                 0.0709                 0.0869
 IR Inten    --     0.0577                 0.1850                 0.0054

                    13                     14                     15
                     A                      A                      A
 Frequencies --   322.3594               366.9732               367.2843
 Red. masses --     1.9715                 2.8031                 2.1812
 Frc consts  --     0.1207                 0.2224                 0.1734
 IR Inten    --     0.0141                 1.3532                 0.1469

                    16                     17                     18
                     A                      A                      A
 Frequencies --   403.8051               411.9455               413.2356
 Red. masses --     2.6028                 2.9293                 3.7870
 Frc consts  --     0.2501                 0.2929                 0.3810
 IR Inten    --     0.0245                 0.0000                 1.2837

                    19                     20                     21
                     A                      A                      A
 Frequencies --   477.0823               519.6973               519.9970
 Red. masses --     4.0705                 3.4558                 2.8064
 Frc consts  --     0.5459                 0.5499                 0.4471
 IR Inten    --     1.8913                 1.6298                 0.2966

                    22                     23                     24
                     A                      A                      A
 Frequencies --   579.8145               634.4149               652.9223
 Red. masses --     3.9924                 6.4158                 4.5577
 Frc consts  --     0.7908                 1.5214                 1.1448
 IR Inten    --     3.6945                 0.2955                 0.1807

                    25                     26                     27
                     A                      A                      A
 Frequencies --   657.9682               676.7408               715.1056
 Red. masses --     5.6090                 4.4429                 1.7693
 Frc consts  --     1.4307                 1.1989                 0.5331
 IR Inten    --    36.0876                10.6498                33.1337

                    28                     29                     30
                     A                      A                      A
 Frequencies --   781.1974               827.0915               853.1733
 Red. masses --     1.9941                 8.5546                 3.9354
 Frc consts  --     0.7170                 3.4479                 1.6878
 IR Inten    --    10.1829                 3.6129                 1.9545

                    31                     32                     33
                     A                      A                      A
 Frequencies --   876.1554               876.4191               942.2666
 Red. masses --     1.7790                 1.6012                 1.6912
 Frc consts  --     0.8046                 0.7246                 0.8847
 IR Inten    --    26.2186                19.4954                 0.4334

                    34                     35                     36
                     A                      A                      A
 Frequencies --   947.7226               949.5240               970.9553
 Red. masses --     1.4491                 1.3691                 1.8266
 Frc consts  --     0.7668                 0.7273                 1.0146
 IR Inten    --     0.0033                 0.6996                 2.1018

                    37                     38                     39
                     A                      A                      A
 Frequencies --   981.2363               984.6675              1005.6104
 Red. masses --     2.0691                 1.3621                 1.2556
 Frc consts  --     1.1737                 0.7781                 0.7481
 IR Inten    --    22.6247                 0.0001                 0.0489

                    40                     41                     42
                     A                      A                      A
 Frequencies --  1017.4066              1026.7926              1036.3980
 Red. masses --     6.3300                 1.2705                 1.3439
 Frc consts  --     3.8605                 0.7892                 0.8505
 IR Inten    --     1.0790                 0.0086                 0.2881

                    43                     44                     45
                     A                      A                      A
 Frequencies --  1055.1132              1104.1313              1118.9790
 Red. masses --     2.6616                 1.6759                 3.4526
 Frc consts  --     1.7458                 1.2037                 2.5471
 IR Inten    --    27.8372                 7.1617                97.3261

                    46                     47                     48
                     A                      A                      A
 Frequencies --  1149.0057              1188.8181              1192.9050
 Red. masses --     2.3722                 2.2578                 2.6706
 Frc consts  --     1.8452                 1.8801                 2.2391
 IR Inten    --    10.3041               211.3747                26.6947

                    49                     50                     51
                     A                      A                      A
 Frequencies --  1193.3860              1216.5082              1247.5370
 Red. masses --     1.1156                 1.1482                 2.9231
 Frc consts  --     0.9361                 1.0012                 2.6804
 IR Inten    --     0.6124                 1.5203                28.2340

                    52                     53                     54
                     A                      A                      A
 Frequencies --  1273.3240              1298.8953              1321.0327
 Red. masses --     3.5235                 3.1008                 3.6809
 Frc consts  --     3.3659                 3.0823                 3.7847
 IR Inten    --     0.7796                42.2265                43.7150

                    55                     56                     57
                     A                      A                      A
 Frequencies --  1363.4302              1368.1471              1389.6526
 Red. masses --     6.8195                 1.6002                 5.2979
 Frc consts  --     7.4691                 1.7648                 6.0280
 IR Inten    --    85.8551                14.7566               577.0950

                    58                     59                     60
                     A                      A                      A
 Frequencies --  1428.4286              1432.6483              1441.4541
 Red. masses --     1.3224                 1.2563                 1.2584
 Frc consts  --     1.5898                 1.5192                 1.5405
 IR Inten    --     0.3050                16.6469                12.1171

                    61                     62                     63
                     A                      A                      A
 Frequencies --  1452.3416              1485.5751              1501.6307
 Red. masses --     1.2267                 2.1808                 1.0495
 Frc consts  --     1.5245                 2.8356                 1.3944
 IR Inten    --     5.4006                25.8531                 0.0196

                    64                     65                     66
                     A                      A                      A
 Frequencies --  1511.5470              1513.5934              1516.8053
 Red. masses --     1.0487                 1.0488                 1.0529
 Frc consts  --     1.4117                 1.4156                 1.4272
 IR Inten    --     1.2508                 0.2449                 5.9301

                    67                     68                     69
                     A                      A                      A
 Frequencies --  1531.2436              1535.1309              1535.4824
 Red. masses --     1.0470                 1.0680                 1.0513
 Frc consts  --     1.4464                 1.4829                 1.4603
 IR Inten    --     4.7704                 2.4014                 2.9879

                    70                     71                     72
                     A                      A                      A
 Frequencies --  1548.1578              1551.6359              1632.2421
 Red. masses --     2.1823                 1.0784                 5.0780
 Frc consts  --     3.0817                 1.5297                 7.9710
 IR Inten    --    13.9958                10.1887                 0.4526

                    73                     74                     75
                     A                      A                      A
 Frequencies --  1663.6613              3056.7706              3059.2793
 Red. masses --     5.4306                 1.0359                 1.0367
 Frc consts  --     8.8558                 5.7029                 5.7164
 IR Inten    --    34.4045                 2.6035                21.6884

                    76                     77                     78
                     A                      A                      A
 Frequencies --  3061.6424              3066.0810              3122.9190
 Red. masses --     1.0367                 1.0373                 1.1019
 Frc consts  --     5.7253                 5.7455                 6.3319
 IR Inten    --    10.8942                25.4274                 0.4263

                    79                     80                     81
                     A                      A                      A
 Frequencies --  3123.4834              3132.5126              3133.6679
 Red. masses --     1.1016                 1.1027                 1.1033
 Frc consts  --     6.3324                 6.3754                 6.3836
 IR Inten    --    11.7249                 1.3027                22.7542

                    82                     83                     84
                     A                      A                      A
 Frequencies --  3135.5913              3136.2898              3153.1272
 Red. masses --     1.1022                 1.1027                 1.1006
 Frc consts  --     6.3847                 6.3903                 6.4468
 IR Inten    --    38.2946                56.8175                 8.0205

                    85                     86                     87
                     A                      A                      A
 Frequencies --  3153.3550              3175.8812              3184.8493
 Red. masses --     1.1004                 1.0846                 1.0873
 Frc consts  --     6.4466                 6.4452                 6.4981
 IR Inten    --    33.3628                 0.1782                 3.7004

                    88                     89                     90
                     A                      A                      A
 Frequencies --  3193.7942              3201.1689              3207.4308
 Red. masses --     1.0911                 1.0940                 1.0977
 Frc consts  --     6.5574                 6.6050                 6.6537
 IR Inten    --    22.0261                40.1904                17.8644

 - Thermochemistry -
 -------------------
 Temperature   298.150 Kelvin.  Pressure   1.00000 Atm.
 Atom     1 has atomic number  6 and mass  12.00000

 Molecular mass:   204.13216 amu.
 Principal axes and moments of inertia in atomic units:
                           1         2         3
     Eigenvalues --  1361.635835300.942305883.56500
           X            1.00000   0.00000   0.00000
           Y           -0.00000   0.99997   0.00796
           Z           -0.00000  -0.00796   0.99997
 This molecule is an asymmetric top.
 Rotational symmetry number  1.
 Warning -- assumption of classical behavior for rotation
           may cause significant error
 Rotational temperatures (Kelvin)      0.06361     0.01634     0.01472
 Rotational constants (GHZ):           1.32542     0.34046     0.30674
 Zero-point vibrational energy     718732.7 (Joules/Mol)
                                  171.78124 (Kcal/Mol)
 Warning -- explicit consideration of  22 degrees of freedom as
           vibrations may cause significant error
 Vibrational temperatures:     52.62    78.44   121.53   137.55   242.51
          (Kelvin)            314.49   337.13   355.72   377.63   422.93
                              438.51   439.44   463.80   527.99   528.44
                              580.98   592.70   594.55   686.41   747.73
                              748.16   834.22   912.78   939.41   946.67
                              973.68  1028.88  1123.97  1190.00  1227.52
                             1260.59  1260.97  1355.71  1363.56  1366.15
                             1396.99  1411.78  1416.72  1446.85  1463.82
                             1477.32  1491.14  1518.07  1588.60  1609.96
                             1653.16  1710.44  1716.32  1717.01  1750.28
                             1794.93  1832.03  1868.82  1900.67  1961.67
                             1968.46  1999.40  2055.19  2061.26  2073.93
                             2089.59  2137.41  2160.51  2174.78  2177.72
                             2182.34  2203.12  2208.71  2209.21  2227.45
                             2232.46  2348.43  2393.63  4398.01  4401.62
                             4405.02  4411.40  4493.18  4493.99  4506.98
                             4508.64  4511.41  4512.42  4536.64  4536.97
                             4569.38  4582.28  4595.15  4605.76  4614.77

 Zero-point correction=                           0.273751 (Hartree/Particle)
 Thermal correction to Energy=                    0.288137
 Thermal correction to Enthalpy=                  0.289081
 Thermal correction to Gibbs Free Energy=         0.232849
 Sum of electronic and zero-point Energies=           -642.667674
 Sum of electronic and thermal Energies=              -642.653288
 Sum of electronic and thermal Enthalpies=            -642.652344
 Sum of electronic and thermal Free Energies=         -642.708576

                     E (Thermal)             CV                S
                      KCal/Mol        Cal/Mol-Kelvin    Cal/Mol-Kelvin
 Total                  180.808             57.065            118.351
 Electronic               0.000              0.000              0.000
 Translational            0.889              2.981             41.845
 Rotational               0.889              2.981             32.118
 Vibrational            179.031             51.103             44.387
 Vibration     1          0.594              1.982              5.437
 Vibration     2          0.596              1.976              4.646
 Vibration     3          0.601              1.960              3.784
 Vibration     4          0.603              1.952              3.542
 Vibration     5          0.625              1.881              2.452
 Vibration     6          0.646              1.813              1.971
 Vibration     7          0.654              1.788              1.846
 Vibration     8          0.661              1.767              1.750
 Vibration     9          0.670              1.742              1.645
 Vibration    10          0.689              1.685              1.451
 Vibration    11          0.696              1.665              1.391
 Vibration    12          0.696              1.663              1.387
 Vibration    13          0.707              1.631              1.298
 Vibration    14          0.740              1.540              1.092
 Vibration    15          0.740              1.540              1.091
 Vibration    16          0.769              1.462              0.949
 Vibration    17          0.776              1.444              0.920
 Vibration    18          0.777              1.441              0.915
 Vibration    19          0.834              1.301              0.718
 Vibration    20          0.875              1.206              0.611
 Vibration    21          0.875              1.206              0.610
 Vibration    22          0.936              1.075              0.486

 Optimization completed.
    -- Stationary point found.
 Normal termination of Gaussian 09 at Sun Oct  3 18:08:13 2021.
 Gaussian 09:  AM64L-G09RevA.02 11-Jun-2009

 ----------------------------------------------------------------------
 #p TD(NStates=10, Root=1) b3lyp/6-31G* volume pop=NPA density=current
 Geom=AllCheck Guess=Read
 ----------------------------------------------------------------------

 CC1(C)OB(OC1(C)C)c1ccccc1_conf_0
 --------------------------------
 Redundant internal coordinates taken from checkpoint file:
 C12H17BO2_f60f_conf_0.chk
 Charge =  0 Multiplicity = 1

                         Standard orientation:
 ---------------------------------------------------------------------
 Center     Atomic      Atomic             Coordinates (Angstroms)
 Number     Number       Type             X           Y           Z
 ---------------------------------------------------------------------
      1          6           0       -2.293346   -1.249629   -1.518761
      2          6           0       -2.019313   -0.785777   -0.081789
      3          6           0       -2.918987   -1.542009    0.894125
      4          8           0       -0.635147   -1.127327    0.209747
      5          5           0        0.124173   -0.000016   -0.000098
      6          8           0       -0.635146    1.127320   -0.209834
      7          6           0       -2.019295    0.785784    0.081805
      8          6           0       -2.293219    1.249628    1.518801
      9          6           0       -2.919033    1.542034   -0.894034
     10          6           0        1.677711   -0.000009   -0.000048
     11          6           0        2.400226    1.196299   -0.156905
     12          6           0        3.794659    1.199497   -0.158198
     13          6           0        4.493393    0.000002    0.000036
     14          6           0        3.794659   -1.199498    0.158228
     15          6           0        2.400227   -1.196311    0.156854
     16          1           0       -2.077495   -2.319981   -1.592938
     17          1           0       -1.652270   -0.726590   -2.235330
     18          1           0       -3.338185   -1.088314   -1.804626
     19          1           0       -2.819781   -2.619071    0.724765
     20          1           0       -3.970794   -1.271421    0.745988
     21          1           0       -2.649273   -1.338880    1.932900
     22          1           0       -1.652110    0.726564    2.235324
     23          1           0       -3.338043    1.088336    1.804732
     24          1           0       -2.077335    2.319974    1.592976
     25          1           0       -2.649403    1.338906   -1.932832
     26          1           0       -2.819797    2.619094   -0.724676
     27          1           0       -3.970832    1.271462   -0.745815
     28          1           0        1.857184    2.130053   -0.278719
     29          1           0        4.337804    2.133180   -0.281298
     30          1           0        5.580727    0.000007    0.000067
     31          1           0        4.337804   -2.133177    0.281359
     32          1           0        1.857185   -2.130070    0.278634
 ---------------------------------------------------------------------

 SCF Done:  E(RB3LYP) =  -642.941424883     A.U. after    1 cycles

 Excitation energies and oscillator strengths:

 Excited State   1:      Singlet-A      5.1837 eV  239.18 nm  f=0.0090  <S**2>=0.000
      54 -> 57         0.37923
      55 -> 56         0.59607
 This state for optimization and/or second-order correction.
 Total Energy, E(TD-HF/TD-KS) =  -642.750927333
 Copying the excited state density for this state as the 1-particle RhoCI density.

 Excited State   2:      Singlet-A      5.7685 eV  214.93 nm  f=0.2730  <S**2>=0.000
      54 -> 56         0.65563
      55 -> 57        -0.25549

 Excited State   3:      Singlet-A      6.0973 eV  203.34 nm  f=0.0069  <S**2>=0.000
      53 -> 56         0.69977

 Excited State   4:      Singlet-A      6.8440 eV  181.16 nm  f=0.2750  <S**2>=0.000
      51 -> 56         0.11344
      54 -> 57         0.56688
      55 -> 56        -0.36339
      55 -> 59        -0.15580

 Excited State   5:      Singlet-A      6.8656 eV  180.59 nm  f=0.0089  <S**2>=0.000
      51 -> 56         0.68668
      52 -> 56        -0.10801

 Excited State   6:      Singlet-A      6.8732 eV  180.39 nm  f=0.2866  <S**2>=0.000
      53 -> 57         0.57191
      54 -> 56         0.14695
      55 -> 57         0.37580

 Excited State   7:      Singlet-A      6.9325 eV  178.85 nm  f=0.4932  <S**2>=0.000
      49 -> 56        -0.12769
      53 -> 57        -0.41056
      54 -> 56         0.18493
      54 -> 59         0.10222
      55 -> 57         0.51419

 Excited State   8:      Singlet-A      7.0950 eV  174.75 nm  f=0.0000  <S**2>=0.000
      48 -> 56         0.31759
      50 -> 56         0.61702

 Excited State   9:      Singlet-A      7.1191 eV  174.16 nm  f=0.0061  <S**2>=0.000
      51 -> 56         0.10491
      52 -> 56         0.69447

 Excited State  10:      Singlet-A      7.4211 eV  167.07 nm  f=0.0005  <S**2>=0.000
      48 -> 56         0.55122
      49 -> 56        -0.15620
      50 -> 56        -0.32939
      51 -> 57         0.23028

 The electronic state is 1-A.
 Alpha  occ. eigenvalues --  -19.14510 -19.14509 -10.25046 -10.25030 -10.18624
 Alpha  occ. eigenvalues --  -10.18191 -10.18188 -10.18130 -10.18130 -10.18102
 Alpha  occ. eigenvalues --  -10.18102 -10.17879 -10.17879 -10.16349  -6.76665
 Alpha  occ. eigenvalues --   -1.05386  -0.98582  -0.84006  -0.80448  -0.75164
 Alpha  occ. eigenvalues --   -0.73376  -0.73309  -0.70744  -0.68123  -0.62153
 Alpha  occ. eigenvalues --   -0.59324  -0.58931  -0.55000  -0.53628  -0.50647
 Alpha  occ. eigenvalues --   -0.47144  -0.46464  -0.44925  -0.44624  -0.43515
 Alpha  occ. eigenvalues --   -0.43079  -0.41217  -0.41016  -0.40561  -0.40086
 Alpha  occ. eigenvalues --   -0.39833  -0.37908  -0.37561  -0.37258  -0.36892
 Alpha  occ. eigenvalues --   -0.35776  -0.35189  -0.33408  -0.32765  -0.32231
 Alpha  occ. eigenvalues --   -0.31461  -0.30768  -0.26798  -0.24154  -0.24120
 Alpha virt. eigenvalues --   -0.01812   0.00957   0.07245   0.09439   0.09749
 Alpha virt. eigenvalues --    0.11245   0.12699   0.12989   0.13345   0.14088
 Alpha virt. eigenvalues --    0.15170   0.15286   0.15788   0.16143   0.17428

 Mulliken atomic charges:
              1
     1  C   -0.462206
     2  C    0.286325
     3  C   -0.466187
     4  O   -0.489277
     5  B    0.404523
     6  O   -0.489279
     7  C    0.286328
     8  C   -0.462207
     9  C   -0.466185
    10  C    0.082284
    11  C   -0.193958
    12  C   -0.109332
    13  C   -0.149611
    14  C   -0.109332
    15  C   -0.193959
    16  H    0.154207
    17  H    0.158024
    18  H    0.140361
    19  H    0.153961
    20  H    0.140080
    21  H    0.157564
    22  H    0.158025
    23  H    0.140361
    24  H    0.154207
    25  H    0.157563
    26  H    0.153962
    27  H    0.140079
    28  H    0.154632
    29  H    0.141896
    30  H    0.130624
    31  H    0.141896
    32  H    0.154632
 Sum of Mulliken atomic charges =  -0.00000

 Dipole moment (field-independent basis, Debye):
    X=             -0.3201    Y=             -0.0000    Z=              0.0001  Tot=              0.3201
 Quadrupole moment (field-independent basis, Debye-Ang):
   XX=            -75.8785   YY=            -86.8497   ZZ=            -91.0400
   XY=              0.0001   XZ=              0.0001   YZ=              0.1696

 Summary of Natural Population Analysis:

                                       Natural Population
                Natural  -----------------------------------------------
    Atom  No    Charge         Core      Valence    Rydberg      Total
 -----------------------------------------------------------------------
      C    1   -0.69596      1.99935     4.68649    0.01012     6.69596
      C    2    0.26867      1.99891     3.70998    0.02244     5.73133
      C    3   -0.68988      1.99932     4.68085    0.00970     6.68988
      O    4   -0.73553      1.99976     6.72609    0.00968     8.73553
      B    5    1.03113      1.99919     1.93824    0.03144     3.96887
      O    6   -0.73553      1.99976     6.72609    0.00968     8.73553
      C    7    0.26867      1.99891     3.70998    0.02244     5.73133
      C    8   -0.69596      1.99935     4.68649    0.01012     6.69596
      C    9   -0.68988      1.99932     4.68085    0.00970     6.68988
      C   10   -0.40987      1.99897     4.39195    0.01895     6.40987
      C   11   -0.15076      1.99914     4.13515    0.01648     6.15076
      C   12   -0.18079      1.99914     4.16471    0.01695     6.18079
      C   13   -0.28625      1.99916     4.26944    0.01765     6.28625
      C   14   -0.18079      1.99914     4.16471    0.01695     6.18079
      C   15   -0.15076      1.99914     4.13515    0.01648     6.15076
      H   16    0.24405      0.00000     0.75467    0.00128     0.75595
      H   17    0.23930      0.00000     0.75982    0.00088     0.76070
      H   18    0.23160      0.00000     0.76751    0.00089     0.76840
      H   19    0.24270      0.00000     0.75612    0.00118     0.75730
      H   20    0.23159      0.00000     0.76759    0.00081     0.76841
      H   21    0.24164      0.00000     0.75737    0.00099     0.75836
      H   22    0.23930      0.00000     0.75982    0.00088     0.76070
      H   23    0.23160      0.00000     0.76751    0.00089     0.76840
      H   24    0.24405      0.00000     0.75467    0.00128     0.75595
      H   25    0.24164      0.00000     0.75737    0.00099     0.75836
      H   26    0.24270      0.00000     0.75612    0.00118     0.75730
      H   27    0.23159      0.00000     0.76759    0.00081     0.76841
      H   28    0.23868      0.00000     0.75996    0.00135     0.76132
      H   29    0.23144      0.00000     0.76765    0.00092     0.76856
      H   30    0.23149      0.00000     0.76768    0.00083     0.76851
      H   31    0.23144      0.00000     0.76765    0.00092     0.76856
      H   32    0.23868      0.00000     0.75996    0.00135     0.76132
 =======================================================================
   * Total *    0.00000     29.98854    79.75522    0.25624   110.00000

 Normal termination of Gaussian 09 at Mon Oct  4 01:01:20 2021.
