 Gaussian 09, Revision A.02,

 -----------------------------------
 #p opt b3lyp/6-31G* scf=(xqc,tight)
 -----------------------------------

 ----------------------------------
 O=C(N(C)C)Oc1ccc2c(c1)cccn2_conf_0
 ----------------------------------
 Symbolic Z-matrix:
 Charge =  0 Multiplicity = 1

 SCF Done:  E(RB3LYP) =  -724.467391673     A.U. after   15 cycles
 SCF Done:  E(RB3LYP) =  -724.475108817     A.U. after   12 cycles
 SCF Done:  E(RB3LYP) =  -724.475771940     A.U. after   12 cycles
 SCF Done:  E(RB3LYP) =  -724.475524277     A.U. after   12 cycles
 SCF Done:  E(RB3LYP) =  -724.475988763     A.U. after   12 cycles
 SCF Done:  E(RB3LYP) =  -724.476112982     A.U. after   12 cycles
 SCF Done:  E(RB3LYP) =  -724.476158255     A.U. after   10 cycles
 SCF Done:  E(RB3LYP) =  -724.476183523     A.U. after   11 cycles
 SCF Done:  E(RB3LYP) =  -724.476199984     A.U. after   10 cycles
 SCF Done:  E(RB3LYP) =  -724.476217433     A.U. after   10 cycles
 SCF Done:  E(RB3LYP) =  -724.476258030     A.U. after   10 cycles
 SCF Done:  E(RB3LYP) =  -724.476259364     A.U. after    9 cycles
 SCF Done:  E(RB3LYP) =  -724.476259578     A.U. after    7 cycles
 SCF Done:  E(RB3LYP) =  -724.476259646     A.U. after    6 cycles
 SCF Done:  E(RB3LYP) =  -724.476259702     A.U. after    6 cycles
 SCF Done:  E(RB3LYP) =  -724.476259724     A.U. after    6 cycles
 SCF Done:  E(RB3LYP) =  -724.476259741     A.U. after    7 cycles
 SCF Done:  E(RB3LYP) =  -724.476259756     A.U. after    7 cycles
 Optimization completed.
    -- Stationary point found.
 Normal termination of Gaussian 09 at Thu Sep 30 01:10:47 2021.

 ----------------------------------------------------------------------
 #p freq b3lyp/6-31G* volume NMR pop=NPA density=current Geom=AllCheck
 Guess=Read
 ----------------------------------------------------------------------

 O=C(N(C)C)Oc1ccc2c(c1)cccn2_conf_0
 ----------------------------------
 Redundant internal coordinates taken from checkpoint file:
 C12H12N2O2_1622_conf_0.chk
 Charge =  0 Multiplicity = 1

 SCF Done:  E(RB3LYP) =  -724.476259756     A.U. after    1 cycles

  1  O    Isotropic =    68.3822   Anisotropy =   388.3085

  2  C    Isotropic =    46.9905   Anisotropy =    80.0613

  3  N    Isotropic =   179.2580   Anisotropy =    82.6088

  4  C    Isotropic =   155.2431   Anisotropy =    51.2315

  5  C    Isotropic =   155.5864   Anisotropy =    49.6805

  6  O    Isotropic =   145.6830   Anisotropy =   142.7471

  7  C    Isotropic =    46.5967   Anisotropy =   107.1800

  8  C    Isotropic =    73.4402   Anisotropy =   139.3937

  9  C    Isotropic =    64.1794   Anisotropy =   145.8716

 10  C    Isotropic =    50.6086   Anisotropy =   179.0107

 11  C    Isotropic =    67.4114   Anisotropy =   192.6206

 12  C    Isotropic =    76.0091   Anisotropy =   133.7792

 13  C    Isotropic =    60.9062   Anisotropy =   163.0798

 14  C    Isotropic =    75.1663   Anisotropy =   153.8583

 15  C    Isotropic =    47.7594   Anisotropy =   152.4323

 16  N    Isotropic =   -58.8166   Anisotropy =   508.1994

 17  H    Isotropic =    28.1072   Anisotropy =     6.9885

 18  H    Isotropic =    29.8982   Anisotropy =     9.1179

 19  H    Isotropic =    29.8160   Anisotropy =     9.3763

 20  H    Isotropic =    28.2307   Anisotropy =     5.6170

 21  H    Isotropic =    29.5376   Anisotropy =     9.3093

 22  H    Isotropic =    29.7650   Anisotropy =     8.8289

 23  H    Isotropic =    24.9793   Anisotropy =     7.5127

 24  H    Isotropic =    24.2381   Anisotropy =     6.1470

 25  H    Isotropic =    24.2501   Anisotropy =    11.0509

 26  H    Isotropic =    24.3927   Anisotropy =     7.9686

 27  H    Isotropic =    25.0687   Anisotropy =     5.7959

 28  H    Isotropic =    23.3756   Anisotropy =     5.7538

  Exact polarizability: 234.388  17.379 143.384   3.196  -8.787  67.434
 Approx polarizability: 333.763  33.463 255.817   9.096 -18.047 105.677

                     1                      2                      3
                     A                      A                      A
 Frequencies --    24.5293                30.9760                48.9608
 Red. masses --     4.1123                 2.0609                 1.9898
 Frc consts  --     0.0015                 0.0012                 0.0028
 IR Inten    --     2.6630                 1.0260                 0.0645

                     4                      5                      6
                     A                      A                      A
 Frequencies --    77.6767               110.4567               137.1454
 Red. masses --     3.8948                 2.0517                 2.0246
 Frc consts  --     0.0138                 0.0147                 0.0224
 IR Inten    --     1.5241                 1.2786                 1.3097

                     7                      8                      9
                     A                      A                      A
 Frequencies --   152.0844               180.8058               222.6970
 Red. masses --     3.1132                 4.1733                 2.1770
 Frc consts  --     0.0424                 0.0804                 0.0636
 IR Inten    --     0.8212                 2.6134                 4.0280

                    10                     11                     12
                     A                      A                      A
 Frequencies --   228.4920               288.6680               318.5004
 Red. masses --     4.5479                 6.0698                 5.1503
 Frc consts  --     0.1399                 0.2980                 0.3078
 IR Inten    --     1.1592                 0.0430                 0.7684

                    13                     14                     15
                     A                      A                      A
 Frequencies --   383.6624               417.1158               432.7408
 Red. masses --     3.7512                 3.7382                 3.2788
 Frc consts  --     0.3253                 0.3832                 0.3618
 IR Inten    --    16.4567                 1.5641                 2.6021

                    16                     17                     18
                     A                      A                      A
 Frequencies --   441.9168               490.5102               536.6016
 Red. masses --     4.7485                 2.8779                 6.3579
 Frc consts  --     0.5464                 0.4080                 1.0786
 IR Inten    --    14.5270                 3.1439                 1.8059

                    19                     20                     21
                     A                      A                      A
 Frequencies --   545.5349               569.2660               617.9878
 Red. masses --     4.5535                 6.3778                 6.2350
 Frc consts  --     0.7984                 1.2177                 1.4030
 IR Inten    --     0.9020                 3.4820                 0.5167

                    22                     23                     24
                     A                      A                      A
 Frequencies --   640.3316               658.4131               737.1822
 Red. masses --     5.3894                 3.4894                11.9473
 Frc consts  --     1.3020                 0.8913                 3.8253
 IR Inten    --     8.2618                 4.2916                18.0690

                    25                     26                     27
                     A                      A                      A
 Frequencies --   764.4974               782.1125               787.8245
 Red. masses --     5.0120                 2.6047                 4.8413
 Frc consts  --     1.7259                 0.9387                 1.7704
 IR Inten    --     1.4716                 2.0175                 1.8260

                    28                     29                     30
                     A                      A                      A
 Frequencies --   809.3854               846.2562               863.3387
 Red. masses --     1.4782                 2.8683                 2.6013
 Frc consts  --     0.5706                 1.2103                 1.1423
 IR Inten    --    11.7564                30.0610                19.7841

                    31                     32                     33
                     A                      A                      A
 Frequencies --   895.0286               929.4781               965.0985
 Red. masses --     1.6259                 5.8875                 1.3944
 Frc consts  --     0.7674                 2.9968                 0.7652
 IR Inten    --    34.5693                12.9439                 0.1484

                    34                     35                     36
                     A                      A                      A
 Frequencies --   976.7144               979.4603               993.7476
 Red. masses --     1.2832                 3.7972                 1.3288
 Frc consts  --     0.7212                 2.1463                 0.7731
 IR Inten    --     0.1149                14.0480                 1.5854

                    37                     38                     39
                     A                      A                      A
 Frequencies --  1042.6661              1060.7233              1093.5963
 Red. masses --     2.5891                 2.4566                 1.3689
 Frc consts  --     1.6584                 1.6285                 0.9646
 IR Inten    --     7.2588                 2.9528                 8.0471

                    40                     41                     42
                     A                      A                      A
 Frequencies --  1142.9282              1145.7414              1167.5747
 Red. masses --     1.2181                 1.5155                 1.2249
 Frc consts  --     0.9375                 1.1722                 0.9838
 IR Inten    --     0.6749                 8.1907                 2.5385

                    43                     44                     45
                     A                      A                      A
 Frequencies --  1180.5262              1190.1881              1203.5506
 Red. masses --     1.7664                 1.3873                 2.6162
 Frc consts  --     1.4504                 1.1578                 2.2328
 IR Inten    --   210.3772                 7.6336               762.5007

                    46                     47                     48
                     A                      A                      A
 Frequencies --  1256.5372              1270.5921              1287.9938
 Red. masses --     5.4284                 1.9938                 1.6148
 Frc consts  --     5.0498                 1.8964                 1.5784
 IR Inten    --   210.3798                 5.2718                63.4136

                    49                     50                     51
                     A                      A                      A
 Frequencies --  1297.5746              1383.3929              1399.7504
 Red. masses --     5.0767                 3.7001                 2.3903
 Frc consts  --     5.0361                 4.1721                 2.7594
 IR Inten    --    16.3538                71.1806                18.1357

                    52                     53                     54
                     A                      A                      A
 Frequencies --  1414.4024              1437.5431              1459.7630
 Red. masses --     3.7618                 2.6662                 1.1756
 Frc consts  --     4.4340                 3.2463                 1.4760
 IR Inten    --    12.0731               328.4000                28.7233

                    55                     56                     57
                     A                      A                      A
 Frequencies --  1477.1795              1490.0800              1513.4414
 Red. masses --     2.4016                 1.2239                 2.7676
 Frc consts  --     3.0875                 1.6010                 3.7349
 IR Inten    --     3.0499                66.1622                 8.3768

                    58                     59                     60
                     A                      A                      A
 Frequencies --  1518.7713              1530.0227              1530.9643
 Red. masses --     1.0494                 1.0495                 1.0456
 Frc consts  --     1.4262                 1.4476                 1.4439
 IR Inten    --     3.7151                15.3702                16.7123

                    61                     62                     63
                     A                      A                      A
 Frequencies --  1553.6135              1564.9773              1621.2575
 Red. masses --     3.0701                 1.2985                 7.1989
 Frc consts  --     4.3661                 1.8737                11.1486
 IR Inten    --    87.7757                28.0023                 7.0255

                    64                     65                     66
                     A                      A                      A
 Frequencies --  1655.4683              1676.5005              1816.4562
 Red. masses --     5.6118                 6.3874                10.8439
 Frc consts  --     9.0614                10.5775                21.0807
 IR Inten    --    34.3468                23.6275               364.9420

                    67                     68                     69
                     A                      A                      A
 Frequencies --  3029.2065              3036.4251              3080.2730
 Red. masses --     1.0426                 1.0431                 1.1004
 Frc consts  --     5.6368                 5.6662                 6.1512
 IR Inten    --    28.9451               118.4025                64.7751

                    70                     71                     72
                     A                      A                      A
 Frequencies --  3083.4588              3161.4742              3187.7365
 Red. masses --     1.1032                 1.0891                 1.0889
 Frc consts  --     6.1801                 6.4135                 6.5191
 IR Inten    --     8.3754                33.5603                 8.5462

                    73                     74                     75
                     A                      A                      A
 Frequencies --  3196.0260              3209.4982              3210.9331
 Red. masses --     1.0963                 1.0878                 1.0945
 Frc consts  --     6.5978                 6.6022                 6.6487
 IR Inten    --     0.8595                 3.3582                 3.8755

                    76                     77                     78
                     A                      A                      A
 Frequencies --  3212.0883              3225.8498              3253.4801
 Red. masses --     1.0962                 1.0956                 1.0916
 Frc consts  --     6.6639                 6.7175                 6.8078
 IR Inten    --    24.6672                 7.9165                 0.9607

 - Thermochemistry -
 -------------------
 Temperature   298.150 Kelvin.  Pressure   1.00000 Atm.
 Atom     1 has atomic number  8 and mass  15.99491

 Molecular mass:   216.08988 amu.
 Principal axes and moments of inertia in atomic units:
                           1         2         3
     Eigenvalues --  1110.661827233.230368133.42883
           X            0.99998   0.00621   0.00156
           Y           -0.00620   0.99997  -0.00504
           Z           -0.00159   0.00503   0.99999
 This molecule is an asymmetric top.
 Rotational symmetry number  1.
 Warning -- assumption of classical behavior for rotation
           may cause significant error
 Rotational temperatures (Kelvin)      0.07798     0.01197     0.01065
 Rotational constants (GHZ):           1.62492     0.24951     0.22189
 Zero-point vibrational energy     587099.8 (Joules/Mol)
                                  140.32022 (Kcal/Mol)
 Warning -- explicit consideration of  21 degrees of freedom as
           vibrations may cause significant error
 Vibrational temperatures:     35.29    44.57    70.44   111.76   158.92
          (Kelvin)            197.32   218.82   260.14   320.41   328.75
                              415.33   458.25   552.00   600.14   622.62
                              635.82   705.73   772.05   784.90   819.05
                              889.15   921.29   947.31  1060.64  1099.94
                             1125.28  1133.50  1164.52  1217.57  1242.15
                             1287.74  1337.31  1388.56  1405.27  1409.22
                             1429.78  1500.16  1526.14  1573.44  1644.42
                             1648.46  1679.88  1698.51  1712.41  1731.64
                             1807.87  1828.10  1853.13  1866.92  1990.39
                             2013.93  2035.01  2068.30  2100.27  2125.33
                             2143.89  2177.50  2185.17  2201.36  2202.71
                             2235.30  2251.65  2332.63  2381.85  2412.11
                             2613.47  4358.35  4368.73  4431.82  4436.40
                             4548.65  4586.44  4598.36  4617.75  4619.81
                             4621.47  4641.27  4681.03

 Zero-point correction=                           0.223615 (Hartree/Particle)
 Thermal correction to Energy=                    0.237851
 Thermal correction to Enthalpy=                  0.238795
 Thermal correction to Gibbs Free Energy=         0.180309
 Sum of electronic and zero-point Energies=           -724.252645
 Sum of electronic and thermal Energies=              -724.238409
 Sum of electronic and thermal Enthalpies=            -724.237465
 Sum of electronic and thermal Free Energies=         -724.295951

                     E (Thermal)             CV                S
                      KCal/Mol        Cal/Mol-Kelvin    Cal/Mol-Kelvin
 Total                  149.254             52.977            123.095
 Electronic               0.000              0.000              0.000
 Translational            0.889              2.981             42.015
 Rotational               0.889              2.981             32.547
 Vibrational            147.476             47.015             48.534
 Vibration     1          0.593              1.985              6.229
 Vibration     2          0.594              1.984              5.766
 Vibration     3          0.595              1.978              4.859
 Vibration     4          0.599              1.964              3.949
 Vibration     5          0.606              1.941              3.261
 Vibration     6          0.614              1.916              2.843
 Vibration     7          0.619              1.900              2.646
 Vibration     8          0.630              1.866              2.320
 Vibration     9          0.648              1.807              1.937
 Vibration    10          0.651              1.798              1.891
 Vibration    11          0.685              1.695              1.482
 Vibration    12          0.705              1.638              1.318
 Vibration    13          0.753              1.505              1.025
 Vibration    14          0.780              1.433              0.902
 Vibration    15          0.794              1.399              0.850
 Vibration    16          0.802              1.379              0.821
 Vibration    17          0.846              1.271              0.682
 Vibration    18          0.892              1.169              0.573
 Vibration    19          0.901              1.149              0.554
 Vibration    20          0.925              1.098              0.506
 Vibration    21          0.978              0.994              0.420

 Optimization completed.
    -- Stationary point found.
 Normal termination of Gaussian 09 at Thu Sep 30 02:20:43 2021.
 Gaussian 09:  AM64L-G09RevA.02 11-Jun-2009

 ----------------------------------------------------------------------
 #p TD(NStates=10, Root=1) b3lyp/6-31G* volume pop=NPA density=current
 Geom=AllCheck Guess=Read
 ----------------------------------------------------------------------

 O=C(N(C)C)Oc1ccc2c(c1)cccn2_conf_0
 ----------------------------------
 Redundant internal coordinates taken from checkpoint file:
 C12H12N2O2_1622_conf_0.chk
 Charge =  0 Multiplicity = 1

                         Standard orientation:
 ---------------------------------------------------------------------
 Center     Atomic      Atomic             Coordinates (Angstroms)
 Number     Number       Type             X           Y           Z
 ---------------------------------------------------------------------
      1          8           0        2.036611   -1.429021   -0.723402
      2          6           0        2.439824   -0.412748   -0.190586
      3          7           0        3.745247   -0.135593    0.095703
      4          6           0        4.762773   -1.086727   -0.325022
      5          6           0        4.225547    1.111071    0.673253
      6          8           0        1.626755    0.626351    0.213533
      7          6           0        0.246380    0.562087    0.071794
      8          6           0       -0.364581    1.805052   -0.226523
      9          6           0       -1.732105    1.899187   -0.320505
     10          6           0       -2.549031    0.754195   -0.125593
     11          6           0       -1.917752   -0.495481    0.173293
     12          6           0       -0.504649   -0.572942    0.276964
     13          6           0       -2.761862   -1.620562    0.361663
     14          6           0       -4.123332   -1.466560    0.251997
     15          6           0       -4.643484   -0.181874   -0.047688
     16          7           0       -3.902787    0.892609   -0.231817
     17          1           0        4.273614   -1.975825   -0.719452
     18          1           0        5.395348   -1.363154    0.527851
     19          1           0        5.403677   -0.650322   -1.103267
     20          1           0        3.392261    1.701428    1.045773
     21          1           0        4.777727    1.700217   -0.072486
     22          1           0        4.905842    0.891164    1.505385
     23          1           0        0.273491    2.670515   -0.375642
     24          1           0       -2.222423    2.840547   -0.546551
     25          1           0       -0.029621   -1.520919    0.492793
     26          1           0       -2.319740   -2.588020    0.587712
     27          1           0       -4.799581   -2.305207    0.388899
     28          1           0       -5.721118   -0.046353   -0.137538
 ---------------------------------------------------------------------

 SCF Done:  E(RB3LYP) =  -724.476259756     A.U. after    1 cycles

 Excitation energies and oscillator strengths:

 Excited State   1:      Singlet-A      4.2893 eV  289.05 nm  f=0.0457  <S**2>=0.000
      55 -> 58        -0.17668
      56 -> 58         0.13486
      56 -> 59        -0.15426
      57 -> 58         0.62611
      57 -> 59         0.14398
 This state for optimization and/or second-order correction.
 Total Energy, E(TD-HF/TD-KS) =  -724.318629622
 Copying the excited state density for this state as the 1-particle RhoCI density.

 Excited State   2:      Singlet-A      4.3174 eV  287.17 nm  f=0.0054  <S**2>=0.000
      54 -> 58        -0.40301
      55 -> 58         0.53859
      56 -> 58         0.10946
      57 -> 58         0.15327

 Excited State   3:      Singlet-A      4.5458 eV  272.74 nm  f=0.0173  <S**2>=0.000
      55 -> 58        -0.11923
      56 -> 58         0.52770
      57 -> 58        -0.22582
      57 -> 59         0.37883

 Excited State   4:      Singlet-A      4.9809 eV  248.92 nm  f=0.0144  <S**2>=0.000
      54 -> 58         0.55197
      55 -> 58         0.37660
      56 -> 58         0.20833

 Excited State   5:      Singlet-A      5.2829 eV  234.69 nm  f=0.0002  <S**2>=0.000
      54 -> 59        -0.40801
      55 -> 59         0.56807

 Excited State   6:      Singlet-A      5.5334 eV  224.06 nm  f=0.0769  <S**2>=0.000
      53 -> 58         0.67683
      57 -> 59        -0.13247

 Excited State   7:      Singlet-A      5.7144 eV  216.97 nm  f=0.8220  <S**2>=0.000
      53 -> 58         0.15294
      54 -> 59         0.14308
      56 -> 58        -0.27604
      56 -> 59         0.24719
      56 -> 60        -0.10123
      57 -> 59         0.48740
      57 -> 60         0.11347

 Excited State   8:      Singlet-A      5.8822 eV  210.78 nm  f=0.1644  <S**2>=0.000
      52 -> 58         0.29017
      56 -> 58         0.17352
      56 -> 59         0.36937
      57 -> 59        -0.14450
      57 -> 60         0.43407

 Excited State   9:      Singlet-A      5.9853 eV  207.15 nm  f=0.1009  <S**2>=0.000
      52 -> 58        -0.11360
      54 -> 59         0.48958
      55 -> 59         0.32730
      56 -> 58         0.11490
      56 -> 59         0.22447
      57 -> 59        -0.12732
      57 -> 60        -0.18097

 Excited State  10:      Singlet-A      6.2117 eV  199.60 nm  f=0.1390  <S**2>=0.000
      51 -> 58        -0.16737
      52 -> 58        -0.11344
      52 -> 59         0.11672
      53 -> 59         0.15229
      54 -> 59        -0.24249
      55 -> 59        -0.20618
      56 -> 59         0.39506
      57 -> 58         0.12516
      57 -> 60        -0.33937

 The electronic state is 1-A.
 Alpha  occ. eigenvalues --  -19.20167 -19.12182 -14.37531 -14.32471 -10.33927
 Alpha  occ. eigenvalues --  -10.25701 -10.22682 -10.22128 -10.22079 -10.22066
 Alpha  occ. eigenvalues --  -10.20539 -10.20418 -10.19739 -10.19655 -10.19239
 Alpha  occ. eigenvalues --  -10.19212  -1.11149  -1.02061  -0.94681  -0.93784
 Alpha  occ. eigenvalues --   -0.84844  -0.80448  -0.75983  -0.74333  -0.73035
 Alpha  occ. eigenvalues --   -0.70838  -0.65255  -0.63047  -0.60881  -0.57789
 Alpha  occ. eigenvalues --   -0.53914  -0.52616  -0.51484  -0.49272  -0.48479
 Alpha  occ. eigenvalues --   -0.47916  -0.45363  -0.44685  -0.43804  -0.43305
 Alpha  occ. eigenvalues --   -0.42192  -0.41166  -0.41089  -0.40662  -0.40328
 Alpha  occ. eigenvalues --   -0.39999  -0.38542  -0.37352  -0.35890  -0.34194
 Alpha  occ. eigenvalues --   -0.31215  -0.30282  -0.27660  -0.25179  -0.24963
 Alpha  occ. eigenvalues --   -0.24185  -0.22384
 Alpha virt. eigenvalues --   -0.04830  -0.01188   0.02251   0.04853   0.08699
 Alpha virt. eigenvalues --    0.09725   0.09873   0.11325   0.12464   0.13835
 Alpha virt. eigenvalues --    0.14578   0.14780   0.15712   0.16998   0.17186

 Mulliken atomic charges:
              1
     1  O   -0.497992
     2  C    0.789786
     3  N   -0.431409
     4  C   -0.322754
     5  C   -0.320151
     6  O   -0.526268
     7  C    0.372154
     8  C   -0.192583
     9  C   -0.148763
    10  C    0.254723
    11  C    0.153840
    12  C   -0.203906
    13  C   -0.188217
    14  C   -0.172700
    15  C    0.049783
    16  N   -0.531186
    17  H    0.211309
    18  H    0.163497
    19  H    0.164437
    20  H    0.201998
    21  H    0.165805
    22  H    0.165412
    23  H    0.135330
    24  H    0.152139
    25  H    0.181832
    26  H    0.121101
    27  H    0.119831
    28  H    0.132952
 Sum of Mulliken atomic charges =  -0.00000

 Dipole moment (field-independent basis, Debye):
    X=              6.2757    Y=              0.5729    Z=              1.3430  Tot=              6.4433
 Quadrupole moment (field-independent basis, Debye-Ang):
   XX=            -77.6653   YY=            -90.0689   ZZ=            -94.5739
   XY=              7.4873   XZ=              1.5020   YZ=             -2.4035

 Summary of Natural Population Analysis:

                                       Natural Population
                Natural  -----------------------------------------------
    Atom  No    Charge         Core      Valence    Rydberg      Total
 -----------------------------------------------------------------------
      O    1   -0.63536      1.99978     6.61633    0.01925     8.63536
      C    2    0.93938      1.99937     3.01670    0.04456     5.06062
      N    3   -0.46938      1.99932     5.45907    0.01098     7.46938
      C    4   -0.47181      1.99946     4.46032    0.01202     6.47181
      C    5   -0.47316      1.99946     4.46214    0.01155     6.47316
      O    6   -0.51660      1.99969     6.50659    0.01033     8.51660
      C    7    0.36615      1.99873     3.61334    0.02177     5.63385
      C    8   -0.32717      1.99905     4.31253    0.01558     6.32717
      C    9   -0.18320      1.99905     4.16760    0.01655     6.18320
      C   10    0.18685      1.99901     3.79228    0.02186     5.81315
      C   11   -0.08547      1.99901     4.07162    0.01484     6.08547
      C   12   -0.18951      1.99896     4.17662    0.01393     6.18951
      C   13   -0.25856      1.99906     4.24264    0.01687     6.25856
      C   14   -0.32213      1.99909     4.30756    0.01548     6.32213
      C   15    0.05917      1.99924     3.91743    0.02416     5.94083
      N   16   -0.49257      1.99939     5.47008    0.02310     7.49257
      H   17    0.26590      0.00000     0.73271    0.00139     0.73410
      H   18    0.22685      0.00000     0.77200    0.00115     0.77315
      H   19    0.22512      0.00000     0.77355    0.00133     0.77488
      H   20    0.25787      0.00000     0.74137    0.00076     0.74213
      H   21    0.22570      0.00000     0.77275    0.00155     0.77430
      H   22    0.22924      0.00000     0.76946    0.00130     0.77076
      H   23    0.24571      0.00000     0.75326    0.00103     0.75429
      H   24    0.25141      0.00000     0.74706    0.00153     0.74859
      H   25    0.26400      0.00000     0.73438    0.00162     0.73600
      H   26    0.22950      0.00000     0.76945    0.00105     0.77050
      H   27    0.23509      0.00000     0.76400    0.00091     0.76491
      H   28    0.21697      0.00000     0.78185    0.00118     0.78303
 =======================================================================
   * Total *    0.00000     31.98767    81.70471    0.30762   114.00000

 Normal termination of Gaussian 09 at Thu Sep 30 06:58:50 2021.
