 Gaussian 09, Revision A.02,

 -----------------------------------
 #p opt b3lyp/6-31G* scf=(xqc,tight)
 -----------------------------------

 --------------------------------
 Cc1ccc(cc1)OC(=O)C(C)(C)C_conf_0
 --------------------------------
 Symbolic Z-matrix:
 Charge =  0 Multiplicity = 1

 SCF Done:  E(RB3LYP) =  -617.379854746     A.U. after   15 cycles
 SCF Done:  E(RB3LYP) =  -617.383420190     A.U. after   13 cycles
 SCF Done:  E(RB3LYP) =  -617.381504270     A.U. after   16 cycles
 SCF Done:  E(RB3LYP) =  -617.383927927     A.U. after   16 cycles
 SCF Done:  E(RB3LYP) =  -617.384393169     A.U. after   12 cycles
 SCF Done:  E(RB3LYP) =  -617.384614876     A.U. after   12 cycles
 SCF Done:  E(RB3LYP) =  -617.384782730     A.U. after   11 cycles
 SCF Done:  E(RB3LYP) =  -617.384980204     A.U. after   12 cycles
 SCF Done:  E(RB3LYP) =  -617.385075845     A.U. after   14 cycles
 SCF Done:  E(RB3LYP) =  -617.385090383     A.U. after   10 cycles
 SCF Done:  E(RB3LYP) =  -617.385093994     A.U. after    9 cycles
 SCF Done:  E(RB3LYP) =  -617.385093846     A.U. after   10 cycles
 SCF Done:  E(RB3LYP) =  -617.385094487     A.U. after   10 cycles
 SCF Done:  E(RB3LYP) =  -617.385094594     A.U. after    9 cycles
 SCF Done:  E(RB3LYP) =  -617.385092921     A.U. after   10 cycles
 SCF Done:  E(RB3LYP) =  -617.385095034     A.U. after   10 cycles
 SCF Done:  E(RB3LYP) =  -617.385095303     A.U. after    8 cycles
 SCF Done:  E(RB3LYP) =  -617.385095194     A.U. after    7 cycles
 Optimization completed on the basis of negligible forces.
    -- Stationary point found.
 Normal termination of Gaussian 09 at Wed Sep 29 16:49:57 2021.

 ----------------------------------------------------------------------
 #p freq b3lyp/6-31G* volume NMR pop=NPA density=current Geom=AllCheck
 Guess=Read
 ----------------------------------------------------------------------

 Cc1ccc(cc1)OC(=O)C(C)(C)C_conf_0
 --------------------------------
 Redundant internal coordinates taken from checkpoint file:
 C12H16O2_5e9d_conf_0.chk
 Charge =  0 Multiplicity = 1

 SCF Done:  E(RB3LYP) =  -617.385095194     A.U. after    1 cycles

  1  C    Isotropic =   167.9115   Anisotropy =    34.7807

  2  C    Isotropic =    62.1356   Anisotropy =   175.9199

  3  C    Isotropic =    66.8997   Anisotropy =   147.5896

  4  C    Isotropic =    76.3730   Anisotropy =   138.9555

  5  C    Isotropic =    47.0853   Anisotropy =   108.3770

  6  C    Isotropic =    73.1385   Anisotropy =   151.6169

  7  C    Isotropic =    66.9358   Anisotropy =   148.4240

  8  O    Isotropic =   109.8788   Anisotropy =   161.1624

  9  C    Isotropic =    22.8099   Anisotropy =    77.1531

 10  O    Isotropic =   -62.3121   Anisotropy =   576.0342

 11  C    Isotropic =   149.0007   Anisotropy =    23.8893

 12  C    Isotropic =   162.1170   Anisotropy =    38.0737

 13  C    Isotropic =   162.8444   Anisotropy =    31.2003

 14  C    Isotropic =   162.1609   Anisotropy =    37.1720

 15  H    Isotropic =    30.1459   Anisotropy =     7.3987

 16  H    Isotropic =    29.7162   Anisotropy =     8.3776

 17  H    Isotropic =    30.0772   Anisotropy =     7.4174

 18  H    Isotropic =    25.1502   Anisotropy =     6.5039

 19  H    Isotropic =    25.4967   Anisotropy =     6.9586

 20  H    Isotropic =    25.0068   Anisotropy =     8.8104

 21  H    Isotropic =    25.1265   Anisotropy =     6.6382

 22  H    Isotropic =    30.8929   Anisotropy =     8.0266

 23  H    Isotropic =    30.3927   Anisotropy =     7.3321

 24  H    Isotropic =    31.1273   Anisotropy =     7.8693

 25  H    Isotropic =    30.6808   Anisotropy =     7.9292

 26  H    Isotropic =    31.5012   Anisotropy =     7.7671

 27  H    Isotropic =    30.6683   Anisotropy =     8.1266

 28  H    Isotropic =    30.4597   Anisotropy =     6.2336

 29  H    Isotropic =    30.8797   Anisotropy =     8.1005

 30  H    Isotropic =    31.1303   Anisotropy =     7.8133

  Exact polarizability: 180.525  -0.422 123.961  -2.964  -5.882  83.842
 Approx polarizability: 228.697  -1.900 208.825  -6.840  -7.697 125.681

                     1                      2                      3
                     A                      A                      A
 Frequencies --    20.7824                34.2852                43.0898
 Red. masses --     2.5288                 1.1562                 3.7667
 Frc consts  --     0.0006                 0.0008                 0.0041
 IR Inten    --     0.2590                 0.3466                 0.7538

                     4                      5                      6
                     A                      A                      A
 Frequencies --    44.8981                87.6753               157.0990
 Red. masses --     5.4545                 4.4084                 3.6596
 Frc consts  --     0.0065                 0.0200                 0.0532
 IR Inten    --     0.3357                 1.3386                 0.2062

                     7                      8                      9
                     A                      A                      A
 Frequencies --   199.1050               207.3067               227.7980
 Red. masses --     1.2979                 2.6168                 1.6629
 Frc consts  --     0.0303                 0.0663                 0.0508
 IR Inten    --     0.2761                 0.6000                 0.3999

                    10                     11                     12
                     A                      A                      A
 Frequencies --   259.4192               271.6048               291.7418
 Red. masses --     1.0736                 1.4354                 2.6277
 Frc consts  --     0.0426                 0.0624                 0.1318
 IR Inten    --     0.0684                 0.3289                 0.5868

                    13                     14                     15
                     A                      A                      A
 Frequencies --   321.3179               347.5146               358.2210
 Red. masses --     2.9477                 3.1273                 3.9418
 Frc consts  --     0.1793                 0.2225                 0.2980
 IR Inten    --     2.0784                 1.2536                 9.2804

                    16                     17                     18
                     A                      A                      A
 Frequencies --   375.9223               414.7986               424.3032
 Red. masses --     2.3564                 3.6545                 3.1161
 Frc consts  --     0.1962                 0.3705                 0.3305
 IR Inten    --     0.4173                 2.5715                 0.4691

                    19                     20                     21
                     A                      A                      A
 Frequencies --   444.5138               521.4772               534.2915
 Red. masses --     3.5443                 2.7108                 5.2360
 Frc consts  --     0.4126                 0.4343                 0.8807
 IR Inten    --     3.5889                 7.6930                 1.5768

                    22                     23                     24
                     A                      A                      A
 Frequencies --   596.3729               653.4621               711.8925
 Red. masses --     3.4493                 6.8070                 3.7196
 Frc consts  --     0.7228                 1.7126                 1.1106
 IR Inten    --     3.4635                 0.5451                 0.5025

                    25                     26                     27
                     A                      A                      A
 Frequencies --   755.1412               759.1509               801.2294
 Red. masses --     4.5319                 6.4687                 2.5747
 Frc consts  --     1.5226                 2.1965                 0.9738
 IR Inten    --     1.5751                 2.7705                 8.9523

                    28                     29                     30
                     A                      A                      A
 Frequencies --   834.6240               838.5359               858.6857
 Red. masses --     1.4912                 1.7660                 4.0233
 Frc consts  --     0.6120                 0.7316                 1.7478
 IR Inten    --     4.2727                11.0132                12.0633

                    31                     32                     33
                     A                      A                      A
 Frequencies --   906.3923               948.0874               952.9812
 Red. masses --     3.4262                 1.7557                 1.3160
 Frc consts  --     1.6584                 0.9298                 0.7042
 IR Inten    --    13.2622                 1.3732                 2.3395

                    34                     35                     36
                     A                      A                      A
 Frequencies --   955.8819               956.5952               980.6968
 Red. masses --     1.3393                 1.6152                 1.1979
 Frc consts  --     0.7210                 0.8708                 0.6788
 IR Inten    --     0.5334                 2.5614                 0.0080

                    37                     38                     39
                     A                      A                      A
 Frequencies --  1019.5823              1040.0259              1058.7997
 Red. masses --     1.4002                 2.7692                 1.4631
 Frc consts  --     0.8576                 1.7648                 0.9664
 IR Inten    --     0.0618                 5.2039                36.2210

                    40                     41                     42
                     A                      A                      A
 Frequencies --  1060.7117              1075.3826              1144.2088
 Red. masses --     1.4316                 1.5106                 1.2698
 Frc consts  --     0.9490                 1.0293                 0.9795
 IR Inten    --     1.1549                14.9875                 8.7311

                    43                     44                     45
                     A                      A                      A
 Frequencies --  1150.2275              1202.1326              1235.6482
 Red. masses --     4.0391                 1.3146                 2.0647
 Frc consts  --     3.1485                 1.1193                 1.8574
 IR Inten    --   474.4644                85.1958               148.8018

                    46                     47                     48
                     A                      A                      A
 Frequencies --  1242.7978              1243.7778              1265.0454
 Red. masses --     3.1079                 4.4938                 2.9471
 Frc consts  --     2.8282                 4.0959                 2.7788
 IR Inten    --    25.0082                86.7491                37.3320

                    49                     50                     51
                     A                      A                      A
 Frequencies --  1309.4568              1342.8736              1350.4378
 Red. masses --     3.1803                 1.4055                 5.6819
 Frc consts  --     3.2129                 1.4933                 6.1051
 IR Inten    --    48.1251                 0.4878                 6.6520

                    52                     53                     54
                     A                      A                      A
 Frequencies --  1421.8841              1429.7860              1443.6807
 Red. masses --     1.2088                 1.2332                 1.2426
 Frc consts  --     1.4400                 1.4853                 1.5259
 IR Inten    --     3.8615                 4.4527                 0.0124

                    55                     56                     57
                     A                      A                      A
 Frequencies --  1457.1493              1458.3321              1507.1950
 Red. masses --     2.6099                 1.2444                 1.0485
 Frc consts  --     3.2650                 1.5593                 1.4033
 IR Inten    --     0.9952                14.7253                 0.0463

                    58                     59                     60
                     A                      A                      A
 Frequencies --  1515.3517              1518.1114              1520.9794
 Red. masses --     1.0452                 1.0488                 1.0452
 Frc consts  --     1.4141                 1.4241                 1.4246
 IR Inten    --     0.1638                 5.3682                 0.0496

                    61                     62                     63
                     A                      A                      A
 Frequencies --  1524.3157              1528.7530              1531.4659
 Red. masses --     1.1001                 1.0495                 1.0539
 Frc consts  --     1.5060                 1.4452                 1.4564
 IR Inten    --     7.2683                 5.6706                 7.9174

                    64                     65                     66
                     A                      A                      A
 Frequencies --  1550.2103              1559.2759              1644.0328
 Red. masses --     1.0867                 2.3994                 6.3145
 Frc consts  --     1.5387                 3.4371                10.0556
 IR Inten    --    48.2343                76.4276                 2.6950

                    67                     68                     69
                     A                      A                      A
 Frequencies --  1669.3908              1830.0319              3041.0249
 Red. masses --     5.9012                12.6736                 1.0406
 Frc consts  --     9.6897                25.0074                 5.6700
 IR Inten    --     7.6610               182.7781                35.2400

                    70                     71                     72
                     A                      A                      A
 Frequencies --  3049.6817              3052.0545              3061.1346
 Red. masses --     1.0357                 1.0362                 1.0367
 Frc consts  --     5.6755                 5.6870                 5.7233
 IR Inten    --    28.0472                11.1302                27.4882

                    73                     74                     75
                     A                      A                      A
 Frequencies --  3097.7300              3112.9263              3115.0843
 Red. masses --     1.0956                 1.1032                 1.1024
 Frc consts  --     6.1944                 6.2983                 6.3025
 IR Inten    --    21.9088                12.0239                24.5951

                    76                     77                     78
                     A                      A                      A
 Frequencies --  3124.1694              3128.4802              3138.7614
 Red. masses --     1.1027                 1.1016                 1.1026
 Frc consts  --     6.3412                 6.3525                 6.4002
 IR Inten    --    16.6504                41.0122                11.6952

                    79                     80                     81
                     A                      A                      A
 Frequencies --  3140.1156              3143.6603              3183.0200
 Red. masses --     1.1018                 1.1008                 1.0891
 Frc consts  --     6.4008                 6.4099                 6.5010
 IR Inten    --    13.3646                42.6962                17.6476

                    82                     83                     84
                     A                      A                      A
 Frequencies --  3184.0588              3214.3589              3243.4588
 Red. masses --     1.0894                 1.0934                 1.0930
 Frc consts  --     6.5075                 6.6563                 6.7744
 IR Inten    --    17.5268                 7.6468                 3.4085

 - Thermochemistry -
 -------------------
 Temperature   298.150 Kelvin.  Pressure   1.00000 Atm.
 Atom     1 has atomic number  6 and mass  12.00000

 Molecular mass:   192.11503 amu.
 Principal axes and moments of inertia in atomic units:
                           1         2         3
     Eigenvalues --   905.973235744.521106088.43792
           X            0.99998  -0.00493  -0.00326
           Y            0.00479   0.99903  -0.04370
           Z            0.00347   0.04368   0.99904
 This molecule is an asymmetric top.
 Rotational symmetry number  1.
 Warning -- assumption of classical behavior for rotation
           may cause significant error
 Rotational temperatures (Kelvin)      0.09560     0.01508     0.01423
 Rotational constants (GHZ):           1.99205     0.31417     0.29642
 Zero-point vibrational energy     669775.2 (Joules/Mol)
                                  160.08011 (Kcal/Mol)
 Warning -- explicit consideration of  22 degrees of freedom as
           vibrations may cause significant error
 Vibrational temperatures:     29.90    49.33    62.00    64.60   126.15
          (Kelvin)            226.03   286.47   298.27   327.75   373.25
                              390.78   419.75   462.30   500.00   515.40
                              540.87   596.80   610.48   639.56   750.29
                              768.73   858.05   940.19  1024.25  1086.48
                             1092.25  1152.79  1200.84  1206.46  1235.46
                             1304.09  1364.08  1371.13  1375.30  1376.33
                             1411.00  1466.95  1496.36  1523.37  1526.13
                             1547.23  1646.26  1654.92  1729.60  1777.82
                             1788.11  1789.52  1820.12  1884.01  1932.09
                             1942.98  2045.77  2057.14  2077.13  2096.51
                             2098.21  2168.51  2180.25  2184.22  2188.35
                             2193.15  2199.53  2203.44  2230.40  2243.45
                             2365.39  2401.88  2633.00  4375.35  4387.81
                             4391.22  4404.28  4456.94  4478.80  4481.91
                             4494.98  4501.18  4515.97  4517.92  4523.02
                             4579.65  4581.14  4624.74  4666.61

 Zero-point correction=                           0.255104 (Hartree/Particle)
 Thermal correction to Energy=                    0.269985
 Thermal correction to Enthalpy=                  0.270929
 Thermal correction to Gibbs Free Energy=         0.211412
 Sum of electronic and zero-point Energies=           -617.129991
 Sum of electronic and thermal Energies=              -617.115110
 Sum of electronic and thermal Enthalpies=            -617.114166
 Sum of electronic and thermal Free Energies=         -617.173683

                     E (Thermal)             CV                S
                      KCal/Mol        Cal/Mol-Kelvin    Cal/Mol-Kelvin
 Total                  169.418             55.088            125.264
 Electronic               0.000              0.000              0.000
 Translational            0.889              2.981             41.664
 Rotational               0.889              2.981             31.827
 Vibrational            167.641             49.126             51.772
 Vibration     1          0.593              1.986              6.558
 Vibration     2          0.594              1.983              5.565
 Vibration     3          0.595              1.980              5.112
 Vibration     4          0.595              1.979              5.030
 Vibration     5          0.601              1.958              3.711
 Vibration     6          0.621              1.895              2.584
 Vibration     7          0.637              1.841              2.141
 Vibration     8          0.641              1.829              2.067
 Vibration     9          0.651              1.799              1.896
 Vibration    10          0.668              1.747              1.666
 Vibration    11          0.675              1.726              1.586
 Vibration    12          0.687              1.689              1.464
 Vibration    13          0.707              1.633              1.303
 Vibration    14          0.725              1.580              1.177
 Vibration    15          0.733              1.558              1.130
 Vibration    16          0.747              1.521              1.056
 Vibration    17          0.778              1.438              0.910
 Vibration    18          0.786              1.417              0.877
 Vibration    19          0.804              1.373              0.813
 Vibration    20          0.876              1.202              0.607
 Vibration    21          0.889              1.174              0.578
 Vibration    22          0.954              1.040              0.456

 Optimization completed.
    -- Stationary point found.
 Normal termination of Gaussian 09 at Wed Sep 29 17:47:31 2021.
 Gaussian 09:  AM64L-G09RevA.02 11-Jun-2009

 ----------------------------------------------------------------------
 #p TD(NStates=10, Root=1) b3lyp/6-31G* volume pop=NPA density=current
 Geom=AllCheck Guess=Read
 ----------------------------------------------------------------------

 Cc1ccc(cc1)OC(=O)C(C)(C)C_conf_0
 --------------------------------
 Redundant internal coordinates taken from checkpoint file:
 C12H16O2_5e9d_conf_0.chk
 Charge =  0 Multiplicity = 1

                         Standard orientation:
 ---------------------------------------------------------------------
 Center     Atomic      Atomic             Coordinates (Angstroms)
 Number     Number       Type             X           Y           Z
 ---------------------------------------------------------------------
      1          6           0        5.075042   -0.166938   -0.121877
      2          6           0        3.575780   -0.022343    0.001095
      3          6           0        2.947106    1.208804   -0.223299
      4          6           0        1.561170    1.337259   -0.142945
      5          6           0        0.786421    0.223867    0.171049
      6          6           0        1.381896   -1.013434    0.411178
      7          6           0        2.769027   -1.122435    0.321545
      8          8           0       -0.585659    0.444177    0.319795
      9          6           0       -1.502091   -0.388920   -0.271356
     10          8           0       -1.200917   -1.348991   -0.938423
     11          6           0       -2.928997    0.078811    0.036545
     12          6           0       -3.125023    1.505637   -0.523889
     13          6           0       -3.916108   -0.892099   -0.630218
     14          6           0       -3.139318    0.086031    1.567275
     15          1           0        5.588438    0.774378    0.101321
     16          1           0        5.365536   -0.462807   -1.138914
     17          1           0        5.461495   -0.932039    0.560104
     18          1           0        3.548021    2.082724   -0.463933
     19          1           0        1.073754    2.292456   -0.312072
     20          1           0        0.774326   -1.875314    0.657617
     21          1           0        3.233066   -2.088167    0.508428
     22          1           0       -2.967476    1.531017   -1.608376
     23          1           0       -2.434807    2.215073   -0.059098
     24          1           0       -4.149600    1.840934   -0.325651
     25          1           0       -3.772734   -0.921481   -1.714452
     26          1           0       -4.944422   -0.574379   -0.424168
     27          1           0       -3.786436   -1.910957   -0.252738
     28          1           0       -2.447060    0.772443    2.062457
     29          1           0       -2.995594   -0.914215    1.992268
     30          1           0       -4.163337    0.403406    1.795617
 ---------------------------------------------------------------------

 SCF Done:  E(RB3LYP) =  -617.385095194     A.U. after    1 cycles

 Excitation energies and oscillator strengths:

 Excited State   1:      Singlet-A      5.2607 eV  235.68 nm  f=0.0034  <S**2>=0.000
      51 -> 53        -0.42846
      51 -> 55        -0.12341
      52 -> 54         0.53988
 This state for optimization and/or second-order correction.
 Total Energy, E(TD-HF/TD-KS) =  -617.191767081
 Copying the excited state density for this state as the 1-particle RhoCI density.

 Excited State   2:      Singlet-A      5.4777 eV  226.34 nm  f=0.1116  <S**2>=0.000
      50 -> 53        -0.35310
      50 -> 55         0.19359
      51 -> 55         0.13167
      52 -> 53         0.50829
      52 -> 54        -0.12080
      52 -> 55        -0.17042

 Excited State   3:      Singlet-A      5.5710 eV  222.55 nm  f=0.0777  <S**2>=0.000
      50 -> 53         0.42656
      50 -> 55        -0.21409
      51 -> 53         0.17362
      51 -> 54         0.10900
      51 -> 55        -0.15423
      52 -> 53         0.42008
      52 -> 54         0.11876
      52 -> 55        -0.10102

 Excited State   4:      Singlet-A      6.2103 eV  199.64 nm  f=0.0024  <S**2>=0.000
      51 -> 54         0.39724
      52 -> 55         0.55856

 Excited State   5:      Singlet-A      6.3345 eV  195.73 nm  f=0.0363  <S**2>=0.000
      50 -> 53        -0.28935
      50 -> 55         0.13065
      51 -> 53         0.43201
      51 -> 55        -0.38970
      52 -> 54         0.22292

 Excited State   6:      Singlet-A      6.5216 eV  190.11 nm  f=0.1060  <S**2>=0.000
      50 -> 54         0.64214
      51 -> 54         0.19086
      52 -> 53        -0.11070
      52 -> 55        -0.18523

 Excited State   7:      Singlet-A      6.7461 eV  183.79 nm  f=0.0435  <S**2>=0.000
      50 -> 53         0.27425
      50 -> 55         0.52727
      51 -> 53         0.18035
      51 -> 55         0.27147
      52 -> 54         0.14001

 Excited State   8:      Singlet-A      7.0152 eV  176.74 nm  f=0.6379  <S**2>=0.000
      49 -> 53         0.28236
      50 -> 54        -0.25587
      51 -> 54         0.48640
      52 -> 53        -0.16500
      52 -> 55        -0.26659

 Excited State   9:      Singlet-A      7.1441 eV  173.55 nm  f=0.2071  <S**2>=0.000
      49 -> 54        -0.27143
      50 -> 53        -0.15705
      50 -> 55        -0.29487
      51 -> 53         0.19438
      51 -> 55         0.41885
      52 -> 54         0.29030

 Excited State  10:      Singlet-A      7.5001 eV  165.31 nm  f=0.1116  <S**2>=0.000
      46 -> 53         0.14214
      48 -> 53        -0.13231
      49 -> 53         0.55559
      49 -> 54        -0.10832
      49 -> 55         0.15203
      50 -> 55         0.11598
      51 -> 54        -0.17529
      52 -> 55         0.15675

 The electronic state is 1-A.
 Alpha  occ. eigenvalues --  -19.19765 -19.13863 -10.31482 -10.24730 -10.21340
 Alpha  occ. eigenvalues --  -10.19642 -10.19074 -10.18988 -10.18959 -10.18874
 Alpha  occ. eigenvalues --  -10.18432 -10.18219 -10.18200 -10.17387  -1.10415
 Alpha  occ. eigenvalues --   -1.02163  -0.85684  -0.82320  -0.77155  -0.74733
 Alpha  occ. eigenvalues --   -0.70042  -0.69162  -0.68460  -0.63997  -0.61520
 Alpha  occ. eigenvalues --   -0.58177  -0.55208  -0.49206  -0.48476  -0.47592
 Alpha  occ. eigenvalues --   -0.47063  -0.45196  -0.44145  -0.43217  -0.42512
 Alpha  occ. eigenvalues --   -0.42296  -0.41782  -0.40702  -0.39089  -0.38998
 Alpha  occ. eigenvalues --   -0.37873  -0.36820  -0.36364  -0.35718  -0.34993
 Alpha  occ. eigenvalues --   -0.34169  -0.33398  -0.33300  -0.31218  -0.26987
 Alpha  occ. eigenvalues --   -0.24927  -0.23046
 Alpha virt. eigenvalues --   -0.00677  -0.00116   0.02125   0.08339   0.09174
 Alpha virt. eigenvalues --    0.12124   0.12711   0.13183   0.14388   0.15002
 Alpha virt. eigenvalues --    0.15216   0.15485   0.15927   0.17207   0.17389

 Mulliken atomic charges:
              1
     1  C   -0.531557
     2  C    0.190482
     3  C   -0.201807
     4  C   -0.165384
     5  C    0.340581
     6  C   -0.145442
     7  C   -0.202913
     8  O   -0.514901
     9  C    0.618091
    10  O   -0.456239
    11  C   -0.006086
    12  C   -0.450396
    13  C   -0.434482
    14  C   -0.451093
    15  H    0.159040
    16  H    0.173395
    17  H    0.160384
    18  H    0.127524
    19  H    0.140623
    20  H    0.151617
    21  H    0.129882
    22  H    0.151887
    23  H    0.160570
    24  H    0.147271
    25  H    0.156990
    26  H    0.136763
    27  H    0.154718
    28  H    0.163544
    29  H    0.149873
    30  H    0.147068
 Sum of Mulliken atomic charges =  -0.00000

 Dipole moment (field-independent basis, Debye):
    X=              0.3425    Y=              1.2485    Z=              0.8921  Tot=              1.5722
 Quadrupole moment (field-independent basis, Debye-Ang):
   XX=            -70.8133   YY=            -82.9025   ZZ=            -86.6354
   XY=             -2.1805   XZ=             -1.9693   YZ=             -4.0151

 Summary of Natural Population Analysis:

                                       Natural Population
                Natural  -----------------------------------------------
    Atom  No    Charge         Core      Valence    Rydberg      Total
 -----------------------------------------------------------------------
      C    1   -0.69395      1.99940     4.68678    0.00777     6.69395
      C    2   -0.00340      1.99906     3.98860    0.01574     6.00340
      C    3   -0.24241      1.99907     4.22598    0.01736     6.24241
      C    4   -0.25977      1.99904     4.24212    0.01861     6.25977
      C    5    0.31381      1.99873     3.66376    0.02370     5.68619
      C    6   -0.27830      1.99904     4.26106    0.01820     6.27830
      C    7   -0.22805      1.99907     4.21172    0.01727     6.22805
      O    8   -0.52207      1.99969     6.51111    0.01126     8.52207
      C    9    0.81211      1.99927     3.13976    0.04885     5.18789
      O   10   -0.56255      1.99977     6.54271    0.02007     8.56255
      C   11   -0.14836      1.99905     4.13679    0.01251     6.14836
      C   12   -0.66929      1.99938     4.66011    0.00981     6.66929
      C   13   -0.66985      1.99939     4.65941    0.01105     6.66985
      C   14   -0.66994      1.99938     4.66079    0.00978     6.66994
      H   15    0.23993      0.00000     0.75862    0.00146     0.76007
      H   16    0.24982      0.00000     0.74858    0.00159     0.75018
      H   17    0.24108      0.00000     0.75741    0.00151     0.75892
      H   18    0.22991      0.00000     0.76907    0.00102     0.77009
      H   19    0.24078      0.00000     0.75800    0.00122     0.75922
      H   20    0.24984      0.00000     0.74910    0.00106     0.75016
      H   21    0.23039      0.00000     0.76858    0.00103     0.76961
      H   22    0.23646      0.00000     0.76262    0.00092     0.76354
      H   23    0.24186      0.00000     0.75699    0.00115     0.75814
      H   24    0.23399      0.00000     0.76491    0.00110     0.76601
      H   25    0.24330      0.00000     0.75565    0.00105     0.75670
      H   26    0.22967      0.00000     0.76941    0.00092     0.77033
      H   27    0.24198      0.00000     0.75698    0.00104     0.75802
      H   28    0.24360      0.00000     0.75535    0.00105     0.75640
      H   29    0.23547      0.00000     0.76358    0.00094     0.76453
      H   30    0.23394      0.00000     0.76484    0.00122     0.76606
 =======================================================================
   * Total *   -0.00000     27.98936    75.75040    0.26024   104.00000

 Normal termination of Gaussian 09 at Wed Sep 29 22:36:43 2021.
