 Gaussian 09, Revision A.02,

 -----------------------------------
 #p opt b3lyp/6-31G* scf=(xqc,tight)
 -----------------------------------

 ----------------------------------------
 [Li]c1cccc(c1)O[Si](C(C)(C)C)(C)C_conf_0
 ----------------------------------------
 Symbolic Z-matrix:
 Charge =  0 Multiplicity = 1

 SCF Done:  E(RB3LYP) =  -840.997873139     A.U. after   16 cycles
 SCF Done:  E(RB3LYP) =  -841.005047030     A.U. after   12 cycles
 SCF Done:  E(RB3LYP) =  -841.005613476     A.U. after   10 cycles
 SCF Done:  E(RB3LYP) =  -841.005647843     A.U. after    9 cycles
 SCF Done:  E(RB3LYP) =  -841.005653651     A.U. after    8 cycles
 SCF Done:  E(RB3LYP) =  -841.005656081     A.U. after    8 cycles
 SCF Done:  E(RB3LYP) =  -841.005657006     A.U. after    8 cycles
 SCF Done:  E(RB3LYP) =  -841.005657568     A.U. after    7 cycles
 SCF Done:  E(RB3LYP) =  -841.005658267     A.U. after    7 cycles
 SCF Done:  E(RB3LYP) =  -841.005659439     A.U. after    8 cycles
 SCF Done:  E(RB3LYP) =  -841.005659650     A.U. after    7 cycles
 Optimization completed.
    -- Stationary point found.
 Normal termination of Gaussian 09 at Sat Oct  2 23:04:02 2021.

 ----------------------------------------------------------------------
 #p freq b3lyp/6-31G* volume NMR pop=NPA density=current Geom=AllCheck
 Guess=Read
 ----------------------------------------------------------------------

 [Li]c1cccc(c1)O[Si](C(C)(C)C)(C)C_conf_0
 ----------------------------------------
 Redundant internal coordinates taken from checkpoint file:
 C12H19LiOSi_3a63_conf_0.chk
 Charge =  0 Multiplicity = 1

 SCF Done:  E(RB3LYP) =  -841.005659650     A.U. after    1 cycles

  1  Li   Isotropic =    90.9497   Anisotropy =    15.7259

  2  C    Isotropic =    29.1634   Anisotropy =   243.2106

  3  C    Isotropic =    60.8231   Anisotropy =   147.7478

  4  C    Isotropic =    70.3122   Anisotropy =   152.0313

  5  C    Isotropic =    81.8500   Anisotropy =   123.8138

  6  C    Isotropic =    43.2946   Anisotropy =   119.0792

  7  C    Isotropic =    62.4887   Anisotropy =   123.6568

  8  O    Isotropic =   225.4959   Anisotropy =    57.4669

  9  Si   Isotropic =   390.7149   Anisotropy =    30.4985

 10  C    Isotropic =   167.4552   Anisotropy =     6.0329

 11  C    Isotropic =   163.8658   Anisotropy =    35.3675

 12  C    Isotropic =   163.9882   Anisotropy =    36.0140

 13  C    Isotropic =   163.8690   Anisotropy =    35.3695

 14  C    Isotropic =   192.8001   Anisotropy =     5.9756

 15  C    Isotropic =   192.7031   Anisotropy =     5.8156

 16  H    Isotropic =    25.0077   Anisotropy =     5.8704

 17  H    Isotropic =    25.6460   Anisotropy =     6.7567

 18  H    Isotropic =    25.8836   Anisotropy =    10.0096

 19  H    Isotropic =    25.0599   Anisotropy =     9.7040

 20  H    Isotropic =    31.0890   Anisotropy =     7.6028

 21  H    Isotropic =    30.5326   Anisotropy =     7.8967

 22  H    Isotropic =    31.5414   Anisotropy =     8.7047

 23  H    Isotropic =    31.2150   Anisotropy =     7.9291

 24  H    Isotropic =    31.4496   Anisotropy =     8.6894

 25  H    Isotropic =    31.2138   Anisotropy =     7.9309

 26  H    Isotropic =    30.5328   Anisotropy =     7.8861

 27  H    Isotropic =    31.0879   Anisotropy =     7.6091

 28  H    Isotropic =    31.5406   Anisotropy =     8.7054

 29  H    Isotropic =    31.9866   Anisotropy =     8.1200

 30  H    Isotropic =    32.3232   Anisotropy =     8.8417

 31  H    Isotropic =    31.6993   Anisotropy =     9.8890

 32  H    Isotropic =    31.9774   Anisotropy =     8.1068

 33  H    Isotropic =    31.7015   Anisotropy =     9.8911

 34  H    Isotropic =    32.3169   Anisotropy =     8.8355

  Exact polarizability: 214.143 -15.104 174.929  -0.102   0.016 118.848
 Approx polarizability: 273.564  -8.673 262.826  -0.206   0.026 165.965

 ******    1 imaginary frequencies (negative Signs) ******

                     1                      2                      3
                     A                      A                      A
 Frequencies --   -10.3528                41.6239                46.7357
 Red. masses --     4.2124                 3.7487                 2.7367
 Frc consts  --     0.0003                 0.0038                 0.0035
 IR Inten    --     6.6709                 0.3663                 1.4300

                     4                      5                      6
                     A                      A                      A
 Frequencies --    61.6955               104.1541               116.5647
 Red. masses --     4.1101                 5.8815                 1.7503
 Frc consts  --     0.0092                 0.0376                 0.0140
 IR Inten    --     8.1081                71.5844                38.2279

                     7                      8                      9
                     A                      A                      A
 Frequencies --   122.6922               129.2494               143.6770
 Red. masses --     1.8961                 1.0578                 3.8553
 Frc consts  --     0.0168                 0.0104                 0.0469
 IR Inten    --    38.3593                 0.7981                 0.2904

                    10                     11                     12
                     A                      A                      A
 Frequencies --   171.8553               194.3012               197.9064
 Red. masses --     2.7215                 3.0904                 2.4438
 Frc consts  --     0.0474                 0.0687                 0.0564
 IR Inten    --     1.7482                 0.2613                 1.0658

                    13                     14                     15
                     A                      A                      A
 Frequencies --   224.0403               240.9546               246.4541
 Red. masses --     2.7164                 1.1738                 2.4391
 Frc consts  --     0.0803                 0.0402                 0.0873
 IR Inten    --     1.6598                 0.0754                 1.4518

                    16                     17                     18
                     A                      A                      A
 Frequencies --   256.4668               281.7902               295.7889
 Red. masses --     2.0418                 1.2321                 1.1547
 Frc consts  --     0.0791                 0.0576                 0.0595
 IR Inten    --     0.7450                 0.8450                 0.0305

                    19                     20                     21
                     A                      A                      A
 Frequencies --   310.5504               340.4597               385.2061
 Red. masses --     3.0832                 3.1974                 2.9014
 Frc consts  --     0.1752                 0.2184                 0.2537
 IR Inten    --     6.2659                 0.9147                 9.7961

                    22                     23                     24
                     A                      A                      A
 Frequencies --   394.5095               407.5892               429.5097
 Red. masses --     2.4226                 3.0588                 3.4270
 Frc consts  --     0.2221                 0.2994                 0.3725
 IR Inten    --     2.0147                11.5374                 8.7412

                    25                     26                     27
                     A                      A                      A
 Frequencies --   488.7290               526.1075               527.0978
 Red. masses --     6.9338                 6.7587                 4.2874
 Frc consts  --     0.9758                 1.1022                 0.7018
 IR Inten    --    48.1247                 6.9465                 6.1735

                    28                     29                     30
                     A                      A                      A
 Frequencies --   566.8120               655.6942               679.4582
 Red. masses --     2.9928                 3.6963                 7.2722
 Frc consts  --     0.5665                 0.9363                 1.9781
 IR Inten    --     3.2193                12.9727                11.5277

                    31                     32                     33
                     A                      A                      A
 Frequencies --   687.8417               714.2644               743.7915
 Red. masses --     2.0542                 2.3651                 4.6435
 Frc consts  --     0.5726                 0.7109                 1.5136
 IR Inten    --     6.8340                 8.8523                23.5493

                    34                     35                     36
                     A                      A                      A
 Frequencies --   764.1077               781.9951               799.4479
 Red. masses --     1.2650                 1.5999                 1.9530
 Frc consts  --     0.4352                 0.5764                 0.7354
 IR Inten    --     2.2102                 4.7914               101.2426

                    37                     38                     39
                     A                      A                      A
 Frequencies --   831.2816               858.1274               860.8540
 Red. masses --     2.4003                 1.7901                 1.2965
 Frc consts  --     0.9773                 0.7767                 0.5661
 IR Inten    --     3.4583               165.1149                 0.2455

                    40                     41                     42
                     A                      A                      A
 Frequencies --   881.3937               908.0034               954.4095
 Red. masses --     1.5586                 1.4394                 6.3346
 Frc consts  --     0.7134                 0.6992                 3.3997
 IR Inten    --   100.9579                 5.7118               330.5678

                    43                     44                     45
                     A                      A                      A
 Frequencies --   955.3104               956.0091               956.8333
 Red. masses --     1.2790                 1.8552                 1.9391
 Frc consts  --     0.6877                 0.9990                 1.0460
 IR Inten    --     0.2639                 3.8199                 3.3547

                    46                     47                     48
                     A                      A                      A
 Frequencies --   975.6299              1010.0766              1041.6795
 Red. masses --     1.1989                 6.3112                 1.3625
 Frc consts  --     0.6723                 3.7937                 0.8710
 IR Inten    --     0.1202                 6.5496                 5.7467

                    49                     50                     51
                     A                      A                      A
 Frequencies --  1047.2741              1070.0081              1130.9270
 Red. masses --     1.3618                 2.3779                 1.6207
 Frc consts  --     0.8800                 1.6040                 1.2213
 IR Inten    --     4.4472                10.9531                 5.9484

                    52                     53                     54
                     A                      A                      A
 Frequencies --  1205.3610              1224.2365              1227.0498
 Red. masses --     1.1450                 2.4476                 2.4688
 Frc consts  --     0.9801                 2.1613                 2.1901
 IR Inten    --     3.0401                 0.0037                 9.3259

                    55                     56                     57
                     A                      A                      A
 Frequencies --  1249.9187              1260.0831              1297.9998
 Red. masses --     2.3666                 3.1041                 4.7137
 Frc consts  --     2.1784                 2.9039                 4.6791
 IR Inten    --    58.5982               285.2424               181.9730

                    58                     59                     60
                     A                      A                      A
 Frequencies --  1330.3439              1336.5211              1349.3217
 Red. masses --     1.2495                 1.2528                 1.5070
 Frc consts  --     1.3029                 1.3185                 1.6166
 IR Inten    --    40.4160                53.4405                 2.0289

                    61                     62                     63
                     A                      A                      A
 Frequencies --  1421.4660              1424.8852              1426.6871
 Red. masses --     2.7881                 1.2064                 1.2128
 Frc consts  --     3.3192                 1.4432                 1.4545
 IR Inten    --    60.5571                 2.0078                 1.8379

                    64                     65                     66
                     A                      A                      A
 Frequencies --  1457.3470              1488.9323              1493.1016
 Red. masses --     1.2080                 1.0525                 1.0535
 Frc consts  --     1.5116                 1.3748                 1.3838
 IR Inten    --     4.8776                 0.0617                 1.1448

                    67                     68                     69
                     A                      A                      A
 Frequencies --  1497.1565              1504.1736              1507.6364
 Red. masses --     1.0754                 1.0905                 1.8653
 Frc consts  --     1.4202                 1.4537                 2.4979
 IR Inten    --     9.2826                 1.3323                61.5687

                    70                     71                     72
                     A                      A                      A
 Frequencies --  1517.9085              1519.8335              1521.6261
 Red. masses --     1.0483                 1.0497                 1.0465
 Frc consts  --     1.4231                 1.4286                 1.4276
 IR Inten    --     0.0598                 0.5570                 0.2972

                    73                     74                     75
                     A                      A                      A
 Frequencies --  1537.9245              1538.3932              1547.8473
 Red. masses --     1.0487                 1.0472                 1.0520
 Frc consts  --     1.4614                 1.4602                 1.4850
 IR Inten    --     2.4714                 5.7218                15.6517

                    76                     77                     78
                     A                      A                      A
 Frequencies --  1608.0773              1618.2251              3018.6180
 Red. masses --     4.7993                 5.7245                 1.0395
 Frc consts  --     7.3121                 8.8321                 5.5808
 IR Inten    --    56.4146                95.8684                25.0420

                    79                     80                     81
                     A                      A                      A
 Frequencies --  3019.2597              3026.1734              3046.9200
 Red. masses --     1.0425                 1.0418                 1.0365
 Frc consts  --     5.5993                 5.6214                 5.6696
 IR Inten    --    28.7629                83.3360                 3.4779

                    82                     83                     84
                     A                      A                      A
 Frequencies --  3048.8622              3077.6098              3082.2970
 Red. masses --     1.0364                 1.0969                 1.0942
 Frc consts  --     5.6759                 6.1211                 6.1248
 IR Inten    --     6.0742                13.3035                19.5444

                    85                     86                     87
                     A                      A                      A
 Frequencies --  3085.9493              3098.7543              3110.4526
 Red. masses --     1.0931                 1.1015                 1.0861
 Frc consts  --     6.1331                 6.2316                 6.1913
 IR Inten    --    71.3265                40.1169                33.9844

                    88                     89                     90
                     A                      A                      A
 Frequencies --  3115.1621              3117.3268              3117.8750
 Red. masses --     1.1011                 1.0997                 1.0998
 Frc consts  --     6.2955                 6.2961                 6.2990
 IR Inten    --     4.8195                 3.9271                72.7746

                    91                     92                     93
                     A                      A                      A
 Frequencies --  3119.0501              3122.6537              3127.0977
 Red. masses --     1.0995                 1.0881                 1.1003
 Frc consts  --     6.3024                 6.2514                 6.3393
 IR Inten    --    10.1739                33.0052                10.2272

                    94                     95                     96
                     A                      A                      A
 Frequencies --  3127.4411              3158.4615              3199.5108
 Red. masses --     1.1001                 1.0903                 1.0918
 Frc consts  --     6.3394                 6.4086                 6.5850
 IR Inten    --    28.7936                52.6206                34.4348

 - Thermochemistry -
 -------------------
 Temperature   298.150 Kelvin.  Pressure   1.00000 Atm.
 Atom     1 has atomic number  3 and mass   7.01600

 Molecular mass:   214.13652 amu.
 Principal axes and moments of inertia in atomic units:
                           1         2         3
     Eigenvalues --  1655.339665928.617686617.76572
           X            0.99963   0.02726  -0.00001
           Y           -0.02726   0.99963  -0.00001
           Z            0.00001   0.00001   1.00000
 This molecule is an asymmetric top.
 Rotational symmetry number  1.
 Warning -- assumption of classical behavior for rotation
           may cause significant error
 Rotational temperatures (Kelvin)      0.05232     0.01461     0.01309
 Rotational constants (GHZ):           1.09025     0.30441     0.27271
    1 imaginary frequencies ignored.
 Zero-point vibrational energy     738385.8 (Joules/Mol)
                                  176.47845 (Kcal/Mol)
 Warning -- explicit consideration of  27 degrees of freedom as
           vibrations may cause significant error
 Vibrational temperatures:     59.89    67.24    88.77   149.85   167.71
          (Kelvin)            176.53   185.96   206.72   247.26   279.56
                              284.74   322.34   346.68   354.59   369.00
                              405.43   425.57   446.81   489.84   554.22
                              567.61   586.43   617.97   703.17   756.95
                              758.38   815.51   943.40   977.59   989.65
                             1027.67  1070.15  1099.38  1125.12  1150.23
                             1196.03  1234.65  1238.58  1268.13  1306.41
                             1373.18  1374.48  1375.48  1376.67  1403.71
                             1453.27  1498.74  1506.79  1539.50  1627.15
                             1734.24  1761.40  1765.45  1798.35  1812.98
                             1867.53  1914.07  1922.95  1941.37  2045.17
                             2050.09  2052.68  2096.79  2142.24  2148.24
                             2154.07  2164.17  2169.15  2183.93  2186.70
                             2189.28  2212.73  2213.40  2227.00  2313.66
                             2328.26  4343.11  4344.04  4353.98  4383.83
                             4386.63  4427.99  4434.73  4439.99  4458.41
                             4475.24  4482.02  4485.13  4485.92  4487.61
                             4492.80  4499.19  4499.68  4544.32  4603.38

 Zero-point correction=                           0.281236 (Hartree/Particle)
 Thermal correction to Energy=                    0.299146
 Thermal correction to Enthalpy=                  0.300090
 Thermal correction to Gibbs Free Energy=         0.236221
 Sum of electronic and zero-point Energies=           -840.724423
 Sum of electronic and thermal Energies=              -840.706514
 Sum of electronic and thermal Enthalpies=            -840.705569
 Sum of electronic and thermal Free Energies=         -840.769439

                     E (Thermal)             CV                S
                      KCal/Mol        Cal/Mol-Kelvin    Cal/Mol-Kelvin
 Total                  187.717             66.846            134.424
 Electronic               0.000              0.000              0.000
 Translational            0.889              2.981             41.988
 Rotational               0.889              2.981             32.540
 Vibrational            185.940             60.884             59.896
 Vibration     1          0.594              1.981              5.180
 Vibration     2          0.595              1.979              4.951
 Vibration     3          0.597              1.973              4.402
 Vibration     4          0.605              1.946              3.375
 Vibration     5          0.608              1.936              3.157
 Vibration     6          0.610              1.930              3.058
 Vibration     7          0.612              1.924              2.957
 Vibration     8          0.616              1.909              2.754
 Vibration     9          0.626              1.877              2.415
 Vibration    10          0.635              1.848              2.186
 Vibration    11          0.637              1.843              2.152
 Vibration    12          0.649              1.804              1.926
 Vibration    13          0.658              1.778              1.796
 Vibration    14          0.661              1.769              1.756
 Vibration    15          0.666              1.752              1.686
 Vibration    16          0.681              1.707              1.523
 Vibration    17          0.690              1.682              1.441
 Vibration    18          0.699              1.654              1.359
 Vibration    19          0.720              1.595              1.210
 Vibration    20          0.754              1.502              1.019
 Vibration    21          0.761              1.482              0.983
 Vibration    22          0.772              1.454              0.935
 Vibration    23          0.791              1.406              0.860
 Vibration    24          0.845              1.275              0.687
 Vibration    25          0.881              1.192              0.596
 Vibration    26          0.882              1.190              0.594
 Vibration    27          0.923              1.103              0.510

 Normal termination of Gaussian 09 at Sun Oct  3 01:22:56 2021.
 Gaussian 09:  AM64L-G09RevA.02 11-Jun-2009

 ----------------------------------------------------------------------
 #p TD(NStates=10, Root=1) b3lyp/6-31G* volume pop=NPA density=current
 Geom=AllCheck Guess=Read
 ----------------------------------------------------------------------

 [Li]c1cccc(c1)O[Si](C(C)(C)C)(C)C_conf_0
 ----------------------------------------
 Redundant internal coordinates taken from checkpoint file:
 C12H19LiOSi_3a63_conf_0.chk
 Charge =  0 Multiplicity = 1

                         Standard orientation:
 ---------------------------------------------------------------------
 Center     Atomic      Atomic             Coordinates (Angstroms)
 Number     Number       Type             X           Y           Z
 ---------------------------------------------------------------------
      1          3           0       -4.972852    2.745886    0.002685
      2          6           0       -3.820189    1.143981    0.000528
      3          6           0       -4.325960   -0.179258    0.001490
      4          6           0       -3.493323   -1.299449   -0.000522
      5          6           0       -2.103822   -1.152408   -0.003519
      6          6           0       -1.560972    0.136172   -0.004279
      7          6           0       -2.413477    1.249139   -0.002391
      8          8           0       -0.206500    0.382847   -0.007486
      9         14           0        1.159048   -0.599271    0.001261
     10          6           0        2.604786    0.655001   -0.000469
     11          6           0        2.520968    1.557088    1.249932
     12          6           0        3.954722   -0.094588    0.006433
     13          6           0        2.527614    1.546018   -1.259211
     14          6           0        1.197387   -1.677782    1.554447
     15          6           0        1.206828   -1.692104   -1.541707
     16          1           0       -5.403965   -0.353650    0.003796
     17          1           0       -3.918794   -2.302303    0.000105
     18          1           0       -1.460557   -2.027472   -0.005565
     19          1           0       -1.918111    2.221790   -0.003344
     20          1           0        2.614735    0.981363    2.178958
     21          1           0        1.572269    2.103545    1.288064
     22          1           0        3.335215    2.296806    1.241809
     23          1           0        4.071424   -0.726376    0.895928
     24          1           0        4.789422    0.621532    0.005669
     25          1           0        4.076280   -0.733954   -0.876964
     26          1           0        1.579297    2.092375   -1.307042
     27          1           0        2.625939    0.962042   -2.182593
     28          1           0        3.342041    2.285565   -1.253499
     29          1           0        1.166513   -1.066877    2.463611
     30          1           0        2.109269   -2.286509    1.590277
     31          1           0        0.342734   -2.362043    1.591696
     32          1           0        1.179361   -1.089506   -2.456514
     33          1           0        0.353570   -2.378226   -1.576971
     34          1           0        2.119878   -2.299596   -1.567638
 ---------------------------------------------------------------------

 SCF Done:  E(RB3LYP) =  -841.005659650     A.U. after    1 cycles

 Excitation energies and oscillator strengths:

 Excited State   1:      Singlet-A      2.9998 eV  413.31 nm  f=0.0024  <S**2>=0.000
      58 -> 59         0.70319
 This state for optimization and/or second-order correction.
 Total Energy, E(TD-HF/TD-KS) =  -840.895420257
 Copying the excited state density for this state as the 1-particle RhoCI density.

 Excited State   2:      Singlet-A      3.0116 eV  411.69 nm  f=0.1060  <S**2>=0.000
      57 -> 59         0.70438

 Excited State   3:      Singlet-A      3.4367 eV  360.77 nm  f=0.0095  <S**2>=0.000
      56 -> 59         0.70199

 Excited State   4:      Singlet-A      4.2491 eV  291.79 nm  f=0.0660  <S**2>=0.000
      57 -> 60         0.70412

 Excited State   5:      Singlet-A      4.2902 eV  289.00 nm  f=0.0274  <S**2>=0.000
      57 -> 61         0.68782
      58 -> 60        -0.15146

 Excited State   6:      Singlet-A      4.3984 eV  281.88 nm  f=0.0282  <S**2>=0.000
      56 -> 63         0.10039
      57 -> 61         0.14595
      58 -> 60         0.67581

 Excited State   7:      Singlet-A      4.4611 eV  277.92 nm  f=0.0016  <S**2>=0.000
      58 -> 61         0.70466

 Excited State   8:      Singlet-A      4.9167 eV  252.17 nm  f=0.0004  <S**2>=0.000
      56 -> 61         0.70457

 Excited State   9:      Singlet-A      4.9331 eV  251.33 nm  f=0.1591  <S**2>=0.000
      56 -> 60         0.68106
      58 -> 62         0.14302

 Excited State  10:      Singlet-A      5.0765 eV  244.23 nm  f=0.0001  <S**2>=0.000
      55 -> 59         0.70637

 The electronic state is 1-A.
 Alpha  occ. eigenvalues --  -66.12860 -19.12832 -10.20983 -10.16801 -10.16538
 Alpha  occ. eigenvalues --  -10.15953 -10.15952 -10.15182 -10.15103 -10.15016
 Alpha  occ. eigenvalues --  -10.15014 -10.14043 -10.13958 -10.11412  -5.26959
 Alpha  occ. eigenvalues --   -3.63061  -3.62756  -3.62739  -2.00187  -0.99581
 Alpha  occ. eigenvalues --   -0.79670  -0.78352  -0.69869  -0.68697  -0.68313
 Alpha  occ. eigenvalues --   -0.67090  -0.66898  -0.66147  -0.57037  -0.55750
 Alpha  occ. eigenvalues --   -0.53246  -0.48749  -0.45717  -0.44153  -0.42346
 Alpha  occ. eigenvalues --   -0.42020  -0.41156  -0.40201  -0.39459  -0.39062
 Alpha  occ. eigenvalues --   -0.38689  -0.37882  -0.37314  -0.36812  -0.36690
 Alpha  occ. eigenvalues --   -0.36204  -0.34858  -0.34835  -0.31560  -0.31400
 Alpha  occ. eigenvalues --   -0.30729  -0.30030  -0.29389  -0.27443  -0.24951
 Alpha  occ. eigenvalues --   -0.20370  -0.18907  -0.18326
 Alpha virt. eigenvalues --   -0.05014   0.00063   0.00531   0.04518   0.05331
 Alpha virt. eigenvalues --    0.05879   0.07827   0.08987   0.10817   0.11419
 Alpha virt. eigenvalues --    0.11755   0.12060   0.12928   0.13437   0.13849

 Mulliken atomic charges:
              1
     1  Li  -0.344655
     2  C   -0.024603
     3  C   -0.139513
     4  C   -0.104636
     5  C   -0.177504
     6  C    0.443548
     7  C   -0.237762
     8  O   -0.571058
     9  Si   0.913502
    10  C   -0.098429
    11  C   -0.459430
    12  C   -0.461503
    13  C   -0.459455
    14  C   -0.696443
    15  C   -0.696587
    16  H    0.189539
    17  H    0.162247
    18  H    0.174934
    19  H    0.175921
    20  H    0.143386
    21  H    0.162603
    22  H    0.146910
    23  H    0.145772
    24  H    0.151249
    25  H    0.145744
    26  H    0.162622
    27  H    0.143339
    28  H    0.146899
    29  H    0.183650
    30  H    0.181026
    31  H    0.166972
    32  H    0.183633
    33  H    0.166990
    34  H    0.181091
 Sum of Mulliken atomic charges =   0.00000

 Dipole moment (field-independent basis, Debye):
    X=              9.8956    Y=            -10.3805    Z=             -0.0198  Tot=             14.3415
 Quadrupole moment (field-independent basis, Debye-Ang):
   XX=           -152.3328   YY=           -126.8375   ZZ=           -101.7087
   XY=             52.2870   XZ=              0.1328   YZ=             -0.0727

 Summary of Natural Population Analysis:

                                       Natural Population
                Natural  -----------------------------------------------
    Atom  No    Charge         Core      Valence    Rydberg      Total
 -----------------------------------------------------------------------
     Li    1   -0.11280      1.99868     1.11044    0.00368     3.11280
      C    2   -0.39970      1.99932     4.37697    0.02340     6.39970
      C    3   -0.06760      1.99912     4.05342    0.01507     6.06760
      C    4   -0.22676      1.99912     4.21316    0.01448     6.22676
      C    5   -0.25469      1.99902     4.24352    0.01215     6.25469
      C    6    0.44281      1.99871     3.53775    0.02073     5.55719
      C    7   -0.27897      1.99907     4.26390    0.01600     6.27897
      O    8   -0.78878      1.99976     6.77661    0.01242     8.78878
     Si    9    2.07288      9.99755     1.88459    0.04499    11.92712
      C   10   -0.54600      1.99916     4.52962    0.01722     6.54600
      C   11   -0.67839      1.99941     4.66700    0.01197     6.67839
      C   12   -0.67817      1.99941     4.66698    0.01178     6.67817
      C   13   -0.67839      1.99941     4.66701    0.01197     6.67839
      C   14   -1.23616      1.99944     5.22652    0.01020     7.23616
      C   15   -1.23597      1.99944     5.22632    0.01021     7.23597
      H   16    0.24082      0.00000     0.75847    0.00071     0.75918
      H   17    0.24849      0.00000     0.75048    0.00104     0.75151
      H   18    0.24466      0.00000     0.75446    0.00088     0.75534
      H   19    0.25035      0.00000     0.74835    0.00129     0.74965
      H   20    0.22849      0.00000     0.77043    0.00108     0.77151
      H   21    0.23957      0.00000     0.75914    0.00129     0.76043
      H   22    0.23587      0.00000     0.76270    0.00143     0.76413
      H   23    0.23005      0.00000     0.76884    0.00111     0.76995
      H   24    0.23895      0.00000     0.75961    0.00144     0.76105
      H   25    0.23003      0.00000     0.76886    0.00111     0.76997
      H   26    0.23960      0.00000     0.75911    0.00129     0.76040
      H   27    0.22846      0.00000     0.77046    0.00108     0.77154
      H   28    0.23585      0.00000     0.76271    0.00143     0.76415
      H   29    0.26446      0.00000     0.73490    0.00064     0.73554
      H   30    0.26652      0.00000     0.73309    0.00039     0.73348
      H   31    0.25274      0.00000     0.74652    0.00074     0.74726
      H   32    0.26445      0.00000     0.73491    0.00064     0.73555
      H   33    0.25264      0.00000     0.74662    0.00073     0.74736
      H   34    0.26655      0.00000     0.73306    0.00039     0.73345
 =======================================================================
   * Total *   -0.00813     37.98662    77.76653    0.25499   116.00813

 Normal termination of Gaussian 09 at Sun Oct  3 07:54:40 2021.
