 Gaussian 09, Revision A.02,

 -----------------------------------
 #p opt b3lyp/6-31G* scf=(xqc,tight)
 -----------------------------------

 ------------------------------
 CCN(C(=O)Oc1ccccc1OC)CC_conf_0
 ------------------------------
 Symbolic Z-matrix:
 Charge =  0 Multiplicity = 1

 SCF Done:  E(RB3LYP) =  -747.922810034     A.U. after   15 cycles
 SCF Done:  E(RB3LYP) =  -747.930452254     A.U. after   14 cycles
 SCF Done:  E(RB3LYP) =  -747.937152756     A.U. after   16 cycles
 SCF Done:  E(RB3LYP) =  -747.939835999     A.U. after   16 cycles
 SCF Done:  E(RB3LYP) =  -747.941481116     A.U. after   16 cycles
 SCF Done:  E(RB3LYP) =  -747.943672514     A.U. after   12 cycles
 SCF Done:  E(RB3LYP) =  -747.945076067     A.U. after   12 cycles
 SCF Done:  E(RB3LYP) =  -747.945864947     A.U. after   14 cycles
 SCF Done:  E(RB3LYP) =  -747.946152572     A.U. after   12 cycles
 SCF Done:  E(RB3LYP) =  -747.946269988     A.U. after   12 cycles
 SCF Done:  E(RB3LYP) =  -747.946336935     A.U. after   11 cycles
 SCF Done:  E(RB3LYP) =  -747.946343976     A.U. after   11 cycles
 SCF Done:  E(RB3LYP) =  -747.946345091     A.U. after    8 cycles
 SCF Done:  E(RB3LYP) =  -747.946345394     A.U. after    7 cycles
 SCF Done:  E(RB3LYP) =  -747.946345702     A.U. after    7 cycles
 SCF Done:  E(RB3LYP) =  -747.946345695     A.U. after    6 cycles
 SCF Done:  E(RB3LYP) =  -747.946345705     A.U. after    6 cycles
 SCF Done:  E(RB3LYP) =  -747.946345690     A.U. after    6 cycles
 Optimization completed.
    -- Stationary point found.
 Normal termination of Gaussian 09 at Wed Sep 29 22:51:12 2021.

 ----------------------------------------------------------------------
 #p freq b3lyp/6-31G* volume NMR pop=NPA density=current Geom=AllCheck
 Guess=Read
 ----------------------------------------------------------------------

 CCN(C(=O)Oc1ccccc1OC)CC_conf_0
 ------------------------------
 Redundant internal coordinates taken from checkpoint file:
 C12H17NO3_285a_conf_0.chk
 Charge =  0 Multiplicity = 1

 SCF Done:  E(RB3LYP) =  -747.946345690     A.U. after    1 cycles

  1  C    Isotropic =   175.2277   Anisotropy =    21.4017

  2  C    Isotropic =   146.8256   Anisotropy =    40.8421

  3  N    Isotropic =   159.5290   Anisotropy =    71.2260

  4  C    Isotropic =    46.3384   Anisotropy =    74.8857

  5  O    Isotropic =    58.1385   Anisotropy =   370.1622

  6  O    Isotropic =   154.4136   Anisotropy =   151.6473

  7  C    Isotropic =    54.0780   Anisotropy =    97.5649

  8  C    Isotropic =    71.5794   Anisotropy =   142.9760

  9  C    Isotropic =    76.2259   Anisotropy =   152.2408

 10  C    Isotropic =    70.6833   Anisotropy =   160.5212

 11  C    Isotropic =    85.2404   Anisotropy =   141.9822

 12  C    Isotropic =    44.9436   Anisotropy =   121.1824

 13  O    Isotropic =   246.0567   Anisotropy =    95.8820

 14  C    Isotropic =   137.0683   Anisotropy =    67.2318

 15  C    Isotropic =   146.5261   Anisotropy =    43.7559

 16  C    Isotropic =   175.0529   Anisotropy =    22.4567

 17  H    Isotropic =    31.4628   Anisotropy =    10.3730

 18  H    Isotropic =    30.4340   Anisotropy =     7.9392

 19  H    Isotropic =    31.0278   Anisotropy =     6.9517

 20  H    Isotropic =    28.3888   Anisotropy =     5.3635

 21  H    Isotropic =    29.3997   Anisotropy =     6.7420

 22  H    Isotropic =    25.3281   Anisotropy =     7.1480

 23  H    Isotropic =    25.4198   Anisotropy =     3.8837

 24  H    Isotropic =    25.1871   Anisotropy =     4.1797

 25  H    Isotropic =    25.7535   Anisotropy =     7.4277

 26  H    Isotropic =    28.2638   Anisotropy =     8.1250

 27  H    Isotropic =    28.5907   Anisotropy =     9.1515

 28  H    Isotropic =    28.6220   Anisotropy =     8.8911

 29  H    Isotropic =    29.5615   Anisotropy =     6.3927

 30  H    Isotropic =    28.3064   Anisotropy =     5.4240

 31  H    Isotropic =    31.1085   Anisotropy =     7.1434

 32  H    Isotropic =    31.4353   Anisotropy =    10.7097

 33  H    Isotropic =    30.7948   Anisotropy =     6.8405

  Exact polarizability: 176.744  10.859 140.524   5.023 -11.107 103.414
 Approx polarizability: 237.987  18.789 208.674  17.001 -22.271 159.671

                     1                      2                      3
                     A                      A                      A
 Frequencies --    23.5496                30.6505                42.2607
 Red. masses --     3.4063                 3.5035                 3.5811
 Frc consts  --     0.0011                 0.0019                 0.0038
 IR Inten    --     0.4449                 0.4396                 1.3222

                     4                      5                      6
                     A                      A                      A
 Frequencies --    71.5910                84.1314                87.1311
 Red. masses --     3.2889                 3.6080                 3.3165
 Frc consts  --     0.0099                 0.0150                 0.0148
 IR Inten    --     1.7744                 4.3600                 1.5014

                     7                      8                      9
                     A                      A                      A
 Frequencies --    99.0490               114.7570               179.9184
 Red. masses --     4.3460                 4.3905                 2.8330
 Frc consts  --     0.0251                 0.0341                 0.0540
 IR Inten    --     1.2008                 0.2625                 0.0987

                    10                     11                     12
                     A                      A                      A
 Frequencies --   216.0238               236.9312               240.2148
 Red. masses --     2.2868                 1.0945                 1.9671
 Frc consts  --     0.0629                 0.0362                 0.0669
 IR Inten    --     0.2369                 0.6608                 0.5721

                    13                     14                     15
                     A                      A                      A
 Frequencies --   256.9413               271.5765               318.5604
 Red. masses --     1.3996                 1.8488                 3.1614
 Frc consts  --     0.0544                 0.0803                 0.1890
 IR Inten    --     0.1879                 0.4914                 0.4126

                    16                     17                     18
                     A                      A                      A
 Frequencies --   330.7555               345.6987               372.6000
 Red. masses --     2.8560                 4.5952                 3.1626
 Frc consts  --     0.1841                 0.3236                 0.2587
 IR Inten    --     1.4974                 3.0814                16.9946

                    19                     20                     21
                     A                      A                      A
 Frequencies --   438.6494               476.4032               501.1262
 Red. masses --     2.8189                 3.5354                 3.4972
 Frc consts  --     0.3196                 0.4728                 0.5174
 IR Inten    --     3.9097                 2.1699                 4.3650

                    22                     23                     24
                     A                      A                      A
 Frequencies --   538.2761               558.5402               571.8139
 Red. masses --     5.5796                 4.3770                 4.4590
 Frc consts  --     0.9525                 0.8045                 0.8590
 IR Inten    --     3.4452                 0.3927                 3.6325

                    25                     26                     27
                     A                      A                      A
 Frequencies --   613.3106               638.4317               720.5932
 Red. masses --     4.9335                 4.6123                 4.4085
 Frc consts  --     1.0934                 1.1076                 1.3487
 IR Inten    --     3.4201                 0.3341                 0.3172

                    28                     29                     30
                     A                      A                      A
 Frequencies --   745.0086               759.9079               781.5911
 Red. masses --     9.1841                 1.3246                 2.7417
 Frc consts  --     3.0034                 0.4507                 0.9868
 IR Inten    --    17.6717                51.4827                22.6009

                    31                     32                     33
                     A                      A                      A
 Frequencies --   792.8564               796.7797               830.4319
 Red. masses --     1.6405                 1.2104                 2.0293
 Frc consts  --     0.6076                 0.4527                 0.8245
 IR Inten    --     1.2939                 9.7873                 5.0083

                    34                     35                     36
                     A                      A                      A
 Frequencies --   852.7314               867.2688               930.1985
 Red. masses --     2.7764                 2.5152                 1.4113
 Frc consts  --     1.1895                 1.1146                 0.7195
 IR Inten    --     3.0950                 2.0405                 2.6620

                    37                     38                     39
                     A                      A                      A
 Frequencies --   952.3472               963.9829               968.1762
 Red. masses --     2.2963                 1.2608                 2.5783
 Frc consts  --     1.2271                 0.6903                 1.4239
 IR Inten    --    10.1482                 1.8151                40.3542

                    40                     41                     42
                     A                      A                      A
 Frequencies --  1058.5399              1066.3746              1080.7645
 Red. masses --     3.1144                 3.3085                 2.9226
 Frc consts  --     2.0561                 2.2167                 2.0113
 IR Inten    --    11.0865                19.2496                37.8208

                    43                     44                     45
                     A                      A                      A
 Frequencies --  1103.6754              1118.2231              1127.9007
 Red. masses --     1.9085                 1.7906                 1.7081
 Frc consts  --     1.3697                 1.3192                 1.2803
 IR Inten    --    17.3382                12.6977                22.6816

                    46                     47                     48
                     A                      A                      A
 Frequencies --  1143.8205              1184.9813              1186.3994
 Red. masses --     1.7214                 1.2778                 2.3549
 Frc consts  --     1.3270                 1.0572                 1.9529
 IR Inten    --    50.5779                 3.9506               270.3358

                    49                     50                     51
                     A                      A                      A
 Frequencies --  1193.9010              1213.5135              1239.1282
 Red. masses --     1.1314                 1.7099                 2.3894
 Frc consts  --     0.9502                 1.4835                 2.1616
 IR Inten    --     5.9188                79.2833               212.7630

                    52                     53                     54
                     A                      A                      A
 Frequencies --  1263.4399              1302.5533              1309.2541
 Red. masses --     2.6730                 2.0685                 1.9132
 Frc consts  --     2.5139                 2.0678                 1.9322
 IR Inten    --    20.6522               237.9001                44.8243

                    55                     56                     57
                     A                      A                      A
 Frequencies --  1320.0572              1357.6591              1366.4690
 Red. masses --     1.8619                 1.3311                 6.5359
 Frc consts  --     1.9116                 1.4456                 7.1904
 IR Inten    --   158.9438                19.9988                35.8833

                    58                     59                     60
                     A                      A                      A
 Frequencies --  1398.4301              1420.3850              1436.8886
 Red. masses --     1.2835                 1.2832                 1.2948
 Frc consts  --     1.4789                 1.5254                 1.5751
 IR Inten    --    21.7903                10.1322                12.8275

                    61                     62                     63
                     A                      A                      A
 Frequencies --  1439.0678              1459.8709              1491.2556
 Red. masses --     1.2550                 2.0970                 1.4217
 Frc consts  --     1.5313                 2.6331                 1.8628
 IR Inten    --    21.3376               230.3888                27.3439

                    64                     65                     66
                     A                      A                      A
 Frequencies --  1506.0156              1510.1755              1520.3454
 Red. masses --     1.0724                 1.7785                 1.0484
 Frc consts  --     1.4331                 2.3898                 1.4278
 IR Inten    --     6.6842                 5.3878                 5.4290

                    67                     68                     69
                     A                      A                      A
 Frequencies --  1520.9260              1522.6702              1529.2053
 Red. masses --     1.0442                 1.0577                 1.0991
 Frc consts  --     1.4231                 1.4448                 1.5144
 IR Inten    --     3.5563                 1.4261                36.7585

                    70                     71                     72
                     A                      A                      A
 Frequencies --  1533.3600              1533.6635              1539.4880
 Red. masses --     1.0818                 1.0664                 1.1024
 Frc consts  --     1.4986                 1.4778                 1.5393
 IR Inten    --    48.7737                 7.8228                28.0401

                    73                     74                     75
                     A                      A                      A
 Frequencies --  1557.7479              1646.1336              1664.7749
 Red. masses --     2.5747                 6.5209                 6.3611
 Frc consts  --     3.6810                10.4108                10.3871
 IR Inten    --    94.4226                 1.8175                25.9385

                    76                     77                     78
                     A                      A                      A
 Frequencies --  1821.4922              3029.1082              3050.9441
 Red. masses --    11.4466                 1.0348                 1.0360
 Frc consts  --    22.3758                 5.5939                 5.6819
 IR Inten    --   376.8542                54.6467                18.0595

                    79                     80                     81
                     A                      A                      A
 Frequencies --  3051.0968              3060.3043              3072.7141
 Red. masses --     1.0363                 1.0677                 1.0681
 Frc consts  --     5.6840                 5.8914                 5.9417
 IR Inten    --    25.1277                29.0337                39.3597

                    82                     83                     84
                     A                      A                      A
 Frequencies --  3090.3468              3111.5420              3112.1476
 Red. masses --     1.1064                 1.1019                 1.1021
 Frc consts  --     6.2253                 6.2858                 6.2893
 IR Inten    --    36.5862                10.2351                31.7916

                    85                     86                     87
                     A                      A                      A
 Frequencies --  3131.4181              3134.8749              3144.1543
 Red. masses --     1.0978                 1.0967                 1.1024
 Frc consts  --     6.3425                 6.3503                 6.4211
 IR Inten    --    21.9860                18.6941                18.6979

                    88                     89                     90
                     A                      A                      A
 Frequencies --  3146.9406              3160.5285              3190.8816
 Red. masses --     1.1032                 1.1002                 1.0861
 Frc consts  --     6.4369                 6.4752                 6.5155
 IR Inten    --    34.4393                21.3450                 2.8995

                    91                     92                     93
                     A                      A                      A
 Frequencies --  3205.8920              3218.9401              3227.0901
 Red. masses --     1.0906                 1.0947                 1.0928
 Frc consts  --     6.6043                 6.6832                 6.7055
 IR Inten    --    19.8293                16.6747                 8.4976

 - Thermochemistry -
 -------------------
 Temperature   298.150 Kelvin.  Pressure   1.00000 Atm.
 Atom     1 has atomic number  6 and mass  12.00000

 Molecular mass:   223.12084 amu.
 Principal axes and moments of inertia in atomic units:
                           1         2         3
     Eigenvalues --  2023.282225510.857216221.80394
           X            0.99996  -0.00680   0.00522
           Y            0.00681   0.99997  -0.00240
           Z           -0.00520   0.00243   0.99998
 This molecule is an asymmetric top.
 Rotational symmetry number  1.
 Warning -- assumption of classical behavior for rotation
           may cause significant error
 Rotational temperatures (Kelvin)      0.04281     0.01572     0.01392
 Rotational constants (GHZ):           0.89199     0.32749     0.29007
 Zero-point vibrational energy     732403.1 (Joules/Mol)
                                  175.04855 (Kcal/Mol)
 Warning -- explicit consideration of  25 degrees of freedom as
           vibrations may cause significant error
 Vibrational temperatures:     33.88    44.10    60.80   103.00   121.05
          (Kelvin)            125.36   142.51   165.11   258.86   310.81
                              340.89   345.62   369.68   390.74   458.34
                              475.88   497.38   536.09   631.12   685.44
                              721.01   774.46   803.61   822.71   882.42
                              918.56  1036.77  1071.90  1093.34  1124.53
                             1140.74  1146.39  1194.80  1226.89  1247.80
                             1338.35  1370.21  1386.95  1392.99  1523.00
                             1534.27  1554.98  1587.94  1608.87  1622.80
                             1645.70  1704.92  1706.96  1717.76  1745.97
                             1782.83  1817.81  1874.08  1883.72  1899.27
                             1953.37  1966.04  2012.03  2043.61  2067.36
                             2070.49  2100.43  2145.58  2166.82  2172.80
                             2187.44  2188.27  2190.78  2200.18  2206.16
                             2206.60  2214.98  2241.25  2368.42  2395.24
                             2620.72  4358.21  4389.62  4389.84  4403.09
                             4420.94  4446.31  4476.81  4477.68  4505.41
                             4510.38  4523.73  4527.74  4547.29  4590.96
                             4612.56  4631.33  4643.06

 Zero-point correction=                           0.278958 (Hartree/Particle)
 Thermal correction to Energy=                    0.295625
 Thermal correction to Enthalpy=                  0.296570
 Thermal correction to Gibbs Free Energy=         0.232754
 Sum of electronic and zero-point Energies=           -747.667388
 Sum of electronic and thermal Energies=              -747.650720
 Sum of electronic and thermal Enthalpies=            -747.649776
 Sum of electronic and thermal Free Energies=         -747.713591

                     E (Thermal)             CV                S
                      KCal/Mol        Cal/Mol-Kelvin    Cal/Mol-Kelvin
 Total                  185.508             60.902            134.311
 Electronic               0.000              0.000              0.000
 Translational            0.889              2.981             42.110
 Rotational               0.889              2.981             32.606
 Vibrational            183.730             54.940             59.594
 Vibration     1          0.593              1.985              6.310
 Vibration     2          0.594              1.984              5.787
 Vibration     3          0.595              1.980              5.150
 Vibration     4          0.598              1.968              4.109
 Vibration     5          0.601              1.960              3.792
 Vibration     6          0.601              1.958              3.723
 Vibration     7          0.604              1.950              3.473
 Vibration     8          0.608              1.937              3.187
 Vibration     9          0.629              1.867              2.329
 Vibration    10          0.645              1.817              1.992
 Vibration    11          0.656              1.784              1.826
 Vibration    12          0.657              1.779              1.801
 Vibration    13          0.667              1.751              1.682
 Vibration    14          0.675              1.726              1.586
 Vibration    15          0.705              1.638              1.317
 Vibration    16          0.713              1.614              1.256
 Vibration    17          0.724              1.584              1.186
 Vibration    18          0.744              1.528              1.069
 Vibration    19          0.799              1.386              0.831
 Vibration    20          0.833              1.302              0.720
 Vibration    21          0.857              1.248              0.655
 Vibration    22          0.893              1.165              0.569
 Vibration    23          0.914              1.121              0.527
 Vibration    24          0.928              1.092              0.501
 Vibration    25          0.973              1.004              0.427

 Optimization completed.
    -- Stationary point found.
 Normal termination of Gaussian 09 at Thu Sep 30 00:09:32 2021.
 Gaussian 09:  AM64L-G09RevA.02 11-Jun-2009

 ----------------------------------------------------------------------
 #p TD(NStates=10, Root=1) b3lyp/6-31G* volume pop=NPA density=current
 Geom=AllCheck Guess=Read
 ----------------------------------------------------------------------

 CCN(C(=O)Oc1ccccc1OC)CC_conf_0
 ------------------------------
 Redundant internal coordinates taken from checkpoint file:
 C12H17NO3_285a_conf_0.chk
 Charge =  0 Multiplicity = 1

                         Standard orientation:
 ---------------------------------------------------------------------
 Center     Atomic      Atomic             Coordinates (Angstroms)
 Number     Number       Type             X           Y           Z
 ---------------------------------------------------------------------
      1          6           0        2.254596    1.861537    1.620476
      2          6           0        2.549901    0.368975    1.444427
      3          7           0        2.258080   -0.116709    0.091712
      4          6           0        1.010614   -0.481816   -0.315133
      5          8           0        0.697086   -0.820924   -1.439104
      6          8           0        0.122754   -0.444790    0.748597
      7          6           0       -1.223537   -0.594347    0.444892
      8          6           0       -1.873635   -1.775690    0.763926
      9          6           0       -3.248110   -1.901881    0.538729
     10          6           0       -3.951377   -0.834757   -0.012235
     11          6           0       -3.299770    0.360961   -0.333982
     12          6           0       -1.927736    0.493763   -0.103493
     13          8           0       -1.190932    1.612042   -0.355809
     14          6           0       -1.835890    2.706033   -0.989214
     15          6           0        3.323726   -0.105982   -0.914262
     16          6           0        4.089543   -1.429302   -0.986225
     17          1           0        2.490279    2.181414    2.642475
     18          1           0        1.196328    2.060451    1.427151
     19          1           0        2.851561    2.467617    0.929086
     20          1           0        1.972096   -0.217150    2.161597
     21          1           0        3.608309    0.161149    1.638427
     22          1           0       -1.291502   -2.588226    1.187433
     23          1           0       -3.756038   -2.828534    0.788062
     24          1           0       -5.018727   -0.920584   -0.196413
     25          1           0       -3.866041    1.181668   -0.759494
     26          1           0       -1.065506    3.466346   -1.128547
     27          1           0       -2.640982    3.115694   -0.364825
     28          1           0       -2.245015    2.418220   -1.965975
     29          1           0        4.002555    0.719047   -0.668652
     30          1           0        2.868163    0.115202   -1.881930
     31          1           0        4.543847   -1.682404   -0.021185
     32          1           0        4.889916   -1.368341   -1.733055
     33          1           0        3.412965   -2.240209   -1.273052
 ---------------------------------------------------------------------

 SCF Done:  E(RB3LYP) =  -747.946345690     A.U. after    1 cycles

 Excitation energies and oscillator strengths:

 Excited State   1:      Singlet-A      5.1806 eV  239.33 nm  f=0.0435  <S**2>=0.000
      58 -> 62        -0.31609
      60 -> 61         0.60530
      60 -> 62         0.11941
 This state for optimization and/or second-order correction.
 Total Energy, E(TD-HF/TD-KS) =  -747.755963176
 Copying the excited state density for this state as the 1-particle RhoCI density.

 Excited State   2:      Singlet-A      5.7739 eV  214.73 nm  f=0.0176  <S**2>=0.000
      59 -> 61         0.65221
      60 -> 61        -0.10592
      60 -> 62         0.23300

 Excited State   3:      Singlet-A      5.8933 eV  210.38 nm  f=0.0643  <S**2>=0.000
      58 -> 61         0.35682
      59 -> 61        -0.25050
      60 -> 61        -0.13620
      60 -> 62         0.53168

 Excited State   4:      Singlet-A      6.1189 eV  202.62 nm  f=0.0026  <S**2>=0.000
      58 -> 62        -0.10435
      59 -> 62         0.69436

 Excited State   5:      Singlet-A      6.3502 eV  195.24 nm  f=0.0448  <S**2>=0.000
      57 -> 61         0.63984
      57 -> 63        -0.12140
      58 -> 61         0.18138
      60 -> 62        -0.16552

 Excited State   6:      Singlet-A      6.6619 eV  186.11 nm  f=0.0958  <S**2>=0.000
      57 -> 62        -0.34155
      58 -> 61        -0.11406
      58 -> 62        -0.33633
      60 -> 61        -0.12830
      60 -> 63         0.46112

 Excited State   7:      Singlet-A      6.7030 eV  184.97 nm  f=0.0195  <S**2>=0.000
      57 -> 62         0.46447
      57 -> 63        -0.12402
      58 -> 61         0.12572
      58 -> 62         0.15103
      58 -> 63        -0.10012
      60 -> 63         0.44426

 Excited State   8:      Singlet-A      6.8698 eV  180.48 nm  f=0.5461  <S**2>=0.000
      56 -> 61        -0.32646
      57 -> 61        -0.19014
      57 -> 63         0.12443
      58 -> 61         0.38294
      58 -> 62        -0.23709
      60 -> 61        -0.14594
      60 -> 62        -0.26194
      60 -> 63        -0.13145

 Excited State   9:      Singlet-A      6.9178 eV  179.23 nm  f=0.1224  <S**2>=0.000
      55 -> 61        -0.13476
      56 -> 61         0.12124
      57 -> 61         0.11334
      57 -> 62         0.33431
      57 -> 63         0.38337
      58 -> 61        -0.18231
      58 -> 62        -0.29193
      58 -> 63         0.16256
      60 -> 61        -0.16730

 Excited State  10:      Singlet-A      6.9846 eV  177.51 nm  f=0.1071  <S**2>=0.000
      55 -> 61         0.11832
      57 -> 62        -0.21557
      57 -> 63         0.46520
      58 -> 61         0.16252
      58 -> 62         0.24342
      58 -> 63         0.13296
      59 -> 63         0.11701
      60 -> 61         0.12954
      60 -> 63         0.23753

 The electronic state is 1-A.
 Alpha  occ. eigenvalues --  -19.18238 -19.18059 -19.10525 -14.35520 -10.31951
 Alpha  occ. eigenvalues --  -10.24705 -10.24184 -10.23932 -10.21995 -10.21607
 Alpha  occ. eigenvalues --  -10.18809 -10.18754 -10.18678 -10.18270 -10.17538
 Alpha  occ. eigenvalues --  -10.17481  -1.09626  -1.06409  -1.00221  -0.93211
 Alpha  occ. eigenvalues --   -0.84648  -0.76789  -0.75684  -0.74940  -0.73112
 Alpha  occ. eigenvalues --   -0.69700  -0.65281  -0.63736  -0.60613  -0.59759
 Alpha  occ. eigenvalues --   -0.55905  -0.52411  -0.51828  -0.49239  -0.48404
 Alpha  occ. eigenvalues --   -0.47201  -0.46667  -0.45533  -0.44176  -0.43800
 Alpha  occ. eigenvalues --   -0.43114  -0.42759  -0.41668  -0.40349  -0.38982
 Alpha  occ. eigenvalues --   -0.38953  -0.37715  -0.37274  -0.36712  -0.36172
 Alpha  occ. eigenvalues --   -0.35795  -0.34988  -0.34259  -0.33056  -0.31804
 Alpha  occ. eigenvalues --   -0.29369  -0.26202  -0.24257  -0.23225  -0.21518
 Alpha virt. eigenvalues --    0.00441   0.01503   0.06291   0.08283   0.08979
 Alpha virt. eigenvalues --    0.10143   0.12231   0.12740   0.14209   0.14681
 Alpha virt. eigenvalues --    0.14949   0.15506   0.15819   0.15999   0.16538

 Mulliken atomic charges:
              1
     1  C   -0.446317
     2  C   -0.139400
     3  N   -0.440200
     4  C    0.794147
     5  O   -0.518217
     6  O   -0.562100
     7  C    0.310923
     8  C   -0.190545
     9  C   -0.125965
    10  C   -0.148893
    11  C   -0.218120
    12  C    0.356275
    13  O   -0.456124
    14  C   -0.226518
    15  C   -0.143122
    16  C   -0.440672
    17  H    0.142874
    18  H    0.171737
    19  H    0.144023
    20  H    0.176030
    21  H    0.144807
    22  H    0.126815
    23  H    0.135381
    24  H    0.123362
    25  H    0.125113
    26  H    0.178540
    27  H    0.169795
    28  H    0.177843
    29  H    0.139325
    30  H    0.180134
    31  H    0.143266
    32  H    0.143542
    33  H    0.172261
 Sum of Mulliken atomic charges =  -0.00000

 Dipole moment (field-independent basis, Debye):
    X=              0.6678    Y=              3.0743    Z=              0.8424  Tot=              3.2568
 Quadrupole moment (field-independent basis, Debye-Ang):
   XX=            -81.3494   YY=            -86.1037   ZZ=            -97.5977
   XY=             -2.9150   XZ=              3.7090   YZ=             -6.2193

 Summary of Natural Population Analysis:

                                       Natural Population
                Natural  -----------------------------------------------
    Atom  No    Charge         Core      Valence    Rydberg      Total
 -----------------------------------------------------------------------
      C    1   -0.68888      1.99945     4.68201    0.00742     6.68888
      C    2   -0.25789      1.99935     4.24329    0.01525     6.25789
      N    3   -0.50505      1.99929     5.49214    0.01362     7.50505
      C    4    0.94041      1.99936     3.01337    0.04686     5.05959
      O    5   -0.64416      1.99977     6.62531    0.01908     8.64416
      O    6   -0.55571      1.99970     6.54514    0.01086     8.55571
      C    7    0.25091      1.99870     3.72376    0.02663     5.74909
      C    8   -0.32523      1.99904     4.30623    0.01996     6.32523
      C    9   -0.16915      1.99912     4.15398    0.01604     6.16915
      C   10   -0.26697      1.99915     4.24881    0.01901     6.26697
      C   11   -0.34205      1.99907     4.32548    0.01749     6.34205
      C   12    0.30419      1.99872     3.67408    0.02301     5.69581
      O   13   -0.43587      1.99974     6.42409    0.01204     8.43587
      C   14   -0.32225      1.99942     4.30865    0.01418     6.32225
      C   15   -0.25356      1.99935     4.23887    0.01534     6.25356
      C   16   -0.68692      1.99945     4.68006    0.00742     6.68692
      H   17    0.23213      0.00000     0.76691    0.00096     0.76787
      H   18    0.24201      0.00000     0.75629    0.00169     0.75799
      H   19    0.22422      0.00000     0.77482    0.00096     0.77578
      H   20    0.25307      0.00000     0.74540    0.00153     0.74693
      H   21    0.22914      0.00000     0.76939    0.00147     0.77086
      H   22    0.23948      0.00000     0.75946    0.00106     0.76052
      H   23    0.23260      0.00000     0.76657    0.00083     0.76740
      H   24    0.23042      0.00000     0.76873    0.00084     0.76958
      H   25    0.22833      0.00000     0.77071    0.00097     0.77167
      H   26    0.23210      0.00000     0.76737    0.00053     0.76790
      H   27    0.21538      0.00000     0.78268    0.00194     0.78462
      H   28    0.22061      0.00000     0.77741    0.00198     0.77939
      H   29    0.22371      0.00000     0.77485    0.00144     0.77629
      H   30    0.25656      0.00000     0.74135    0.00209     0.74344
      H   31    0.22372      0.00000     0.77530    0.00098     0.77628
      H   32    0.23245      0.00000     0.76663    0.00092     0.76755
      H   33    0.24225      0.00000     0.75650    0.00125     0.75775
 =======================================================================
   * Total *   -0.00000     31.98868    87.70566    0.30566   120.00000

 Normal termination of Gaussian 09 at Thu Sep 30 05:36:33 2021.
