 Gaussian 09, Revision A.02,

 -----------------------------------
 #p opt b3lyp/6-31G* scf=(xqc,tight)
 -----------------------------------

 --------------------------------------
 CCN(C(=O)Oc1ccc(cc1)C(F)(F)F)CC_conf_0
 --------------------------------------
 Symbolic Z-matrix:
 Charge =  0 Multiplicity = 1

 SCF Done:  E(RB3LYP) =  -970.457536778     A.U. after   15 cycles
 SCF Done:  E(RB3LYP) =  -970.462552437     A.U. after   12 cycles
 SCF Done:  E(RB3LYP) =  -970.462846627     A.U. after   12 cycles
 SCF Done:  E(RB3LYP) =  -970.463294536     A.U. after   12 cycles
 SCF Done:  E(RB3LYP) =  -970.463584058     A.U. after   12 cycles
 SCF Done:  E(RB3LYP) =  -970.463616891     A.U. after   12 cycles
 SCF Done:  E(RB3LYP) =  -970.463655944     A.U. after   10 cycles
 SCF Done:  E(RB3LYP) =  -970.463684954     A.U. after   11 cycles
 SCF Done:  E(RB3LYP) =  -970.463712651     A.U. after   11 cycles
 SCF Done:  E(RB3LYP) =  -970.463751992     A.U. after   11 cycles
 SCF Done:  E(RB3LYP) =  -970.463874304     A.U. after   11 cycles
 SCF Done:  E(RB3LYP) =  -970.463878034     A.U. after   11 cycles
 SCF Done:  E(RB3LYP) =  -970.463872885     A.U. after   11 cycles
 SCF Done:  E(RB3LYP) =  -970.463881986     A.U. after   10 cycles
 SCF Done:  E(RB3LYP) =  -970.463894008     A.U. after   10 cycles
 SCF Done:  E(RB3LYP) =  -970.463901938     A.U. after   11 cycles
 SCF Done:  E(RB3LYP) =  -970.463902036     A.U. after    7 cycles
 SCF Done:  E(RB3LYP) =  -970.463902108     A.U. after    7 cycles
 Optimization completed.
    -- Stationary point found.
 Normal termination of Gaussian 09 at Thu Sep 30 22:22:58 2021.

 ----------------------------------------------------------------------
 #p freq b3lyp/6-31G* volume NMR pop=NPA density=current Geom=AllCheck
 Guess=Read
 ----------------------------------------------------------------------

 CCN(C(=O)Oc1ccc(cc1)C(F)(F)F)CC_conf_0
 --------------------------------------
 Redundant internal coordinates taken from checkpoint file:
 C12H14F3NO2_3045_conf_0.chk
 Charge =  0 Multiplicity = 1

 SCF Done:  E(RB3LYP) =  -970.463902108     A.U. after    1 cycles

  1  C    Isotropic =   173.2772   Anisotropy =    23.1485

  2  C    Isotropic =   141.2458   Anisotropy =    50.0562

  3  N    Isotropic =   156.5084   Anisotropy =    65.1000

  4  C    Isotropic =    47.3080   Anisotropy =    80.9380

  5  O    Isotropic =    59.7004   Anisotropy =   389.4040

  6  O    Isotropic =   139.7680   Anisotropy =   123.6496

  7  C    Isotropic =    42.3457   Anisotropy =   115.6385

  8  C    Isotropic =    73.1327   Anisotropy =   156.5590

  9  C    Isotropic =    68.6489   Anisotropy =   165.8553

 10  C    Isotropic =    67.6179   Anisotropy =   145.5061

 11  C    Isotropic =    69.0009   Anisotropy =   166.0501

 12  C    Isotropic =    76.2447   Anisotropy =   139.6942

 13  C    Isotropic =    62.8423   Anisotropy =    11.8121

 14  F    Isotropic =   271.8960   Anisotropy =   122.2615

 15  F    Isotropic =   247.9100   Anisotropy =   129.5166

 16  F    Isotropic =   274.3639   Anisotropy =   122.6220

 17  C    Isotropic =   142.3145   Anisotropy =    47.9183

 18  C    Isotropic =   172.0106   Anisotropy =    24.4879

 19  H    Isotropic =    31.2999   Anisotropy =    10.4512

 20  H    Isotropic =    30.3231   Anisotropy =     6.1809

 21  H    Isotropic =    31.0073   Anisotropy =     6.2624

 22  H    Isotropic =    28.1688   Anisotropy =     6.4421

 23  H    Isotropic =    29.6143   Anisotropy =     6.5899

 24  H    Isotropic =    24.5656   Anisotropy =     9.5166

 25  H    Isotropic =    24.7072   Anisotropy =     8.1866

 26  H    Isotropic =    24.7417   Anisotropy =     7.8777

 27  H    Isotropic =    25.3961   Anisotropy =     7.0606

 28  H    Isotropic =    28.1544   Anisotropy =     5.9882

 29  H    Isotropic =    29.4540   Anisotropy =     6.5795

 30  H    Isotropic =    30.6488   Anisotropy =     5.1599

 31  H    Isotropic =    31.2627   Anisotropy =    10.1954

 32  H    Isotropic =    30.8664   Anisotropy =     6.7181

  Exact polarizability: 195.344   0.150 127.973   0.674 -13.838  92.924
 Approx polarizability: 249.855   6.639 208.371   0.032 -30.744 142.173

                     1                      2                      3
                     A                      A                      A
 Frequencies --    20.5263                26.5302                31.1721
 Red. masses --     9.1374                 4.7312                 4.3907
 Frc consts  --     0.0023                 0.0020                 0.0025
 IR Inten    --     0.2507                 0.2579                 0.1101

                     4                      5                      6
                     A                      A                      A
 Frequencies --    42.8444                66.0939                83.1286
 Red. masses --     2.9663                 4.0262                 2.8914
 Frc consts  --     0.0032                 0.0104                 0.0118
 IR Inten    --     0.1196                 0.4089                 0.7085

                     7                      8                      9
                     A                      A                      A
 Frequencies --   108.7512               120.1565               136.7629
 Red. masses --     7.7238                 4.7208                 4.6397
 Frc consts  --     0.0538                 0.0402                 0.0511
 IR Inten    --     2.4492                 1.0215                 0.2596

                    10                     11                     12
                     A                      A                      A
 Frequencies --   179.9273               202.4626               227.0566
 Red. masses --     3.4723                 3.7573                 1.5693
 Frc consts  --     0.0662                 0.0907                 0.0477
 IR Inten    --     1.1481                 0.3681                 1.3929

                    13                     14                     15
                     A                      A                      A
 Frequencies --   235.8415               255.3740               302.1247
 Red. masses --     1.4552                 2.6991                 2.8542
 Frc consts  --     0.0477                 0.1037                 0.1535
 IR Inten    --     0.2401                 1.1170                 5.2497

                    16                     17                     18
                     A                      A                      A
 Frequencies --   352.9771               377.7557               407.1602
 Red. masses --     5.5751                 7.5326                 2.7553
 Frc consts  --     0.4093                 0.6333                 0.2691
 IR Inten    --     1.9428                15.8788                 4.2088

                    19                     20                     21
                     A                      A                      A
 Frequencies --   412.2114               419.9959               427.6321
 Red. masses --     7.1285                 4.2119                 4.1086
 Frc consts  --     0.7137                 0.4377                 0.4427
 IR Inten    --     1.9085                 1.3580                 0.1575

                    22                     23                     24
                     A                      A                      A
 Frequencies --   446.5068               505.3552               509.1565
 Red. masses --     3.6976                 3.1938                 5.0454
 Frc consts  --     0.4343                 0.4806                 0.7706
 IR Inten    --     3.5725                 5.5130                 1.1506

                    25                     26                     27
                     A                      A                      A
 Frequencies --   574.5902               593.4175               619.7963
 Red. masses --    11.9591                 4.1209                 4.2098
 Frc consts  --     2.3263                 0.8550                 0.9528
 IR Inten    --     0.0680                 8.8665                 1.7607

                    28                     29                     30
                     A                      A                      A
 Frequencies --   650.2502               657.1387               735.1150
 Red. masses --     6.8583                 5.9302                 5.1039
 Frc consts  --     1.7086                 1.5088                 1.6250
 IR Inten    --     0.9256                22.0371                 8.2276

                    31                     32                     33
                     A                      A                      A
 Frequencies --   746.7130               759.5104               784.3844
 Red. masses --    10.8304                 7.4112                 1.5751
 Frc consts  --     3.5580                 2.5189                 0.5710
 IR Inten    --    25.7701                 0.6971                12.5779

                    34                     35                     36
                     A                      A                      A
 Frequencies --   788.3759               822.1168               839.2173
 Red. masses --     1.1693                 2.1186                 1.2597
 Frc consts  --     0.4282                 0.8436                 0.5227
 IR Inten    --     3.3124                 8.4442                 0.6639

                    37                     38                     39
                     A                      A                      A
 Frequencies --   848.6396               871.0502               948.0436
 Red. masses --     4.1041                 2.1210                 2.2295
 Frc consts  --     1.7415                 0.9482                 1.1806
 IR Inten    --     2.3289                41.3565                 6.4747

                    40                     41                     42
                     A                      A                      A
 Frequencies --   962.3675               965.5280               976.8559
 Red. masses --     1.2988                 1.3368                 2.7564
 Frc consts  --     0.7087                 0.7343                 1.5497
 IR Inten    --     3.4619                 1.7458                72.4870

                    43                     44                     45
                     A                      A                      A
 Frequencies --  1035.0608              1062.4327              1091.2803
 Red. masses --     3.3915                 3.3117                 3.5449
 Frc consts  --     2.1408                 2.2025                 2.4873
 IR Inten    --    43.2190                48.2614               125.2848

                    46                     47                     48
                     A                      A                      A
 Frequencies --  1104.4067              1121.2027              1123.3689
 Red. masses --     1.9586                 1.8038                 1.6534
 Frc consts  --     1.4075                 1.3360                 1.2293
 IR Inten    --     3.1557                28.5854                39.8235

                    49                     50                     51
                     A                      A                      A
 Frequencies --  1137.6617              1181.5847              1187.9720
 Red. masses --     1.4576                10.6048                 2.3385
 Frc consts  --     1.1115                 8.7234                 1.9444
 IR Inten    --    42.6530               261.5937               167.7169

                    52                     53                     54
                     A                      A                      A
 Frequencies --  1204.5210              1211.1073              1254.1764
 Red. masses --     1.3661                 4.0696                 3.3252
 Frc consts  --     1.1678                 3.5170                 3.0816
 IR Inten    --   141.5365               130.1039               425.4552

                    55                     56                     57
                     A                      A                      A
 Frequencies --  1267.2611              1315.8643              1339.9008
 Red. masses --     3.1419                 1.6340                 1.4071
 Frc consts  --     2.9729                 1.6670                 1.4884
 IR Inten    --   207.2929               270.0005                37.1392

                    58                     59                     60
                     A                      A                      A
 Frequencies --  1345.4954              1362.8963              1365.2034
 Red. masses --     3.8332                 4.4007                 1.6625
 Frc consts  --     4.0886                 4.8162                 1.8256
 IR Inten    --   307.4953                24.5052                 9.4404

                    61                     62                     63
                     A                      A                      A
 Frequencies --  1401.8676              1419.6298              1434.7970
 Red. masses --     1.2431                 1.3306                 1.2631
 Frc consts  --     1.4393                 1.5799                 1.5320
 IR Inten    --    10.5338                36.3654                15.1807

                    64                     65                     66
                     A                      A                      A
 Frequencies --  1438.5874              1458.1296              1460.3635
 Red. masses --     1.3129                 1.8359                 3.1318
 Frc consts  --     1.6009                 2.2998                 3.9352
 IR Inten    --    53.9507               173.4355                18.8221

                    67                     68                     69
                     A                      A                      A
 Frequencies --  1504.7599              1517.3202              1522.6275
 Red. masses --     1.0676                 1.0473                 1.1111
 Frc consts  --     1.4243                 1.4207                 1.5177
 IR Inten    --     5.5406                 0.5127                39.2753

                    70                     71                     72
                     A                      A                      A
 Frequencies --  1525.9482              1532.1671              1540.1908
 Red. masses --     1.0477                 1.0596                 1.0808
 Frc consts  --     1.4374                 1.4656                 1.5107
 IR Inten    --    10.3959                10.5447                15.5067

                    73                     74                     75
                     A                      A                      A
 Frequencies --  1564.1631              1644.2260              1672.2853
 Red. masses --     2.6523                 7.2252                 5.8318
 Frc consts  --     3.8232                11.5087                 9.6088
 IR Inten    --    20.5245                 7.9652                57.0413

                    76                     77                     78
                     A                      A                      A
 Frequencies --  1812.8296              3056.2555              3058.6572
 Red. masses --    11.3944                 1.0360                 1.0362
 Frc consts  --    22.0626                 5.7015                 5.7118
 IR Inten    --   378.5075                 8.8980                31.6553

                    79                     80                     81
                     A                      A                      A
 Frequencies --  3071.4470              3079.7445              3115.6906
 Red. masses --     1.0647                 1.0636                 1.1030
 Frc consts  --     5.9181                 5.9439                 6.3086
 IR Inten    --     2.2152                57.0910                17.3506

                    82                     83                     84
                     A                      A                      A
 Frequencies --  3121.5663              3129.2544              3130.9904
 Red. masses --     1.1025                 1.0993                 1.0993
 Frc consts  --     6.3296                 6.3422                 6.3493
 IR Inten    --     8.7039                39.2039                17.7782

                    85                     86                     87
                     A                      A                      A
 Frequencies --  3145.5778              3149.9202              3214.9399
 Red. masses --     1.1040                 1.1047                 1.0883
 Frc consts  --     6.4358                 6.4579                 6.6276
 IR Inten    --    14.9665                48.9456                 4.4762

                    88                     89                     90
                     A                      A                      A
 Frequencies --  3221.0931              3229.4760              3263.1707
 Red. masses --     1.0902                 1.0948                 1.0931
 Frc consts  --     6.6644                 6.7276                 6.8579
 IR Inten    --     2.9180                 3.8565                 0.7187

 - Thermochemistry -
 -------------------
 Temperature   298.150 Kelvin.  Pressure   1.00000 Atm.
 Atom     1 has atomic number  6 and mass  12.00000

 Molecular mass:   261.09766 amu.
 Principal axes and moments of inertia in atomic units:
                           1         2         3
     Eigenvalues --  1559.13962********************
           X            0.99998  -0.00088   0.00694
           Y            0.00098   0.99990  -0.01386
           Z           -0.00693   0.01387   0.99988
 This molecule is an asymmetric top.
 Rotational symmetry number  1.
 Warning -- assumption of classical behavior for rotation
           may cause significant error
 Rotational temperatures (Kelvin)      0.05555     0.00733     0.00697
 Rotational constants (GHZ):           1.15752     0.15271     0.14517
 Zero-point vibrational energy     659080.7 (Joules/Mol)
                                  157.52406 (Kcal/Mol)
 Warning -- explicit consideration of  27 degrees of freedom as
           vibrations may cause significant error
 Vibrational temperatures:     29.53    38.17    44.85    61.64    95.09
          (Kelvin)            119.60   156.47   172.88   196.77   258.87
                              291.30   326.68   339.32   367.43   434.69
                              507.85   543.51   585.81   593.08   604.28
                              615.27   642.42   727.09   732.56   826.71
                              853.79   891.75   935.56   945.47  1057.67
                             1074.35  1092.76  1128.55  1134.30  1182.84
                             1207.44  1221.00  1253.25  1364.02  1384.63
                             1389.18  1405.48  1489.22  1528.60  1570.11
                             1588.99  1613.16  1616.28  1636.84  1700.03
                             1709.22  1733.03  1742.51  1804.48  1823.30
                             1893.23  1927.82  1935.87  1960.90  1964.22
                             2016.97  2042.53  2064.35  2069.80  2097.92
                             2101.13  2165.01  2183.08  2190.72  2195.50
                             2204.44  2215.99  2250.48  2365.67  2406.04
                             2608.25  4397.26  4400.72  4419.12  4431.06
                             4482.78  4491.23  4502.29  4504.79  4525.78
                             4532.03  4625.58  4634.43  4646.49  4694.97

 Zero-point correction=                           0.251031 (Hartree/Particle)
 Thermal correction to Energy=                    0.268696
 Thermal correction to Enthalpy=                  0.269640
 Thermal correction to Gibbs Free Energy=         0.202261
 Sum of electronic and zero-point Energies=           -970.212872
 Sum of electronic and thermal Energies=              -970.195206
 Sum of electronic and thermal Enthalpies=            -970.194262
 Sum of electronic and thermal Free Energies=         -970.261641

                     E (Thermal)             CV                S
                      KCal/Mol        Cal/Mol-Kelvin    Cal/Mol-Kelvin
 Total                  168.609             64.461            141.811
 Electronic               0.000              0.000              0.000
 Translational            0.889              2.981             42.579
 Rotational               0.889              2.981             33.793
 Vibrational            166.832             58.500             65.440
 Vibration     1          0.593              1.986              6.583
 Vibration     2          0.593              1.984              6.073
 Vibration     3          0.594              1.983              5.753
 Vibration     4          0.595              1.980              5.123
 Vibration     5          0.597              1.970              4.266
 Vibration     6          0.600              1.961              3.816
 Vibration     7          0.606              1.942              3.291
 Vibration     8          0.609              1.932              3.098
 Vibration     9          0.614              1.917              2.849
 Vibration    10          0.629              1.867              2.329
 Vibration    11          0.639              1.836              2.111
 Vibration    12          0.651              1.800              1.902
 Vibration    13          0.655              1.786              1.834
 Vibration    14          0.666              1.754              1.693
 Vibration    15          0.694              1.670              1.405
 Vibration    16          0.729              1.569              1.153
 Vibration    17          0.748              1.518              1.048
 Vibration    18          0.772              1.455              0.937
 Vibration    19          0.776              1.444              0.919
 Vibration    20          0.783              1.427              0.892
 Vibration    21          0.789              1.410              0.866
 Vibration    22          0.806              1.369              0.806
 Vibration    23          0.861              1.238              0.645
 Vibration    24          0.864              1.230              0.636
 Vibration    25          0.931              1.086              0.495
 Vibration    26          0.951              1.046              0.461
 Vibration    27          0.980              0.990              0.417

 Normal termination of Gaussian 09 at Thu Sep 30 23:41:15 2021.
 Gaussian 09:  AM64L-G09RevA.02 11-Jun-2009

 ----------------------------------------------------------------------
 #p TD(NStates=10, Root=1) b3lyp/6-31G* volume pop=NPA density=current
 Geom=AllCheck Guess=Read
 ----------------------------------------------------------------------

 CCN(C(=O)Oc1ccc(cc1)C(F)(F)F)CC_conf_0
 --------------------------------------
 Redundant internal coordinates taken from checkpoint file:
 C12H14F3NO2_3045_conf_0.chk
 Charge =  0 Multiplicity = 1

                         Standard orientation:
 ---------------------------------------------------------------------
 Center     Atomic      Atomic             Coordinates (Angstroms)
 Number     Number       Type             X           Y           Z
 ---------------------------------------------------------------------
      1          6           0        4.975013   -1.660115    0.577565
      2          6           0        4.589695   -0.843658   -0.659234
      3          7           0        3.501660    0.118433   -0.431264
      4          6           0        2.236041   -0.380639   -0.455441
      5          8           0        1.936335   -1.539201   -0.673746
      6          8           0        1.313341    0.624569   -0.209649
      7          6           0       -0.042016    0.337939   -0.161800
      8          6           0       -0.567747   -0.767798    0.510778
      9          6           0       -1.950012   -0.923107    0.574710
     10          6           0       -2.800855    0.014368   -0.017689
     11          6           0       -2.262386    1.118687   -0.682621
     12          6           0       -0.881976    1.279197   -0.758050
     13          6           0       -4.290138   -0.134401    0.115152
     14          9           0       -4.665981   -1.432526    0.158480
     15          9           0       -4.754817    0.442265    1.250432
     16          9           0       -4.950044    0.445901   -0.912918
     17          6           0        3.805476    1.522044   -0.121701
     18          6           0        3.866299    1.841702    1.375323
     19          1           0        5.774733   -2.365967    0.324784
     20          1           0        4.114637   -2.234261    0.933114
     21          1           0        5.332069   -1.020695    1.391891
     22          1           0        4.271251   -1.519374   -1.457301
     23          1           0        5.448948   -0.273885   -1.027772
     24          1           0        0.091578   -1.500369    0.956126
     25          1           0       -2.368653   -1.784123    1.085283
     26          1           0       -2.919316    1.845048   -1.149118
     27          1           0       -0.443355    2.126361   -1.275069
     28          1           0        3.054757    2.151499   -0.604443
     29          1           0        4.767260    1.747067   -0.594562
     30          1           0        2.905097    1.631087    1.853780
     31          1           0        4.094561    2.903878    1.522345
     32          1           0        4.640634    1.255691    1.881053
 ---------------------------------------------------------------------

 SCF Done:  E(RB3LYP) =  -970.463902108     A.U. after    1 cycles

 Excitation energies and oscillator strengths:

 Excited State   1:      Singlet-A      5.2932 eV  234.23 nm  f=0.0005  <S**2>=0.000
      66 -> 69         0.45227
      67 -> 70        -0.27297
      68 -> 70         0.46066
 This state for optimization and/or second-order correction.
 Total Energy, E(TD-HF/TD-KS) =  -970.269381250
 Copying the excited state density for this state as the 1-particle RhoCI density.

 Excited State   2:      Singlet-A      5.5469 eV  223.52 nm  f=0.1512  <S**2>=0.000
      67 -> 69         0.23908
      68 -> 69         0.65439

 Excited State   3:      Singlet-A      5.8326 eV  212.57 nm  f=0.0044  <S**2>=0.000
      66 -> 69        -0.14289
      67 -> 69         0.13458
      67 -> 70         0.51268
      68 -> 70         0.43982

 Excited State   4:      Singlet-A      5.8636 eV  211.45 nm  f=0.1016  <S**2>=0.000
      66 -> 70         0.27192
      67 -> 69         0.59981
      67 -> 70        -0.11821
      68 -> 69        -0.17745

 Excited State   5:      Singlet-A      6.0649 eV  204.43 nm  f=0.0145  <S**2>=0.000
      65 -> 69         0.61704
      65 -> 71        -0.14510
      66 -> 69        -0.24538
      67 -> 70        -0.14558

 Excited State   6:      Singlet-A      6.4202 eV  193.12 nm  f=0.1721  <S**2>=0.000
      65 -> 70         0.58953
      66 -> 70        -0.33679
      67 -> 69         0.12992

 Excited State   7:      Singlet-A      6.8159 eV  181.91 nm  f=0.2370  <S**2>=0.000
      64 -> 70         0.21635
      65 -> 69         0.26249
      66 -> 69         0.39683
      66 -> 70         0.15833
      67 -> 70         0.31673
      68 -> 70        -0.25103
      68 -> 71        -0.11466

 Excited State   8:      Singlet-A      6.8686 eV  180.51 nm  f=0.4944  <S**2>=0.000
      64 -> 69        -0.18804
      65 -> 70         0.32864
      66 -> 69        -0.13345
      66 -> 70         0.40179
      67 -> 70        -0.10546
      68 -> 71        -0.33997

 Excited State   9:      Singlet-A      6.9510 eV  178.37 nm  f=0.0295  <S**2>=0.000
      65 -> 69         0.14038
      65 -> 71         0.52869
      66 -> 71        -0.35636
      67 -> 71        -0.13790
      68 -> 71        -0.14775

 Excited State  10:      Singlet-A      7.1756 eV  172.79 nm  f=0.0210  <S**2>=0.000
      64 -> 69        -0.36512
      66 -> 70         0.19308
      67 -> 71        -0.21482
      68 -> 71         0.48402

 The electronic state is 1-A.
 Alpha  occ. eigenvalues --  -24.71925 -24.71859 -24.71243 -19.20603 -19.12574
 Alpha  occ. eigenvalues --  -14.37316 -10.42693 -10.33985 -10.26573 -10.23427
 Alpha  occ. eigenvalues --  -10.22907 -10.21214 -10.20930 -10.20809 -10.20392
 Alpha  occ. eigenvalues --  -10.20173 -10.18893 -10.18383  -1.29400  -1.20911
 Alpha  occ. eigenvalues --   -1.20354  -1.11515  -1.02446  -0.94779  -0.87274
 Alpha  occ. eigenvalues --   -0.78973  -0.77765  -0.76382  -0.75109  -0.70091
 Alpha  occ. eigenvalues --   -0.66375  -0.64690  -0.63455  -0.62016  -0.57688
 Alpha  occ. eigenvalues --   -0.57226  -0.56991  -0.56353  -0.53600  -0.49837
 Alpha  occ. eigenvalues --   -0.48670  -0.47476  -0.46335  -0.46003  -0.45093
 Alpha  occ. eigenvalues --   -0.44832  -0.44629  -0.44162  -0.43950  -0.43266
 Alpha  occ. eigenvalues --   -0.42036  -0.41360  -0.40905  -0.40414  -0.39218
 Alpha  occ. eigenvalues --   -0.39084  -0.38737  -0.37708  -0.37252  -0.36776
 Alpha  occ. eigenvalues --   -0.36449  -0.35964  -0.34958  -0.32506  -0.28184
 Alpha  occ. eigenvalues --   -0.26356  -0.25577  -0.24504
 Alpha virt. eigenvalues --   -0.02241  -0.01426   0.04210   0.07963   0.08927
 Alpha virt. eigenvalues --    0.10185   0.11274   0.12353   0.13145   0.13407
 Alpha virt. eigenvalues --    0.14761   0.14792   0.15205   0.15929   0.16190

 Mulliken atomic charges:
              1
     1  C   -0.449540
     2  C   -0.139822
     3  N   -0.439434
     4  C    0.795062
     5  O   -0.501721
     6  O   -0.535168
     7  C    0.349848
     8  C   -0.150482
     9  C   -0.190672
    10  C    0.005835
    11  C   -0.183258
    12  C   -0.181303
    13  C    0.777708
    14  F   -0.270556
    15  F   -0.262904
    16  F   -0.271994
    17  C   -0.137736
    18  C   -0.447160
    19  H    0.152845
    20  H    0.178783
    21  H    0.149906
    22  H    0.184838
    23  H    0.146751
    24  H    0.162638
    25  H    0.154652
    26  H    0.153580
    27  H    0.141985
    28  H    0.178144
    29  H    0.151614
    30  H    0.169123
    31  H    0.152966
    32  H    0.155472
 Sum of Mulliken atomic charges =  -0.00000

 Dipole moment (field-independent basis, Debye):
    X=              5.9310    Y=              2.1413    Z=              0.3140  Tot=              6.3135
 Quadrupole moment (field-independent basis, Debye-Ang):
   XX=            -96.9857   YY=           -101.3915   ZZ=           -103.0599
   XY=              3.0483   XZ=              1.0136   YZ=             -4.3492

 Summary of Natural Population Analysis:

                                       Natural Population
                Natural  -----------------------------------------------
    Atom  No    Charge         Core      Valence    Rydberg      Total
 -----------------------------------------------------------------------
      C    1   -0.68801      1.99945     4.68115    0.00742     6.68801
      C    2   -0.25484      1.99935     4.23995    0.01554     6.25484
      N    3   -0.47750      1.99930     5.46498    0.01322     7.47750
      C    4    0.93549      1.99936     3.01989    0.04526     5.06451
      O    5   -0.62940      1.99978     6.61036    0.01927     8.62940
      O    6   -0.52179      1.99969     6.51154    0.01056     8.52179
      C    7    0.30248      1.99876     3.67561    0.02316     5.69752
      C    8   -0.26280      1.99905     4.24619    0.01756     6.26280
      C    9   -0.22487      1.99909     4.20694    0.01884     6.22487
      C   10   -0.13915      1.99888     4.12316    0.01711     6.13915
      C   11   -0.22505      1.99909     4.20727    0.01869     6.22505
      C   12   -0.26380      1.99905     4.24587    0.01887     6.26380
      C   13    1.11019      1.99906     2.82058    0.07017     4.88981
      F   14   -0.36406      1.99993     7.35792    0.00621     9.36406
      F   15   -0.36356      1.99993     7.35747    0.00617     9.36356
      F   16   -0.36499      1.99993     7.35890    0.00617     9.36499
      C   17   -0.25927      1.99934     4.24476    0.01516     6.25927
      C   18   -0.68717      1.99944     4.68029    0.00744     6.68717
      H   19    0.23860      0.00000     0.76056    0.00084     0.76140
      H   20    0.24580      0.00000     0.75291    0.00128     0.75420
      H   21    0.22446      0.00000     0.77456    0.00098     0.77554
      H   22    0.25717      0.00000     0.74084    0.00199     0.74283
      H   23    0.23052      0.00000     0.76820    0.00128     0.76948
      H   24    0.25519      0.00000     0.74359    0.00122     0.74481
      H   25    0.24562      0.00000     0.75300    0.00139     0.75438
      H   26    0.24568      0.00000     0.75293    0.00139     0.75432
      H   27    0.24137      0.00000     0.75746    0.00116     0.75863
      H   28    0.25299      0.00000     0.74544    0.00158     0.74701
      H   29    0.23409      0.00000     0.76447    0.00144     0.76591
      H   30    0.24018      0.00000     0.75860    0.00123     0.75982
      H   31    0.23841      0.00000     0.76069    0.00089     0.76159
      H   32    0.22802      0.00000     0.77101    0.00097     0.77198
 =======================================================================
   * Total *   -0.00000     35.98849    99.65708    0.35443   136.00000

 Normal termination of Gaussian 09 at Fri Oct  1 04:24:05 2021.
