 Gaussian 09, Revision A.02,

 -----------------------------------
 #p opt b3lyp/6-31G* scf=(xqc,tight)
 -----------------------------------

 ------------------------------------------
 COc1nc(Oc2ccc(cc2)C(F)(F)F)nc(n1)OC_conf_0
 ------------------------------------------
 Symbolic Z-matrix:
 Charge =  0 Multiplicity = 1

 SCF Done:  E(RB3LYP) =  -1152.74704522     A.U. after   14 cycles
 SCF Done:  E(RB3LYP) =  -1152.75669479     A.U. after   14 cycles
 SCF Done:  E(RB3LYP) =  -1152.76130419     A.U. after   14 cycles
 SCF Done:  E(RB3LYP) =  -1152.76233413     A.U. after   12 cycles
 SCF Done:  E(RB3LYP) =  -1152.76263090     A.U. after   11 cycles
 SCF Done:  E(RB3LYP) =  -1152.76277179     A.U. after   11 cycles
 SCF Done:  E(RB3LYP) =  -1152.76287070     A.U. after   11 cycles
 SCF Done:  E(RB3LYP) =  -1152.76294145     A.U. after   11 cycles
 SCF Done:  E(RB3LYP) =  -1152.76299811     A.U. after   11 cycles
 SCF Done:  E(RB3LYP) =  -1152.76301979     A.U. after   11 cycles
 SCF Done:  E(RB3LYP) =  -1152.76309146     A.U. after   10 cycles
 SCF Done:  E(RB3LYP) =  -1152.76309914     A.U. after   10 cycles
 SCF Done:  E(RB3LYP) =  -1152.76311331     A.U. after   12 cycles
 SCF Done:  E(RB3LYP) =  -1152.76311571     A.U. after    9 cycles
 SCF Done:  E(RB3LYP) =  -1152.76311837     A.U. after   10 cycles
 SCF Done:  E(RB3LYP) =  -1152.76311909     A.U. after    8 cycles
 SCF Done:  E(RB3LYP) =  -1152.76311900     A.U. after    7 cycles
 SCF Done:  E(RB3LYP) =  -1152.76311905     A.U. after    6 cycles
 Optimization completed.
    -- Stationary point found.
 Normal termination of Gaussian 09 at Tue Sep 28 18:40:27 2021.

 ----------------------------------------------------------------------
 #p freq b3lyp/6-31G* volume NMR pop=NPA density=current Geom=AllCheck
 Guess=Read
 ----------------------------------------------------------------------

 COc1nc(Oc2ccc(cc2)C(F)(F)F)nc(n1)OC_conf_0
 ------------------------------------------
 Redundant internal coordinates taken from checkpoint file:
 C12H10F3N3O3_131d_conf_0.chk
 Charge =  0 Multiplicity = 1

 SCF Done:  E(RB3LYP) =  -1152.76311905     A.U. after    1 cycles

  1  C    Isotropic =   136.1369   Anisotropy =    65.0105

  2  O    Isotropic =   189.1038   Anisotropy =    92.3821

  3  C    Isotropic =    22.4691   Anisotropy =   100.9552

  4  N    Isotropic =    56.1849   Anisotropy =   281.3441

  5  C    Isotropic =    23.5081   Anisotropy =    92.2408

  6  O    Isotropic =   137.9640   Anisotropy =    99.1104

  7  C    Isotropic =    41.1865   Anisotropy =   115.7260

  8  C    Isotropic =    73.9428   Anisotropy =   146.5408

  9  C    Isotropic =    68.0546   Anisotropy =   167.9728

 10  C    Isotropic =    65.9923   Anisotropy =   148.5666

 11  C    Isotropic =    68.6829   Anisotropy =   166.5661

 12  C    Isotropic =    72.1404   Anisotropy =   151.3424

 13  C    Isotropic =    62.9994   Anisotropy =    12.2544

 14  F    Isotropic =   274.0488   Anisotropy =   121.8636

 15  F    Isotropic =   272.1002   Anisotropy =   122.7038

 16  F    Isotropic =   248.0493   Anisotropy =   128.2682

 17  N    Isotropic =    67.6441   Anisotropy =   279.6180

 18  C    Isotropic =    24.1006   Anisotropy =    99.4334

 19  N    Isotropic =    61.5587   Anisotropy =   285.2689

 20  O    Isotropic =   189.9135   Anisotropy =    90.6120

 21  C    Isotropic =   136.4786   Anisotropy =    64.1522

 22  H    Isotropic =    28.4830   Anisotropy =     7.7323

 23  H    Isotropic =    28.2887   Anisotropy =     7.9684

 24  H    Isotropic =    28.2941   Anisotropy =     7.9827

 25  H    Isotropic =    25.1495   Anisotropy =     6.4154

 26  H    Isotropic =    24.6193   Anisotropy =     7.6432

 27  H    Isotropic =    24.6826   Anisotropy =     7.8048

 28  H    Isotropic =    25.1662   Anisotropy =     7.4651

 29  H    Isotropic =    28.6706   Anisotropy =     7.3905

 30  H    Isotropic =    28.6674   Anisotropy =     6.8171

 31  H    Isotropic =    28.7335   Anisotropy =     6.3786

  Exact polarizability: 224.189 -14.971 126.358   6.588  10.184 109.270
 Approx polarizability: 290.333 -25.753 208.431  11.319  21.710 184.635

                     1                      2                      3
                     A                      A                      A
 Frequencies --    10.0315                16.9996                25.5753
 Red. masses --     7.9655                 6.3358                 5.3525
 Frc consts  --     0.0005                 0.0011                 0.0021
 IR Inten    --     0.2798                 0.2301                 0.0221

                     4                      5                      6
                     A                      A                      A
 Frequencies --    35.8716                99.0047               100.7676
 Red. masses --     6.8067                 4.5196                 4.6889
 Frc consts  --     0.0052                 0.0261                 0.0281
 IR Inten    --     0.1707                 5.1193                 2.0972

                     7                      8                      9
                     A                      A                      A
 Frequencies --   111.9427               144.4428               160.1662
 Red. masses --     3.2895                 1.2940                 1.2233
 Frc consts  --     0.0243                 0.0159                 0.0185
 IR Inten    --     0.3227                 0.0343                 0.0040

                    10                     11                     12
                     A                      A                      A
 Frequencies --   175.1552               184.5770               187.9564
 Red. masses --     4.9512                 6.3936                 3.7899
 Frc consts  --     0.0895                 0.1283                 0.0789
 IR Inten    --     0.2337                 0.6321                 4.9988

                    13                     14                     15
                     A                      A                      A
 Frequencies --   208.0700               225.3525               232.1345
 Red. masses --     5.6519                 7.0779                 6.7604
 Frc consts  --     0.1442                 0.2118                 0.2146
 IR Inten    --     1.2514                 1.3078                 0.4520

                    16                     17                     18
                     A                      A                      A
 Frequencies --   251.5641               295.9433               367.6603
 Red. masses --     5.4865                 4.5708                10.4584
 Frc consts  --     0.2046                 0.2359                 0.8329
 IR Inten    --     5.0052                 6.9090                 4.9814

                    19                     20                     21
                     A                      A                      A
 Frequencies --   382.5094               400.3798               422.4638
 Red. masses --     7.2619                 7.3668                 3.1213
 Frc consts  --     0.6260                 0.6958                 0.3282
 IR Inten    --     0.9952                 1.4534                 0.0643

                    22                     23                     24
                     A                      A                      A
 Frequencies --   435.4020               474.4606               503.4254
 Red. masses --     6.2887                 5.6011                 5.9042
 Frc consts  --     0.7024                 0.7429                 0.8816
 IR Inten    --     0.4564                19.0058                 7.1479

                    25                     26                     27
                     A                      A                      A
 Frequencies --   545.7779               574.7238               592.4734
 Red. masses --     8.8140                11.7019                 4.6833
 Frc consts  --     1.5469                 2.2773                 0.9686
 IR Inten    --     4.8181                 0.0349                 9.3000

                    28                     29                     30
                     A                      A                      A
 Frequencies --   601.9952               638.0916               647.1286
 Red. masses --     7.3425                 8.5539                 6.4340
 Frc consts  --     1.5678                 2.0520                 1.5875
 IR Inten    --     4.7196                 7.2161                 1.2984

                    31                     32                     33
                     A                      A                      A
 Frequencies --   673.8946               722.0332               735.1181
 Red. masses --     5.4742                 7.4137                11.5333
 Frc consts  --     1.4647                 2.2772                 3.6721
 IR Inten    --     4.4765                 1.7966                 0.7889

                    34                     35                     36
                     A                      A                      A
 Frequencies --   750.2120               752.4333               775.7232
 Red. masses --    11.9720                 5.6758                 7.1810
 Frc consts  --     3.9699                 1.8933                 2.5459
 IR Inten    --     0.0634                 0.5006                 4.5615

                    37                     38                     39
                     A                      A                      A
 Frequencies --   827.5083               841.2519               857.1451
 Red. masses --    10.9135                 1.2847                 2.8522
 Frc consts  --     4.4031                 0.5357                 1.2346
 IR Inten    --    40.0575                 1.0467                19.0711

                    40                     41                     42
                     A                      A                      A
 Frequencies --   878.6130               964.2739               967.7645
 Red. masses --     2.8259                 1.3126                 1.3184
 Frc consts  --     1.2853                 0.7191                 0.7275
 IR Inten    --    27.8429                 0.9915                 0.3708

                    43                     44                     45
                     A                      A                      A
 Frequencies --   979.2378               998.2853              1034.9631
 Red. masses --     7.6098                13.6533                 4.6595
 Frc consts  --     4.2993                 8.0167                 2.9406
 IR Inten    --    18.4278                 0.3506                15.6699

                    46                     47                     48
                     A                      A                      A
 Frequencies --  1038.3449              1089.0080              1130.1993
 Red. masses --     4.8677                 3.9438                 4.0307
 Frc consts  --     3.0921                 2.7556                 3.0334
 IR Inten    --    38.8334               151.7713                76.5168

                    49                     50                     51
                     A                      A                      A
 Frequencies --  1133.2422              1157.5659              1183.3922
 Red. masses --     1.5620                 3.4820                 7.1358
 Frc consts  --     1.1819                 2.7490                 5.8878
 IR Inten    --    55.5506               102.7519               219.0497

                    52                     53                     54
                     A                      A                      A
 Frequencies --  1183.9183              1184.9752              1203.2519
 Red. masses --     1.3282                 1.2658                 1.2163
 Frc consts  --     1.0969                 1.0472                 1.0375
 IR Inten    --    14.0904                 0.9298                68.3099

                    55                     56                     57
                     A                      A                      A
 Frequencies --  1212.4222              1220.3978              1238.5230
 Red. masses --     6.0555                 1.5693                 2.0069
 Frc consts  --     5.2446                 1.3771                 1.8138
 IR Inten    --   153.6152                34.2997                84.0064

                    58                     59                     60
                     A                      A                      A
 Frequencies --  1260.3144              1322.7480              1336.8792
 Red. masses --     4.9271                 8.9558                 1.3333
 Frc consts  --     4.6110                 9.2323                 1.4040
 IR Inten    --   472.7603                93.1153                10.1945

                    61                     62                     63
                     A                      A                      A
 Frequencies --  1342.7953              1360.8830              1405.5048
 Red. masses --     5.2035                10.4916                 5.2692
 Frc consts  --     5.5280                11.4481                 6.1328
 IR Inten    --   516.7259                 6.8448               898.9173

                    64                     65                     66
                     A                      A                      A
 Frequencies --  1420.9362              1457.4543              1469.5765
 Red. masses --     3.2635                 3.0817                 1.6920
 Frc consts  --     3.8823                 3.8569                 2.1530
 IR Inten    --   457.5103                15.0627                17.1617

                    67                     68                     69
                     A                      A                      A
 Frequencies --  1512.4319              1512.7431              1519.0480
 Red. masses --     1.0482                 1.0490                 1.1868
 Frc consts  --     1.4126                 1.4144                 1.6136
 IR Inten    --     6.7974                 7.9117               119.5281

                    70                     71                     72
                     A                      A                      A
 Frequencies --  1520.5336              1525.0205              1560.0698
 Red. masses --     1.0785                 1.4139                 2.7481
 Frc consts  --     1.4692                 1.9373                 3.9407
 IR Inten    --    19.6024                28.6387                83.0753

                    73                     74                     75
                     A                      A                      A
 Frequencies --  1566.9570              1601.2469              1631.3442
 Red. masses --     3.3830                 8.2094                 9.7900
 Frc consts  --     4.8940                12.4016                15.3505
 IR Inten    --    12.3069               594.4401               921.6500

                    76                     77                     78
                     A                      A                      A
 Frequencies --  1648.5967              1673.6778              3077.1794
 Red. masses --     7.4124                 6.0205                 1.0293
 Frc consts  --    11.8696                 9.9363                 5.7425
 IR Inten    --    46.5067                 3.9248                46.5345

                    79                     80                     81
                     A                      A                      A
 Frequencies --  3077.4682              3153.8883              3153.9805
 Red. masses --     1.0295                 1.1078                 1.1078
 Frc consts  --     5.7444                 6.4922                 6.4926
 IR Inten    --    19.1500                 6.3901                30.7281

                    82                     83                     84
                     A                      A                      A
 Frequencies --  3182.6486              3183.5433              3217.7745
 Red. masses --     1.1074                 1.1073                 1.0884
 Frc consts  --     6.6088                 6.6121                 6.6398
 IR Inten    --    22.7719                20.5066                 5.7434

                    85                     86                     87
                     A                      A                      A
 Frequencies --  3219.4552              3231.6415              3232.9142
 Red. masses --     1.0885                 1.0949                 1.0955
 Frc consts  --     6.6474                 6.7373                 6.7460
 IR Inten    --     0.3750                 5.0284                 0.5553

 - Thermochemistry -
 -------------------
 Temperature   298.150 Kelvin.  Pressure   1.00000 Atm.
 Atom     1 has atomic number  6 and mass  12.00000

 Molecular mass:   301.06743 amu.
 Principal axes and moments of inertia in atomic units:
                           1         2         3
     Eigenvalues --  2243.67075********************
           X            0.99999   0.00442   0.00100
           Y           -0.00443   0.99997   0.00686
           Z           -0.00097  -0.00687   0.99998
 This molecule is an asymmetric top.
 Rotational symmetry number  1.
 Warning -- assumption of classical behavior for rotation
           may cause significant error
 Rotational temperatures (Kelvin)      0.03860     0.00590     0.00541
 Rotational constants (GHZ):           0.80437     0.12294     0.11277
 Zero-point vibrational energy     581175.8 (Joules/Mol)
                                  138.90434 (Kcal/Mol)
 Warning -- explicit consideration of  28 degrees of freedom as
           vibrations may cause significant error
 Vibrational temperatures:     14.43    24.46    36.80    51.61   142.45
          (Kelvin)            144.98   161.06   207.82   230.44   252.01
                              265.56   270.43   299.37   324.23   333.99
                              361.94   425.80   528.98   550.35   576.06
                              607.83   626.45   682.64   724.32   785.25
                              826.90   852.44   866.14   918.07   931.07
                              969.58  1038.84  1057.67  1079.39  1082.58
                             1116.09  1190.60  1210.37  1233.24  1264.13
                             1387.37  1392.40  1408.90  1436.31  1489.08
                             1493.94  1566.84  1626.10  1630.48  1665.48
                             1702.64  1703.39  1704.91  1731.21  1744.40
                             1755.88  1781.96  1813.31  1903.14  1923.47
                             1931.98  1958.00  2022.21  2044.41  2096.95
                             2114.39  2176.05  2176.50  2185.57  2187.71
                             2194.16  2244.59  2254.50  2303.83  2347.14
                             2371.96  2408.05  4427.37  4427.78  4537.74
                             4537.87  4579.12  4580.40  4629.65  4632.07
                             4649.61  4651.44

 Zero-point correction=                           0.221358 (Hartree/Particle)
 Thermal correction to Energy=                    0.239871
 Thermal correction to Enthalpy=                  0.240815
 Thermal correction to Gibbs Free Energy=         0.170440
 Sum of electronic and zero-point Energies=          -1152.541761
 Sum of electronic and thermal Energies=             -1152.523248
 Sum of electronic and thermal Enthalpies=           -1152.522304
 Sum of electronic and thermal Free Energies=        -1152.592679

                     E (Thermal)             CV                S
                      KCal/Mol        Cal/Mol-Kelvin    Cal/Mol-Kelvin
 Total                  150.521             67.397            148.117
 Electronic               0.000              0.000              0.000
 Translational            0.889              2.981             43.003
 Rotational               0.889              2.981             34.621
 Vibrational            148.744             61.436             70.493
 Vibration     1          0.593              1.987              8.005
 Vibration     2          0.593              1.986              6.957
 Vibration     3          0.593              1.985              6.146
 Vibration     4          0.594              1.982              5.475
 Vibration     5          0.604              1.950              3.474
 Vibration     6          0.604              1.949              3.439
 Vibration     7          0.607              1.940              3.235
 Vibration     8          0.616              1.909              2.744
 Vibration     9          0.622              1.891              2.548
 Vibration    10          0.627              1.873              2.379
 Vibration    11          0.631              1.861              2.282
 Vibration    12          0.633              1.856              2.248
 Vibration    13          0.641              1.828              2.061
 Vibration    14          0.650              1.802              1.916
 Vibration    15          0.653              1.792              1.862
 Vibration    16          0.664              1.760              1.720
 Vibration    17          0.690              1.681              1.440
 Vibration    18          0.740              1.539              1.090
 Vibration    19          0.752              1.507              1.029
 Vibration    20          0.766              1.469              0.961
 Vibration    21          0.785              1.421              0.884
 Vibration    22          0.796              1.393              0.841
 Vibration    23          0.831              1.307              0.725
 Vibration    24          0.859              1.242              0.650
 Vibration    25          0.901              1.149              0.553
 Vibration    26          0.931              1.086              0.495
 Vibration    27          0.950              1.048              0.463
 Vibration    28          0.960              1.028              0.446

 Optimization completed.
    -- Stationary point found.
 Normal termination of Gaussian 09 at Tue Sep 28 20:42:12 2021.
 Gaussian 09:  AM64L-G09RevA.02 11-Jun-2009

 ----------------------------------------------------------------------
 #p TD(NStates=10, Root=1) b3lyp/6-31G* volume pop=NPA density=current
 Geom=AllCheck Guess=Read
 ----------------------------------------------------------------------

 COc1nc(Oc2ccc(cc2)C(F)(F)F)nc(n1)OC_conf_0
 ------------------------------------------
 Redundant internal coordinates taken from checkpoint file:
 C12H10F3N3O3_131d_conf_0.chk
 Charge =  0 Multiplicity = 1

                         Standard orientation:
 ---------------------------------------------------------------------
 Center     Atomic      Atomic             Coordinates (Angstroms)
 Number     Number       Type             X           Y           Z
 ---------------------------------------------------------------------
      1          6           0        6.313345   -0.394610    0.128490
      2          8           0        5.141098   -1.223590    0.142993
      3          6           0        3.958021   -0.619906    0.059474
      4          7           0        2.911780   -1.458920    0.080916
      5          6           0        1.748127   -0.833775   -0.002924
      6          8           0        0.679412   -1.660855   -0.001243
      7          6           0       -0.613173   -1.144607    0.012042
      8          6           0       -1.412148   -1.369172   -1.105309
      9          6           0       -2.743251   -0.956808   -1.085691
     10          6           0       -3.263370   -0.327694    0.047591
     11          6           0       -2.451459   -0.116638    1.166998
     12          6           0       -1.122553   -0.528792    1.154676
     13          6           0       -4.681105    0.173843    0.047876
     14          9           0       -5.475409   -0.554718   -0.767140
     15          9           0       -5.226027    0.140410    1.284623
     16          9           0       -4.757399    1.458307   -0.376912
     17          7           0        1.539456    0.483322   -0.100211
     18          6           0        2.669058    1.196640   -0.110271
     19          7           0        3.912021    0.710385   -0.033025
     20          8           0        2.598852    2.522751   -0.206900
     21          6           0        1.294186    3.115702   -0.301702
     22          1           0        7.149475   -1.090260    0.206119
     23          1           0        6.309208    0.298643    0.973445
     24          1           0        6.373086    0.177372   -0.800932
     25          1           0       -0.989536   -1.868968   -1.970476
     26          1           0       -3.378169   -1.131680   -1.947609
     27          1           0       -2.863605    0.357325    2.051617
     28          1           0       -0.485024   -0.383526    2.019897
     29          1           0        1.477845    4.187966   -0.375338
     30          1           0        0.698100    2.888181    0.585748
     31          1           0        0.766381    2.753901   -1.187674
 ---------------------------------------------------------------------

 SCF Done:  E(RB3LYP) =  -1152.76311905     A.U. after    1 cycles

 Excitation energies and oscillator strengths:

 Excited State   1:      Singlet-A      5.3197 eV  233.06 nm  f=0.0069  <S**2>=0.000
      75 -> 78        -0.11470
      76 -> 78         0.41286
      77 -> 78         0.16518
      77 -> 79         0.47810
      77 -> 80         0.15511
 This state for optimization and/or second-order correction.
 Total Energy, E(TD-HF/TD-KS) =  -1152.56762255
 Copying the excited state density for this state as the 1-particle RhoCI density.

 Excited State   2:      Singlet-A      5.5324 eV  224.10 nm  f=0.0619  <S**2>=0.000
      72 -> 78         0.16804
      72 -> 80        -0.10965
      74 -> 78        -0.24925
      74 -> 80         0.10583
      74 -> 81         0.26805
      77 -> 78         0.37624
      77 -> 80        -0.24891
      77 -> 81        -0.21017

 Excited State   3:      Singlet-A      5.6600 eV  219.05 nm  f=0.0821  <S**2>=0.000
      74 -> 78         0.29055
      74 -> 79         0.19782
      74 -> 80        -0.23719
      74 -> 81        -0.18169
      75 -> 78        -0.19185
      75 -> 81         0.11713
      77 -> 78         0.35714
      77 -> 79        -0.12496
      77 -> 81        -0.18505

 Excited State   4:      Singlet-A      5.6882 eV  217.97 nm  f=0.0077  <S**2>=0.000
      72 -> 79        -0.21526
      72 -> 80         0.21798
      74 -> 78        -0.18991
      74 -> 79        -0.21693
      74 -> 80         0.25983
      75 -> 78        -0.13125
      75 -> 81         0.10157
      76 -> 79        -0.15711
      76 -> 80         0.10802
      77 -> 78         0.11688
      77 -> 79        -0.17751
      77 -> 80         0.31013
      77 -> 81        -0.12788

 Excited State   5:      Singlet-A      5.7057 eV  217.30 nm  f=0.0127  <S**2>=0.000
      74 -> 78        -0.16982
      74 -> 79         0.29458
      74 -> 80        -0.25988
      74 -> 81         0.42907
      77 -> 78        -0.12479
      77 -> 79        -0.10747
      77 -> 80         0.24109

 Excited State   6:      Singlet-A      5.8339 eV  212.52 nm  f=0.0011  <S**2>=0.000
      72 -> 79        -0.12575
      72 -> 80         0.11263
      73 -> 79         0.28622
      73 -> 80        -0.28751
      73 -> 81         0.16474
      75 -> 78         0.32777
      75 -> 81        -0.23028
      76 -> 78         0.16360
      76 -> 81        -0.15286
      77 -> 78         0.12233

 Excited State   7:      Singlet-A      5.8702 eV  211.21 nm  f=0.0830  <S**2>=0.000
      72 -> 78        -0.22447
      72 -> 81         0.28083
      73 -> 78         0.29084
      73 -> 81        -0.15533
      76 -> 78        -0.16328
      76 -> 79        -0.11726
      76 -> 81         0.10033
      77 -> 78         0.27179
      77 -> 81         0.30170

 Excited State   8:      Singlet-A      6.0358 eV  205.41 nm  f=0.0033  <S**2>=0.000
      72 -> 78         0.33244
      72 -> 79         0.12117
      72 -> 80        -0.16223
      76 -> 78         0.10796
      76 -> 80        -0.14662
      77 -> 79        -0.22089
      77 -> 80         0.23580
      77 -> 81         0.40714

 Excited State   9:      Singlet-A      6.1355 eV  202.08 nm  f=0.0060  <S**2>=0.000
      72 -> 81         0.14939
      73 -> 78        -0.11009
      73 -> 79        -0.12717
      73 -> 81        -0.12751
      75 -> 78         0.47756
      75 -> 81         0.21347
      76 -> 78         0.12741
      76 -> 79        -0.21800
      76 -> 81         0.20313

 Excited State  10:      Singlet-A      6.1679 eV  201.01 nm  f=0.0149  <S**2>=0.000
      72 -> 78        -0.12532
      72 -> 79         0.15858
      72 -> 80        -0.15756
      72 -> 81         0.12714
      73 -> 78         0.33773
      74 -> 78         0.15494
      74 -> 79        -0.10691
      76 -> 78         0.17726
      76 -> 79         0.26182
      76 -> 80        -0.16632
      77 -> 79        -0.15611
      77 -> 80         0.13954
      77 -> 81        -0.23541

 The electronic state is 1-A.
 Alpha  occ. eigenvalues --  -24.72670 -24.72618 -24.72008 -19.21434 -19.20565
 Alpha  occ. eigenvalues --  -19.20079 -14.34598 -14.34047 -14.33760 -10.43482
 Alpha  occ. eigenvalues --  -10.33665 -10.33381 -10.32935 -10.27273 -10.24996
 Alpha  occ. eigenvalues --  -10.24508 -10.22227 -10.21833 -10.21811 -10.21396
 Alpha  occ. eigenvalues --  -10.21258  -1.30175  -1.21679  -1.21130  -1.12326
 Alpha  occ. eigenvalues --   -1.10816  -1.10053  -1.00456  -0.90934  -0.90398
 Alpha  occ. eigenvalues --   -0.88107  -0.79564  -0.77370  -0.74936  -0.73997
 Alpha  occ. eigenvalues --   -0.71076  -0.67026  -0.64487  -0.64117  -0.62019
 Alpha  occ. eigenvalues --   -0.59166  -0.58000  -0.57994  -0.57325  -0.57246
 Alpha  occ. eigenvalues --   -0.53256  -0.51390  -0.51136  -0.49345  -0.48188
 Alpha  occ. eigenvalues --   -0.47390  -0.46290  -0.45641  -0.45510  -0.45102
 Alpha  occ. eigenvalues --   -0.44810  -0.44502  -0.44029  -0.42317  -0.41642
 Alpha  occ. eigenvalues --   -0.41562  -0.40248  -0.39811  -0.39627  -0.37984
 Alpha  occ. eigenvalues --   -0.37817  -0.37179  -0.37066  -0.36363  -0.36039
 Alpha  occ. eigenvalues --   -0.31539  -0.29113  -0.28550  -0.28133  -0.27886
 Alpha  occ. eigenvalues --   -0.27403  -0.26163
 Alpha virt. eigenvalues --   -0.03416  -0.02716  -0.01750  -0.01602   0.08114
 Alpha virt. eigenvalues --    0.10464   0.11282   0.11789   0.11910   0.12401
 Alpha virt. eigenvalues --    0.12641   0.13526   0.14111   0.14734   0.15158

 Mulliken atomic charges:
              1
     1  C   -0.212164
     2  O   -0.454619
     3  C    0.681310
     4  N   -0.487595
     5  C    0.658122
     6  O   -0.510558
     7  C    0.356962
     8  C   -0.167785
     9  C   -0.177417
    10  C    0.005428
    11  C   -0.188802
    12  C   -0.139630
    13  C    0.781414
    14  F   -0.268568
    15  F   -0.268708
    16  F   -0.260443
    17  N   -0.520594
    18  C    0.680303
    19  N   -0.517804
    20  O   -0.457905
    21  C   -0.213269
    22  H    0.171203
    23  H    0.173892
    24  H    0.174464
    25  H    0.159123
    26  H    0.165136
    27  H    0.161411
    28  H    0.158644
    29  H    0.173220
    30  H    0.170766
    31  H    0.174464
 Sum of Mulliken atomic charges =  -0.00000

 Dipole moment (field-independent basis, Debye):
    X=              1.4433    Y=              1.8854    Z=             -0.1125  Tot=              2.3771
 Quadrupole moment (field-independent basis, Debye-Ang):
   XX=           -119.3305   YY=           -119.3547   ZZ=           -109.7006
   XY=              4.7165   XZ=              1.1708   YZ=              2.3993

 Summary of Natural Population Analysis:

                                       Natural Population
                Natural  -----------------------------------------------
    Atom  No    Charge         Core      Valence    Rydberg      Total
 -----------------------------------------------------------------------
      C    1   -0.32125      1.99941     4.30813    0.01371     6.32125
      O    2   -0.49650      1.99972     6.48448    0.01230     8.49650
      C    3    0.76378      1.99921     3.20010    0.03690     5.23622
      N    4   -0.55544      1.99926     5.53383    0.02235     7.55544
      C    5    0.74734      1.99915     3.21729    0.03622     5.25266
      O    6   -0.47382      1.99967     6.46175    0.01240     8.47382
      C    7    0.31020      1.99874     3.66662    0.02444     5.68980
      C    8   -0.26328      1.99902     4.24550    0.01875     6.26328
      C    9   -0.19901      1.99909     4.18194    0.01798     6.19901
      C   10   -0.13702      1.99889     4.12111    0.01702     6.13702
      C   11   -0.22821      1.99909     4.21031    0.01881     6.22821
      C   12   -0.23195      1.99902     4.21532    0.01761     6.23195
      C   13    1.11058      1.99907     2.82009    0.07025     4.88942
      F   14   -0.36245      1.99993     7.35630    0.00622     9.36245
      F   15   -0.36270      1.99993     7.35652    0.00624     9.36270
      F   16   -0.36129      1.99993     7.35515    0.00621     9.36129
      N   17   -0.61618      1.99922     5.59796    0.01899     7.61618
      C   18    0.76387      1.99922     3.20136    0.03555     5.23613
      N   19   -0.60587      1.99926     5.58551    0.02110     7.60587
      O   20   -0.49871      1.99972     6.48695    0.01204     8.49871
      C   21   -0.32140      1.99941     4.30831    0.01368     6.32140
      H   22    0.22636      0.00000     0.77306    0.00059     0.77364
      H   23    0.22153      0.00000     0.77712    0.00134     0.77847
      H   24    0.22188      0.00000     0.77679    0.00133     0.77812
      H   25    0.25176      0.00000     0.74721    0.00103     0.74824
      H   26    0.25043      0.00000     0.74818    0.00140     0.74957
      H   27    0.24925      0.00000     0.74935    0.00139     0.75075
      H   28    0.24992      0.00000     0.74918    0.00090     0.75008
      H   29    0.22772      0.00000     0.77171    0.00057     0.77228
      H   30    0.21913      0.00000     0.77936    0.00152     0.78087
      H   31    0.22131      0.00000     0.77732    0.00137     0.77869
 =======================================================================
   * Total *   -0.00000     41.98596   111.56381    0.45024   154.00000

 Normal termination of Gaussian 09 at Wed Sep 29 02:18:28 2021.
