 Gaussian 09, Revision A.02,

 -----------------------------------
 #p opt b3lyp/6-31G* scf=(xqc,tight)
 -----------------------------------

 ---------------------------
 COCOc1ccc2c(c1)CCCC2_conf_0
 ---------------------------
 Symbolic Z-matrix:
 Charge =  0 Multiplicity = 1

 SCF Done:  E(RB3LYP) =  -617.346731563     A.U. after   14 cycles
 SCF Done:  E(RB3LYP) =  -617.350173642     A.U. after   12 cycles
 SCF Done:  E(RB3LYP) =  -617.350522910     A.U. after   11 cycles
 SCF Done:  E(RB3LYP) =  -617.350562208     A.U. after   10 cycles
 SCF Done:  E(RB3LYP) =  -617.350574488     A.U. after   10 cycles
 SCF Done:  E(RB3LYP) =  -617.350583356     A.U. after   10 cycles
 SCF Done:  E(RB3LYP) =  -617.350590750     A.U. after   10 cycles
 SCF Done:  E(RB3LYP) =  -617.350594694     A.U. after   10 cycles
 SCF Done:  E(RB3LYP) =  -617.350595382     A.U. after    8 cycles
 SCF Done:  E(RB3LYP) =  -617.350595453     A.U. after    6 cycles
 Optimization completed.
    -- Stationary point found.
 Normal termination of Gaussian 09 at Thu Sep 30 09:24:37 2021.

 ----------------------------------------------------------------------
 #p freq b3lyp/6-31G* volume NMR pop=NPA density=current Geom=AllCheck
 Guess=Read
 ----------------------------------------------------------------------

 COCOc1ccc2c(c1)CCCC2_conf_0
 ---------------------------
 Redundant internal coordinates taken from checkpoint file:
 C12H16O2_af80_conf_0.chk
 Charge =  0 Multiplicity = 1

 SCF Done:  E(RB3LYP) =  -617.350595453     A.U. after    1 cycles

  1  C    Isotropic =   134.9287   Anisotropy =    74.5378

  2  O    Isotropic =   284.7057   Anisotropy =    41.7558

  3  C    Isotropic =    97.5809   Anisotropy =    37.0045

  4  O    Isotropic =   204.7123   Anisotropy =    57.3138

  5  C    Isotropic =    43.4378   Anisotropy =   121.3248

  6  C    Isotropic =    80.4002   Anisotropy =   131.6079

  7  C    Isotropic =    65.7011   Anisotropy =   147.2544

  8  C    Isotropic =    67.5264   Anisotropy =   165.3822

  9  C    Isotropic =    58.5428   Anisotropy =   173.8738

 10  C    Isotropic =    84.8837   Anisotropy =   121.4129

 11  C    Isotropic =   158.1455   Anisotropy =    19.2967

 12  C    Isotropic =   164.5401   Anisotropy =     6.3953

 13  C    Isotropic =   164.4168   Anisotropy =     6.1257

 14  C    Isotropic =   159.1611   Anisotropy =    16.8597

 15  H    Isotropic =    28.6271   Anisotropy =     8.4094

 16  H    Isotropic =    29.2858   Anisotropy =     7.3566

 17  H    Isotropic =    28.2235   Anisotropy =     7.6268

 18  H    Isotropic =    27.3792   Anisotropy =     4.2497

 19  H    Isotropic =    26.8899   Anisotropy =     4.2719

 20  H    Isotropic =    25.6937   Anisotropy =     5.7258

 21  H    Isotropic =    25.3627   Anisotropy =     6.7386

 22  H    Isotropic =    26.3659   Anisotropy =    10.1422

 23  H    Isotropic =    29.6487   Anisotropy =     7.5325

 24  H    Isotropic =    29.4218   Anisotropy =     7.0086

 25  H    Isotropic =    30.4737   Anisotropy =     7.4999

 26  H    Isotropic =    30.4679   Anisotropy =     9.1940

 27  H    Isotropic =    30.4471   Anisotropy =     9.3368

 28  H    Isotropic =    30.4713   Anisotropy =     7.5812

 29  H    Isotropic =    29.4621   Anisotropy =     7.5193

 30  H    Isotropic =    29.6230   Anisotropy =     7.9533

  Exact polarizability: 179.837   0.765 131.584  -1.935   2.069  80.247
 Approx polarizability: 233.389  -0.186 210.202  -7.999   4.699 122.656

                     1                      2                      3
                     A                      A                      A
 Frequencies --    30.9434                58.1257                87.2511
 Red. masses --     4.1348                 2.7548                 2.8471
 Frc consts  --     0.0023                 0.0055                 0.0128
 IR Inten    --     0.6964                 1.4182                 0.2316

                     4                      5                      6
                     A                      A                      A
 Frequencies --   113.6722               129.2636               157.1794
 Red. masses --     3.1850                 2.3358                 1.5649
 Frc consts  --     0.0242                 0.0230                 0.0228
 IR Inten    --     0.3723                 1.2407                 1.7605

                     7                      8                      9
                     A                      A                      A
 Frequencies --   184.4139               217.8699               296.6762
 Red. masses --     2.1712                 3.2374                 2.4508
 Frc consts  --     0.0435                 0.0905                 0.1271
 IR Inten    --     4.2607                 0.0231                 0.5816

                    10                     11                     12
                     A                      A                      A
 Frequencies --   309.1646               330.3359               346.2405
 Red. masses --     3.2134                 3.6574                 2.8855
 Frc consts  --     0.1810                 0.2351                 0.2038
 IR Inten    --     1.0024                 9.0264                 1.8319

                    13                     14                     15
                     A                      A                      A
 Frequencies --   422.1247               440.7186               455.2986
 Red. masses --     2.9105                 2.8073                 3.1449
 Frc consts  --     0.3056                 0.3213                 0.3841
 IR Inten    --     4.8910                 1.6440                 0.7367

                    16                     17                     18
                     A                      A                      A
 Frequencies --   484.2552               497.1504               573.4623
 Red. masses --     4.1511                 3.1498                 3.2908
 Frc consts  --     0.5735                 0.4587                 0.6376
 IR Inten    --     0.5186                 2.7288                 0.8945

                    19                     20                     21
                     A                      A                      A
 Frequencies --   600.9831               623.7916               709.8907
 Red. masses --     4.0844                 2.9344                 3.0900
 Frc consts  --     0.8692                 0.6727                 0.9175
 IR Inten    --     0.5735                 0.7260                 0.4690

                    22                     23                     24
                     A                      A                      A
 Frequencies --   748.7996               763.9896               824.3089
 Red. masses --     4.8281                 4.1871                 1.3744
 Frc consts  --     1.5950                 1.4399                 0.5502
 IR Inten    --     0.9798                 2.2978                 9.9078

                    25                     26                     27
                     A                      A                      A
 Frequencies --   844.1011               861.1880               876.8637
 Red. masses --     1.5168                 1.4917                 2.5472
 Frc consts  --     0.6367                 0.6518                 1.1539
 IR Inten    --    21.5858                 4.8703                 1.0893

                    28                     29                     30
                     A                      A                      A
 Frequencies --   928.7862               948.4187               957.0964
 Red. masses --     1.4516                 3.1541                 1.3776
 Frc consts  --     0.7378                 1.6716                 0.7435
 IR Inten    --     2.7381                 7.8508                 0.3347

                    31                     32                     33
                     A                      A                      A
 Frequencies --   960.9239               976.8330              1011.0612
 Red. masses --     2.3964                 4.0779                 2.5227
 Frc consts  --     1.3037                 2.2926                 1.5194
 IR Inten    --     3.8085                28.4141                 1.1001

                    34                     35                     36
                     A                      A                      A
 Frequencies --  1037.4266              1084.1005              1114.3498
 Red. masses --     6.5684                 1.8183                 1.8494
 Frc consts  --     4.1651                 1.2591                 1.3530
 IR Inten    --   278.1804                 6.9980                 1.7456

                    37                     38                     39
                     A                      A                      A
 Frequencies --  1138.9663              1139.8392              1168.0071
 Red. masses --     1.5946                 1.7383                 1.1616
 Frc consts  --     1.2188                 1.3307                 0.9337
 IR Inten    --     9.4837                68.7654                 2.0903

                    40                     41                     42
                     A                      A                      A
 Frequencies --  1182.7673              1192.1079              1197.9265
 Red. masses --     1.3581                 1.7166                 1.3719
 Frc consts  --     1.1194                 1.4373                 1.1600
 IR Inten    --    37.6121                29.3117                 2.5614

                    43                     44                     45
                     A                      A                      A
 Frequencies --  1211.4576              1228.7175              1241.1245
 Red. masses --     2.3108                 2.1641                 1.9442
 Frc consts  --     1.9981                 1.9250                 1.7645
 IR Inten    --   173.8767                27.2279               181.7862

                    46                     47                     48
                     A                      A                      A
 Frequencies --  1273.6467              1288.8203              1297.5719
 Red. masses --     1.6544                 1.2686                 2.7948
 Frc consts  --     1.5812                 1.2415                 2.7724
 IR Inten    --    41.5207                10.1879                99.3310

                    49                     50                     51
                     A                      A                      A
 Frequencies --  1322.3853              1326.9663              1360.6623
 Red. masses --     1.1699                 1.2643                 3.4785
 Frc consts  --     1.2054                 1.3116                 3.7944
 IR Inten    --     3.6305                 5.5683                50.3897

                    52                     53                     54
                     A                      A                      A
 Frequencies --  1377.5148              1388.4037              1393.8026
 Red. masses --     1.6430                 1.4609                 1.5063
 Frc consts  --     1.8369                 1.6592                 1.7241
 IR Inten    --     8.7816                 2.6905                 1.8238

                    55                     56                     57
                     A                      A                      A
 Frequencies --  1406.1219              1452.7634              1468.9496
 Red. masses --     1.5552                 1.2311                 3.4396
 Frc consts  --     1.8117                 1.5308                 4.3729
 IR Inten    --    13.2676                72.6525                 2.5988

                    58                     59                     60
                     A                      A                      A
 Frequencies --  1501.4590              1504.7573              1512.0275
 Red. masses --     1.1671                 1.1134                 1.0863
 Frc consts  --     1.5502                 1.4854                 1.4632
 IR Inten    --    25.3206                 0.1005                 3.1555

                    61                     62                     63
                     A                      A                      A
 Frequencies --  1514.2195              1520.9919              1532.2492
 Red. masses --     1.0589                 1.0878                 1.1029
 Frc consts  --     1.4305                 1.4827                 1.5256
 IR Inten    --     5.4140                 3.9151                 1.5312

                    64                     65                     66
                     A                      A                      A
 Frequencies --  1537.7100              1550.3686              1560.0718
 Red. masses --     1.0525                 1.3467                 1.8368
 Frc consts  --     1.4663                 1.9072                 2.6340
 IR Inten    --     5.9792                40.0299                51.1834

                    67                     68                     69
                     A                      A                      A
 Frequencies --  1634.2017              1669.3049              2963.4794
 Red. masses --     7.0434                 5.8300                 1.0666
 Frc consts  --    11.0826                 9.5717                 5.5191
 IR Inten    --    17.9764                72.9155                48.4739

                    70                     71                     72
                     A                      A                      A
 Frequencies --  3006.9770              3011.4987              3016.2201
 Red. masses --     1.0701                 1.0693                 1.0453
 Frc consts  --     5.7009                 5.7134                 5.6028
 IR Inten    --    32.7848                19.0333                55.0215

                    73                     74                     75
                     A                      A                      A
 Frequencies --  3029.4132              3034.6665              3060.2384
 Red. masses --     1.0680                 1.0619                 1.0908
 Frc consts  --     5.7746                 5.7617                 6.0188
 IR Inten    --    19.5077                26.5608                53.4572

                    76                     77                     78
                     A                      A                      A
 Frequencies --  3061.4583              3076.5208              3079.4417
 Red. masses --     1.0923                 1.0968                 1.0958
 Frc consts  --     6.0317                 6.1163                 6.1226
 IR Inten    --    28.2291                42.9450                73.3884

                    79                     80                     81
                     A                      A                      A
 Frequencies --  3082.7541              3099.5165              3155.4177
 Red. masses --     1.1052                 1.0916                 1.1029
 Frc consts  --     6.1882                 6.1787                 6.4699
 IR Inten    --    59.1403                34.9920                34.6065

                    82                     83                     84
                     A                      A                      A
 Frequencies --  3172.8071              3201.1691              3213.9628
 Red. masses --     1.0886                 1.0893                 1.0930
 Frc consts  --     6.4568                 6.5766                 6.6519
 IR Inten    --    19.9896                15.2976                 9.9318

 - Thermochemistry -
 -------------------
 Temperature   298.150 Kelvin.  Pressure   1.00000 Atm.
 Atom     1 has atomic number  6 and mass  12.00000

 Molecular mass:   192.11503 amu.
 Principal axes and moments of inertia in atomic units:
                           1         2         3
     Eigenvalues --   967.705485868.721296616.98086
           X            0.99997   0.00326   0.00671
           Y           -0.00327   0.99999   0.00255
           Z           -0.00670  -0.00257   0.99997
 This molecule is an asymmetric top.
 Rotational symmetry number  1.
 Warning -- assumption of classical behavior for rotation
           may cause significant error
 Rotational temperatures (Kelvin)      0.08950     0.01476     0.01309
 Rotational constants (GHZ):           1.86497     0.30752     0.27274
 Zero-point vibrational energy     684075.4 (Joules/Mol)
                                  163.49795 (Kcal/Mol)
 Warning -- explicit consideration of  19 degrees of freedom as
           vibrations may cause significant error
 Vibrational temperatures:     44.52    83.63   125.53   163.55   185.98
          (Kelvin)            226.15   265.33   313.47   426.85   444.82
                              475.28   498.16   607.34   634.09   655.07
                              696.73   715.29   825.08   864.68   897.50
                             1021.37  1077.35  1099.21  1186.00  1214.47
                             1239.06  1261.61  1336.31  1364.56  1377.05
                             1382.55  1405.44  1454.69  1492.62  1559.78
                             1603.30  1638.72  1639.97  1680.50  1701.74
                             1715.18  1723.55  1743.02  1767.85  1785.70
                             1832.49  1854.32  1866.91  1902.62  1909.21
                             1957.69  1981.93  1997.60  2005.37  2023.09
                             2090.20  2113.49  2160.26  2165.01  2175.47
                             2178.62  2188.37  2204.56  2212.42  2230.63
                             2244.59  2351.25  2401.75  4263.78  4326.36
                             4332.87  4339.66  4358.64  4366.20  4402.99
                             4404.75  4426.42  4430.62  4435.39  4459.51
                             4539.94  4564.96  4605.76  4624.17

 Zero-point correction=                           0.260551 (Hartree/Particle)
 Thermal correction to Energy=                    0.273521
 Thermal correction to Enthalpy=                  0.274465
 Thermal correction to Gibbs Free Energy=         0.220199
 Sum of electronic and zero-point Energies=           -617.090045
 Sum of electronic and thermal Energies=              -617.077075
 Sum of electronic and thermal Enthalpies=            -617.076130
 Sum of electronic and thermal Free Energies=         -617.130396

                     E (Thermal)             CV                S
                      KCal/Mol        Cal/Mol-Kelvin    Cal/Mol-Kelvin
 Total                  171.637             49.686            114.212
 Electronic               0.000              0.000              0.000
 Translational            0.889              2.981             41.664
 Rotational               0.889              2.981             31.997
 Vibrational            169.860             43.724             40.551
 Vibration     1          0.594              1.984              5.768
 Vibration     2          0.596              1.974              4.520
 Vibration     3          0.601              1.958              3.721
 Vibration     4          0.607              1.938              3.205
 Vibration     5          0.612              1.924              2.957
 Vibration     6          0.621              1.895              2.583
 Vibration     7          0.631              1.861              2.283
 Vibration     8          0.646              1.814              1.977
 Vibration     9          0.690              1.680              1.436
 Vibration    10          0.699              1.656              1.367
 Vibration    11          0.713              1.615              1.258
 Vibration    12          0.724              1.583              1.183
 Vibration    13          0.784              1.422              0.885
 Vibration    14          0.801              1.381              0.824
 Vibration    15          0.814              1.349              0.780
 Vibration    16          0.840              1.285              0.699
 Vibration    17          0.853              1.256              0.665
 Vibration    18          0.930              1.089              0.498
 Vibration    19          0.959              1.030              0.448

 Normal termination of Gaussian 09 at Thu Sep 30 10:14:54 2021.
 Gaussian 09:  AM64L-G09RevA.02 11-Jun-2009

 ----------------------------------------------------------------------
 #p TD(NStates=10, Root=1) b3lyp/6-31G* volume pop=NPA density=current
 Geom=AllCheck Guess=Read
 ----------------------------------------------------------------------

 COCOc1ccc2c(c1)CCCC2_conf_0
 ---------------------------
 Redundant internal coordinates taken from checkpoint file:
 C12H16O2_af80_conf_0.chk
 Charge =  0 Multiplicity = 1

                         Standard orientation:
 ---------------------------------------------------------------------
 Center     Atomic      Atomic             Coordinates (Angstroms)
 Number     Number       Type             X           Y           Z
 ---------------------------------------------------------------------
      1          6           0        4.898072   -0.060227    0.803228
      2          8           0        4.343205   -0.651267   -0.366809
      3          6           0        2.974003   -0.824557   -0.313336
      4          8           0        2.342904    0.452218   -0.328304
      5          6           0        0.980856    0.511569   -0.206320
      6          6           0        0.428430    1.797442   -0.115485
      7          6           0       -0.945110    1.942800    0.003859
      8          6           0       -1.810793    0.836742    0.038304
      9          6           0       -1.254404   -0.446899   -0.057058
     10          6           0        0.137231   -0.600288   -0.178952
     11          6           0       -2.128805   -1.690638   -0.070685
     12          6           0       -3.549165   -1.441220    0.453139
     13          6           0       -4.138074   -0.177517   -0.183311
     14          6           0       -3.305760    1.051151    0.205288
     15          1           0        5.982337   -0.076313    0.673797
     16          1           0        4.632107   -0.638524    1.701356
     17          1           0        4.558743    0.973488    0.930220
     18          1           0        2.665457   -1.366916    0.598424
     19          1           0        2.693642   -1.398871   -1.204625
     20          1           0        1.091546    2.656469   -0.142907
     21          1           0       -1.366098    2.944111    0.073072
     22          1           0        0.539648   -1.605542   -0.258325
     23          1           0       -1.643949   -2.488781    0.506470
     24          1           0       -2.192115   -2.065643   -1.103980
     25          1           0       -3.526062   -1.319321    1.545408
     26          1           0       -4.179920   -2.314169    0.245710
     27          1           0       -5.180894   -0.034967    0.125129
     28          1           0       -4.143275   -0.291706   -1.276681
     29          1           0       -3.517807    1.304233    1.255953
     30          1           0       -3.621113    1.924686   -0.380135
 ---------------------------------------------------------------------

 SCF Done:  E(RB3LYP) =  -617.350595453     A.U. after    2 cycles

 Excitation energies and oscillator strengths:

 Excited State   1:      Singlet-A      4.9884 eV  248.55 nm  f=0.0380  <S**2>=0.000
      51 -> 54        -0.30798
      52 -> 53         0.63440
 This state for optimization and/or second-order correction.
 Total Energy, E(TD-HF/TD-KS) =  -617.167276273
 Copying the excited state density for this state as the 1-particle RhoCI density.

 Excited State   2:      Singlet-A      5.7625 eV  215.16 nm  f=0.1147  <S**2>=0.000
      51 -> 53         0.34703
      52 -> 54         0.61076

 Excited State   3:      Singlet-A      6.6064 eV  187.67 nm  f=0.5974  <S**2>=0.000
      49 -> 53        -0.11952
      51 -> 53         0.59185
      51 -> 54        -0.10263
      52 -> 54        -0.32522

 Excited State   4:      Singlet-A      6.7307 eV  184.21 nm  f=0.4315  <S**2>=0.000
      49 -> 53         0.14903
      51 -> 53         0.10144
      51 -> 54         0.59445
      52 -> 53         0.28806

 Excited State   5:      Singlet-A      6.9537 eV  178.30 nm  f=0.0078  <S**2>=0.000
      50 -> 53         0.68721

 Excited State   6:      Singlet-A      7.3055 eV  169.71 nm  f=0.0033  <S**2>=0.000
      48 -> 53         0.67573

 Excited State   7:      Singlet-A      7.3184 eV  169.41 nm  f=0.0008  <S**2>=0.000
      48 -> 54         0.10348
      50 -> 54         0.67739

 Excited State   8:      Singlet-A      7.3711 eV  168.20 nm  f=0.0017  <S**2>=0.000
      49 -> 53        -0.12565
      52 -> 55         0.60081
      52 -> 57        -0.31308

 Excited State   9:      Singlet-A      7.4695 eV  165.99 nm  f=0.0473  <S**2>=0.000
      47 -> 53         0.30426
      49 -> 53         0.56187
      51 -> 54        -0.11897
      52 -> 57        -0.20452

 Excited State  10:      Singlet-A      7.5614 eV  163.97 nm  f=0.0052  <S**2>=0.000
      47 -> 53         0.15250
      52 -> 55         0.11648
      52 -> 56         0.65407
      52 -> 57         0.13335

 The electronic state is 1-A.
 Alpha  occ. eigenvalues --  -19.17136 -19.16099 -10.28703 -10.24155 -10.22954
 Alpha  occ. eigenvalues --  -10.18979 -10.18474 -10.18229 -10.18178 -10.18127
 Alpha  occ. eigenvalues --  -10.18077 -10.17986 -10.17986 -10.17743  -1.08179
 Alpha  occ. eigenvalues --   -1.02573  -0.85502  -0.80441  -0.76172  -0.74538
 Alpha  occ. eigenvalues --   -0.71824  -0.70693  -0.65373  -0.61957  -0.60272
 Alpha  occ. eigenvalues --   -0.58886  -0.55095  -0.52288  -0.50708  -0.50205
 Alpha  occ. eigenvalues --   -0.47925  -0.46694  -0.44517  -0.43250  -0.42569
 Alpha  occ. eigenvalues --   -0.42504  -0.41733  -0.41542  -0.38985  -0.38453
 Alpha  occ. eigenvalues --   -0.37249  -0.36766  -0.36075  -0.33935  -0.32988
 Alpha  occ. eigenvalues --   -0.32814  -0.31227  -0.30582  -0.29792  -0.27622
 Alpha  occ. eigenvalues --   -0.23737  -0.20777
 Alpha virt. eigenvalues --    0.00287   0.01863   0.09370   0.09841   0.10617
 Alpha virt. eigenvalues --    0.12110   0.13007   0.13099   0.13995   0.14146
 Alpha virt. eigenvalues --    0.15119   0.15987   0.16273   0.16783   0.17181

 Mulliken atomic charges:
              1
     1  C   -0.215679
     2  O   -0.448847
     3  C    0.184590
     4  O   -0.474954
     5  C    0.360659
     6  C   -0.184425
     7  C   -0.224709
     8  C    0.147102
     9  C    0.100730
    10  C   -0.274892
    11  C   -0.333695
    12  C   -0.264095
    13  C   -0.265424
    14  C   -0.347007
    15  H    0.168076
    16  H    0.137197
    17  H    0.166767
    18  H    0.138745
    19  H    0.167720
    20  H    0.124637
    21  H    0.110370
    22  H    0.116191
    23  H    0.132733
    24  H    0.138319
    25  H    0.133587
    26  H    0.129242
    27  H    0.131263
    28  H    0.137838
    29  H    0.158856
    30  H    0.149105
 Sum of Mulliken atomic charges =  -0.00000

 Dipole moment (field-independent basis, Debye):
    X=              0.2683    Y=             -0.9658    Z=              1.2341  Tot=              1.5899
 Quadrupole moment (field-independent basis, Debye-Ang):
   XX=            -76.0637   YY=            -81.9903   ZZ=            -85.1819
   XY=             -1.1674   XZ=              5.4544   YZ=              0.5963

 Summary of Natural Population Analysis:

                                       Natural Population
                Natural  -----------------------------------------------
    Atom  No    Charge         Core      Valence    Rydberg      Total
 -----------------------------------------------------------------------
      C    1   -0.32110      1.99944     4.30737    0.01429     6.32110
      O    2   -0.56060      1.99980     6.54828    0.01252     8.56060
      C    3    0.20855      1.99939     3.76479    0.02727     5.79145
      O    4   -0.46791      1.99973     6.45623    0.01196     8.46791
      C    5    0.33432      1.99879     3.64363    0.02327     5.66568
      C    6   -0.30052      1.99906     4.28167    0.01979     6.30052
      C    7   -0.29031      1.99908     4.27229    0.01894     6.29031
      C    8    0.04430      1.99899     3.94127    0.01544     5.95570
      C    9   -0.05633      1.99901     4.04008    0.01725     6.05633
      C   10   -0.34880      1.99900     4.33255    0.01726     6.34880
      C   11   -0.46858      1.99929     4.45772    0.01157     6.46858
      C   12   -0.45436      1.99934     4.44283    0.01220     6.45436
      C   13   -0.45562      1.99933     4.44399    0.01230     6.45562
      C   14   -0.47821      1.99927     4.46708    0.01185     6.47821
      H   15    0.22469      0.00000     0.77472    0.00058     0.77531
      H   16    0.19276      0.00000     0.80547    0.00177     0.80724
      H   17    0.21125      0.00000     0.78694    0.00181     0.78875
      H   18    0.18589      0.00000     0.81086    0.00325     0.81411
      H   19    0.21866      0.00000     0.77947    0.00187     0.78134
      H   20    0.23642      0.00000     0.76233    0.00124     0.76358
      H   21    0.22571      0.00000     0.77326    0.00103     0.77429
      H   22    0.22251      0.00000     0.77634    0.00114     0.77749
      H   23    0.23556      0.00000     0.76164    0.00280     0.76444
      H   24    0.23016      0.00000     0.76571    0.00414     0.76984
      H   25    0.22708      0.00000     0.77094    0.00199     0.77292
      H   26    0.23740      0.00000     0.76090    0.00170     0.76260
      H   27    0.23828      0.00000     0.76038    0.00134     0.76172
      H   28    0.22915      0.00000     0.76884    0.00201     0.77085
      H   29    0.25089      0.00000     0.74701    0.00210     0.74911
      H   30    0.24877      0.00000     0.74892    0.00232     0.75123
 =======================================================================
   * Total *   -0.00000     27.98951    75.75351    0.25699   104.00000

 Normal termination of Gaussian 09 at Thu Sep 30 14:37:13 2021.
