 Gaussian 09, Revision A.02,

 -----------------------------------
 #p opt b3lyp/6-31G* scf=(xqc,tight)
 -----------------------------------

 ---------------------------------
 COc1nc(nc(n1)OC)Oc1ccccc1C_conf_0
 ---------------------------------
 Symbolic Z-matrix:
 Charge =  0 Multiplicity = 1

 SCF Done:  E(RB3LYP) =  -855.027319778     A.U. after   14 cycles
 SCF Done:  E(RB3LYP) =  -855.036987395     A.U. after   12 cycles
 SCF Done:  E(RB3LYP) =  -855.042393725     A.U. after   15 cycles
 SCF Done:  E(RB3LYP) =  -855.043287309     A.U. after   12 cycles
 SCF Done:  E(RB3LYP) =  -855.043769571     A.U. after   12 cycles
 SCF Done:  E(RB3LYP) =  -855.044089723     A.U. after   12 cycles
 SCF Done:  E(RB3LYP) =  -855.044266688     A.U. after   12 cycles
 SCF Done:  E(RB3LYP) =  -855.044388762     A.U. after   11 cycles
 SCF Done:  E(RB3LYP) =  -855.044529940     A.U. after   12 cycles
 SCF Done:  E(RB3LYP) =  -855.044612658     A.U. after   12 cycles
 SCF Done:  E(RB3LYP) =  -855.044916539     A.U. after   10 cycles
 SCF Done:  E(RB3LYP) =  -855.044917696     A.U. after    9 cycles
 SCF Done:  E(RB3LYP) =  -855.044918423     A.U. after    8 cycles
 SCF Done:  E(RB3LYP) =  -855.044918701     A.U. after    8 cycles
 SCF Done:  E(RB3LYP) =  -855.044918700     A.U. after    7 cycles
 SCF Done:  E(RB3LYP) =  -855.044918685     A.U. after    6 cycles
 SCF Done:  E(RB3LYP) =  -855.044918690     A.U. after    5 cycles
 SCF Done:  E(RB3LYP) =  -855.044918712     A.U. after    6 cycles
 Optimization completed.
    -- Stationary point found.
 Normal termination of Gaussian 09 at Tue Sep 28 19:33:45 2021.

 ----------------------------------------------------------------------
 #p freq b3lyp/6-31G* volume NMR pop=NPA density=current Geom=AllCheck
 Guess=Read
 ----------------------------------------------------------------------

 COc1nc(nc(n1)OC)Oc1ccccc1C_conf_0
 ---------------------------------
 Redundant internal coordinates taken from checkpoint file:
 C12H13N3O3_5bd4_conf_0.chk
 Charge =  0 Multiplicity = 1

 SCF Done:  E(RB3LYP) =  -855.044918712     A.U. after    1 cycles

  1  C    Isotropic =   136.3640   Anisotropy =    64.5999

  2  O    Isotropic =   190.6997   Anisotropy =    88.7718

  3  C    Isotropic =    22.5959   Anisotropy =   100.8661

  4  N    Isotropic =    57.4432   Anisotropy =   279.7826

  5  C    Isotropic =    23.3660   Anisotropy =    94.8447

  6  N    Isotropic =    67.5500   Anisotropy =   277.6282

  7  C    Isotropic =    23.9486   Anisotropy =    99.6090

  8  N    Isotropic =    62.9532   Anisotropy =   283.3724

  9  O    Isotropic =   191.8093   Anisotropy =    87.3430

 10  C    Isotropic =   136.7379   Anisotropy =    63.4770

 11  O    Isotropic =   138.1748   Anisotropy =    85.2573

 12  C    Isotropic =    44.2693   Anisotropy =   104.3620

 13  C    Isotropic =    73.6038   Anisotropy =   144.2584

 14  C    Isotropic =    69.2021   Anisotropy =   161.3600

 15  C    Isotropic =    70.8505   Anisotropy =   162.8644

 16  C    Isotropic =    65.2875   Anisotropy =   144.2496

 17  C    Isotropic =    63.9410   Anisotropy =   164.2912

 18  C    Isotropic =   171.4043   Anisotropy =    26.4554

 19  H    Isotropic =    28.5170   Anisotropy =     7.7733

 20  H    Isotropic =    28.3089   Anisotropy =     8.0651

 21  H    Isotropic =    28.3106   Anisotropy =     7.9773

 22  H    Isotropic =    28.7419   Anisotropy =     7.5686

 23  H    Isotropic =    28.7517   Anisotropy =     6.3906

 24  H    Isotropic =    28.7515   Anisotropy =     6.2841

 25  H    Isotropic =    25.3190   Anisotropy =     7.0694

 26  H    Isotropic =    25.0544   Anisotropy =     4.0532

 27  H    Isotropic =    25.1208   Anisotropy =     3.7487

 28  H    Isotropic =    25.0703   Anisotropy =     6.2813

 29  H    Isotropic =    30.4947   Anisotropy =     8.7337

 30  H    Isotropic =    29.6856   Anisotropy =     7.0693

 31  H    Isotropic =    30.1618   Anisotropy =     5.8096

  Exact polarizability: 205.199  22.618 122.558  -3.544  -0.940 123.498
 Approx polarizability: 274.488  36.284 200.514  -3.432   2.044 198.662

                     1                      2                      3
                     A                      A                      A
 Frequencies --    25.0548                30.8747                59.6952
 Red. masses --     4.0353                 4.4431                 5.0604
 Frc consts  --     0.0015                 0.0025                 0.0106
 IR Inten    --     0.0866                 0.3045                 0.1081

                     4                      5                      6
                     A                      A                      A
 Frequencies --   100.7215               112.8695               122.1780
 Red. masses --     3.2602                 2.9795                 1.0659
 Frc consts  --     0.0195                 0.0224                 0.0094
 IR Inten    --     5.8383                 0.1046                 0.3238

                     7                      8                      9
                     A                      A                      A
 Frequencies --   146.5926               160.1496               162.5938
 Red. masses --     1.2333                 3.1917                 1.2353
 Frc consts  --     0.0156                 0.0482                 0.0192
 IR Inten    --     0.0162                 0.0824                 0.0071

                    10                     11                     12
                     A                      A                      A
 Frequencies --   191.5159               195.5010               209.0066
 Red. masses --     3.6466                 4.0923                 4.1533
 Frc consts  --     0.0788                 0.0922                 0.1069
 IR Inten    --     5.8185                 1.5421                 2.1267

                    13                     14                     15
                     A                      A                      A
 Frequencies --   229.9351               249.5870               272.5664
 Red. masses --     5.7950                 5.0940                 4.0836
 Frc consts  --     0.1805                 0.1870                 0.1787
 IR Inten    --     0.0973                 3.5695                 1.1584

                    16                     17                     18
                     A                      A                      A
 Frequencies --   304.8420               328.4205               445.9445
 Red. masses --     3.7907                 4.3192                 3.9616
 Frc consts  --     0.2075                 0.2745                 0.4642
 IR Inten    --     2.5110                 5.5210                 1.7452

                    19                     20                     21
                     A                      A                      A
 Frequencies --   454.0246               475.5378               512.6810
 Red. masses --     3.8880                 4.2911                 5.1889
 Frc consts  --     0.4722                 0.5717                 0.8036
 IR Inten    --     4.1628                11.5937                 1.8920

                    22                     23                     24
                     A                      A                      A
 Frequencies --   549.2903               563.5533               601.5526
 Red. masses --     5.3920                 6.5081                 7.3613
 Frc consts  --     0.9585                 1.2178                 1.5695
 IR Inten    --     1.5899                 1.9873                 2.0354

                    25                     26                     27
                     A                      A                      A
 Frequencies --   623.3581               667.1328               718.7219
 Red. masses --     7.7038                 5.7745                 5.5005
 Frc consts  --     1.7637                 1.5142                 1.6741
 IR Inten    --     3.0854                 1.8996                 7.5894

                    28                     29                     30
                     A                      A                      A
 Frequencies --   736.4585               739.4007               749.5331
 Red. masses --     2.3979                 9.3747                11.9742
 Frc consts  --     0.7663                 3.0197                 3.9635
 IR Inten    --     9.1761                 0.6699                 0.0719

                    31                     32                     33
                     A                      A                      A
 Frequencies --   777.9622               801.9364               828.2891
 Red. masses --     2.0796                 3.2726                12.4467
 Frc consts  --     0.7416                 1.2400                 5.0311
 IR Inten    --    21.2175                11.3293                39.7910

                    34                     35                     36
                     A                      A                      A
 Frequencies --   865.2458               878.0962               942.9265
 Red. masses --     3.8396                 1.5192                 1.3704
 Frc consts  --     1.6936                 0.6901                 0.7179
 IR Inten    --     3.0881                 1.4246                 1.0943

                    37                     38                     39
                     A                      A                      A
 Frequencies --   979.6738               980.1920               997.6089
 Red. masses --     1.3980                 4.6247                13.7300
 Frc consts  --     0.7905                 2.6179                 8.0509
 IR Inten    --     2.1118                17.6355                 0.2038

                    40                     41                     42
                     A                      A                      A
 Frequencies --  1017.4615              1038.3300              1072.3307
 Red. masses --     1.5909                 8.3292                 2.0574
 Frc consts  --     0.9703                 5.2908                 1.3939
 IR Inten    --     1.8983                 2.3952                 3.2783

                    43                     44                     45
                     A                      A                      A
 Frequencies --  1076.3662              1126.4290              1143.0582
 Red. masses --     1.5127                 3.9025                 2.4350
 Frc consts  --     1.0326                 2.9174                 1.8745
 IR Inten    --     4.6624                39.4389                55.8152

                    46                     47                     48
                     A                      A                      A
 Frequencies --  1161.6967              1184.2132              1184.7628
 Red. masses --     2.6973                 1.2658                 1.2663
 Frc consts  --     2.1447                 1.0459                 1.0473
 IR Inten    --   149.3381                 0.2454                 0.9854

                    49                     50                     51
                     A                      A                      A
 Frequencies --  1191.1115              1211.1686              1221.6176
 Red. masses --     1.1181                 2.4832                 1.6707
 Frc consts  --     0.9346                 2.1462                 1.4690
 IR Inten    --     5.1415               145.0167                69.3956

                    52                     53                     54
                     A                      A                      A
 Frequencies --  1238.8237              1260.7877              1315.2783
 Red. masses --     2.0259                 3.4145                 1.5037
 Frc consts  --     1.8318                 3.1979                 1.5327
 IR Inten    --   109.9237               206.5494                 0.3744

                    55                     56                     57
                     A                      A                      A
 Frequencies --  1322.0140              1351.2408              1407.0869
 Red. masses --     9.3505                 7.1719                 4.5602
 Frc consts  --     9.6285                 7.7152                 5.3195
 IR Inten    --    59.9176                 1.3237               945.7701

                    58                     59                     60
                     A                      A                      A
 Frequencies --  1419.8473              1441.7144              1470.7215
 Red. masses --     3.5015                 1.2474                 1.7226
 Frc consts  --     4.1589                 1.5276                 2.1954
 IR Inten    --   456.9835                 5.3537                30.7012

                    61                     62                     63
                     A                      A                      A
 Frequencies --  1492.2657              1510.8054              1512.4479
 Red. masses --     1.9345                 1.0586                 1.0484
 Frc consts  --     2.5381                 1.4236                 1.4130
 IR Inten    --    11.7759                 3.2020                 5.2384

                    64                     65                     66
                     A                      A                      A
 Frequencies --  1512.6258              1519.1082              1521.3372
 Red. masses --     1.0480                 1.2556                 1.0866
 Frc consts  --     1.4128                 1.7072                 1.4817
 IR Inten    --     8.2002               111.8708                27.3441

                    67                     68                     69
                     A                      A                      A
 Frequencies --  1524.4058              1528.5294              1541.5560
 Red. masses --     1.2955                 1.3755                 2.0242
 Frc consts  --     1.7737                 1.8935                 2.8341
 IR Inten    --    19.1370                 6.2052                78.7029

                    70                     71                     72
                     A                      A                      A
 Frequencies --  1564.8983              1601.8730              1627.8901
 Red. masses --     3.3434                 8.4846                 9.3343
 Frc consts  --     4.8240                12.8274                14.5742
 IR Inten    --     5.6696               587.2665               870.3036

                    73                     74                     75
                     A                      A                      A
 Frequencies --  1644.5636              1668.4687              3049.6922
 Red. masses --     6.1254                 6.5211                 1.0384
 Frc consts  --     9.7609                10.6957                 5.6904
 IR Inten    --    50.8804                 6.2180                20.2206

                    76                     77                     78
                     A                      A                      A
 Frequencies --  3075.6596              3076.5131              3106.8717
 Red. masses --     1.0293                 1.0293                 1.0980
 Frc consts  --     5.7369                 5.7401                 6.2444
 IR Inten    --    42.9471                25.6151                14.9599

                    79                     80                     81
                     A                      A                      A
 Frequencies --  3134.2904              3151.6927              3152.8583
 Red. masses --     1.1028                 1.1077                 1.1077
 Frc consts  --     6.3833                 6.4826                 6.4873
 IR Inten    --    16.6534                18.7839                19.1486

                    82                     83                     84
                     A                      A                      A
 Frequencies --  3180.0176              3180.7309              3181.2845
 Red. masses --     1.1073                 1.1073                 1.0869
 Frc consts  --     6.5974                 6.6004                 6.4809
 IR Inten    --    24.1189                22.3126                 6.3823

                    85                     86                     87
                     A                      A                      A
 Frequencies --  3194.3513              3207.2157              3218.7985
 Red. masses --     1.0890                 1.0935                 1.0962
 Frc consts  --     6.5469                 6.6271                 6.6918
 IR Inten    --    11.3317                27.5240                 9.1158

 - Thermochemistry -
 -------------------
 Temperature   298.150 Kelvin.  Pressure   1.00000 Atm.
 Atom     1 has atomic number  6 and mass  12.00000

 Molecular mass:   247.09569 amu.
 Principal axes and moments of inertia in atomic units:
                           1         2         3
     Eigenvalues --  2223.609757245.045618171.72511
           X            0.99998   0.00488   0.00289
           Y           -0.00482   0.99982  -0.01820
           Z           -0.00298   0.01819   0.99983
 This molecule is an asymmetric top.
 Rotational symmetry number  1.
 Warning -- assumption of classical behavior for rotation
           may cause significant error
 Rotational temperatures (Kelvin)      0.03895     0.01195     0.01060
 Rotational constants (GHZ):           0.81163     0.24910     0.22085
 Zero-point vibrational energy     641964.2 (Joules/Mol)
                                  153.43313 (Kcal/Mol)
 Warning -- explicit consideration of  24 degrees of freedom as
           vibrations may cause significant error
 Vibrational temperatures:     36.05    44.42    85.89   144.92   162.39
          (Kelvin)            175.79   210.91   230.42   233.94   275.55
                              281.28   300.71   330.82   359.10   392.16
                              438.60   472.52   641.61   653.24   684.19
                              737.63   790.31   810.83   865.50   896.87
                              959.85  1034.08  1059.60  1063.83  1078.41
                             1119.31  1153.81  1191.72  1244.89  1263.38
                             1356.66  1409.53  1410.28  1435.33  1463.90
                             1493.92  1542.84  1548.65  1620.68  1644.60
                             1671.42  1703.82  1704.61  1713.74  1742.60
                             1757.63  1782.39  1813.99  1892.39  1902.08
                             1944.13  2024.48  2042.84  2074.30  2116.04
                             2147.03  2173.71  2176.07  2176.33  2185.66
                             2188.86  2193.28  2199.21  2217.95  2251.54
                             2304.74  2342.17  2366.16  2400.55  4387.82
                             4425.18  4426.41  4470.09  4509.54  4534.58
                             4536.25  4575.33  4576.36  4577.15  4595.95
                             4614.46  4631.13

 Zero-point correction=                           0.244511 (Hartree/Particle)
 Thermal correction to Energy=                    0.261013
 Thermal correction to Enthalpy=                  0.261957
 Thermal correction to Gibbs Free Energy=         0.198997
 Sum of electronic and zero-point Energies=           -854.800407
 Sum of electronic and thermal Energies=              -854.783906
 Sum of electronic and thermal Enthalpies=            -854.782962
 Sum of electronic and thermal Free Energies=         -854.845921

                     E (Thermal)             CV                S
                      KCal/Mol        Cal/Mol-Kelvin    Cal/Mol-Kelvin
 Total                  163.788             60.668            132.510
 Electronic               0.000              0.000              0.000
 Translational            0.889              2.981             42.415
 Rotational               0.889              2.981             33.243
 Vibrational            162.011             54.707             56.853
 Vibration     1          0.593              1.985              6.187
 Vibration     2          0.594              1.984              5.772
 Vibration     3          0.597              1.974              4.467
 Vibration     4          0.604              1.949              3.440
 Vibration     5          0.607              1.939              3.219
 Vibration     6          0.610              1.931              3.066
 Vibration     7          0.617              1.906              2.716
 Vibration     8          0.622              1.891              2.548
 Vibration     9          0.623              1.888              2.519
 Vibration    10          0.634              1.852              2.213
 Vibration    11          0.636              1.846              2.175
 Vibration    12          0.642              1.827              2.052
 Vibration    13          0.652              1.795              1.879
 Vibration    14          0.662              1.763              1.733
 Vibration    15          0.676              1.724              1.580
 Vibration    16          0.696              1.665              1.390
 Vibration    17          0.712              1.619              1.268
 Vibration    18          0.805              1.370              0.808
 Vibration    19          0.812              1.352              0.784
 Vibration    20          0.832              1.304              0.722
 Vibration    21          0.868              1.222              0.627
 Vibration    22          0.905              1.141              0.546
 Vibration    23          0.919              1.110              0.517
 Vibration    24          0.960              1.029              0.447

 Optimization completed.
    -- Stationary point found.
 Normal termination of Gaussian 09 at Tue Sep 28 20:50:12 2021.
 Gaussian 09:  AM64L-G09RevA.02 11-Jun-2009

 ----------------------------------------------------------------------
 #p TD(NStates=10, Root=1) b3lyp/6-31G* volume pop=NPA density=current
 Geom=AllCheck Guess=Read
 ----------------------------------------------------------------------

 COc1nc(nc(n1)OC)Oc1ccccc1C_conf_0
 ---------------------------------
 Redundant internal coordinates taken from checkpoint file:
 C12H13N3O3_5bd4_conf_0.chk
 Charge =  0 Multiplicity = 1

                         Standard orientation:
 ---------------------------------------------------------------------
 Center     Atomic      Atomic             Coordinates (Angstroms)
 Number     Number       Type             X           Y           Z
 ---------------------------------------------------------------------
      1          6           0       -5.047587   -0.691575   -0.058077
      2          8           0       -3.812975   -1.414934   -0.165397
      3          6           0       -2.681774   -0.711651   -0.130032
      4          7           0       -1.571692   -1.453933   -0.237352
      5          6           0       -0.459685   -0.732647   -0.199319
      6          7           0       -0.364243    0.596550   -0.066437
      7          6           0       -1.548392    1.205291    0.026926
      8          7           0       -2.747717    0.614770    0.002273
      9          8           0       -1.588716    2.531061    0.159091
     10          6           0       -0.337456    3.234363    0.182579
     11          8           0        0.671091   -1.454438   -0.307477
     12          6           0        1.915938   -0.807019   -0.308702
     13          6           0        2.492733   -0.497438   -1.535246
     14          6           0        3.772687    0.056459   -1.568127
     15          6           0        4.456472    0.284235   -0.373768
     16          6           0        3.860505   -0.044749    0.844854
     17          6           0        2.576523   -0.599627    0.907822
     18          6           0        1.924539   -0.957519    2.219209
     19          1           0       -5.825274   -1.454538   -0.108458
     20          1           0       -5.153987    0.021001   -0.880127
     21          1           0       -5.100693   -0.150150    0.890012
     22          1           0       -0.608294    4.286071    0.282214
     23          1           0        0.221105    3.066278   -0.741664
     24          1           0        0.273967    2.913568    1.030008
     25          1           0        1.938287   -0.698992   -2.446474
     26          1           0        4.231364    0.301700   -2.521802
     27          1           0        5.456035    0.709793   -0.388807
     28          1           0        4.401120    0.126393    1.772786
     29          1           0        2.636893   -0.869408    3.044797
     30          1           0        1.535629   -1.981491    2.206175
     31          1           0        1.077203   -0.294191    2.433513
 ---------------------------------------------------------------------

 SCF Done:  E(RB3LYP) =  -855.044918712     A.U. after    1 cycles

 Excitation energies and oscillator strengths:

 Excited State   1:      Singlet-A      5.3161 eV  233.22 nm  f=0.0030  <S**2>=0.000
      60 -> 66        -0.10670
      64 -> 66        -0.10167
      64 -> 68         0.29549
      65 -> 66         0.56700
      65 -> 67         0.12015
      65 -> 69         0.20813
 This state for optimization and/or second-order correction.
 Total Energy, E(TD-HF/TD-KS) =  -854.849555661
 Copying the excited state density for this state as the 1-particle RhoCI density.

 Excited State   2:      Singlet-A      5.4597 eV  227.09 nm  f=0.0001  <S**2>=0.000
      60 -> 66         0.13717
      62 -> 67         0.10804
      64 -> 67         0.11076
      64 -> 68         0.32549
      65 -> 66        -0.21149
      65 -> 67        -0.30219
      65 -> 69         0.43967

 Excited State   3:      Singlet-A      5.5757 eV  222.37 nm  f=0.0006  <S**2>=0.000
      60 -> 66         0.12007
      60 -> 67        -0.15547
      62 -> 67        -0.13681
      64 -> 68         0.12878
      65 -> 66        -0.22671
      65 -> 67         0.56032
      65 -> 69         0.19307

 Excited State   4:      Singlet-A      5.6970 eV  217.63 nm  f=0.0016  <S**2>=0.000
      60 -> 66         0.11938
      62 -> 66         0.38820
      62 -> 67         0.45029
      64 -> 66         0.23988
      65 -> 66         0.16939
      65 -> 67         0.12308

 Excited State   5:      Singlet-A      5.7130 eV  217.02 nm  f=0.0015  <S**2>=0.000
      60 -> 66        -0.21901
      62 -> 66         0.52318
      62 -> 67        -0.37308
      62 -> 69        -0.11980

 Excited State   6:      Singlet-A      5.7626 eV  215.15 nm  f=0.0003  <S**2>=0.000
      60 -> 66         0.10036
      62 -> 66        -0.14049
      62 -> 67        -0.28720
      63 -> 67         0.11440
      64 -> 66         0.55979
      64 -> 67         0.12727
      65 -> 66         0.11771

 Excited State   7:      Singlet-A      5.8692 eV  211.25 nm  f=0.0067  <S**2>=0.000
      61 -> 66        -0.43111
      61 -> 67         0.12301
      63 -> 66         0.16408
      63 -> 67         0.46940
      64 -> 66        -0.10723

 Excited State   8:      Singlet-A      5.9085 eV  209.84 nm  f=0.0011  <S**2>=0.000
      60 -> 66        -0.29089
      60 -> 67         0.14949
      64 -> 67         0.57624
      65 -> 66        -0.10609
      65 -> 67         0.18101

 Excited State   9:      Singlet-A      5.9493 eV  208.40 nm  f=0.0002  <S**2>=0.000
      60 -> 66         0.50108
      60 -> 67         0.23682
      60 -> 69        -0.10587
      62 -> 67        -0.16513
      64 -> 66        -0.26038
      64 -> 67         0.21057

 Excited State  10:      Singlet-A      6.0843 eV  203.78 nm  f=0.0137  <S**2>=0.000
      60 -> 67         0.51311
      64 -> 67        -0.19994
      64 -> 69         0.21692
      65 -> 68        -0.35253

 The electronic state is 1-A.
 Alpha  occ. eigenvalues --  -19.20146 -19.19916 -19.19437 -14.33792 -14.33335
 Alpha  occ. eigenvalues --  -14.32948 -10.32750 -10.32635 -10.32203 -10.24927
 Alpha  occ. eigenvalues --  -10.24452 -10.24012 -10.20320 -10.19470 -10.19415
 Alpha  occ. eigenvalues --  -10.19333 -10.19235 -10.18579  -1.11305  -1.09871
 Alpha  occ. eigenvalues --   -1.09375  -0.99598  -0.90061  -0.89585  -0.85800
 Alpha  occ. eigenvalues --   -0.77659  -0.75817  -0.74025  -0.73030  -0.69410
 Alpha  occ. eigenvalues --   -0.66307  -0.63682  -0.61027  -0.59901  -0.57687
 Alpha  occ. eigenvalues --   -0.55913  -0.52473  -0.50709  -0.50379  -0.49018
 Alpha  occ. eigenvalues --   -0.48173  -0.47603  -0.44873  -0.44194  -0.43996
 Alpha  occ. eigenvalues --   -0.43587  -0.42483  -0.41561  -0.40534  -0.39494
 Alpha  occ. eigenvalues --   -0.39116  -0.38784  -0.37301  -0.36218  -0.35781
 Alpha  occ. eigenvalues --   -0.35559  -0.35043  -0.34790  -0.30383  -0.28132
 Alpha  occ. eigenvalues --   -0.27688  -0.27387  -0.26970  -0.25041  -0.24155
 Alpha virt. eigenvalues --   -0.01532  -0.01047  -0.00222  -0.00131   0.09042
 Alpha virt. eigenvalues --    0.10114   0.11689   0.11795   0.12451   0.12946
 Alpha virt. eigenvalues --    0.13746   0.14029   0.14547   0.15413   0.15695

 Mulliken atomic charges:
              1
     1  C   -0.202356
     2  O   -0.464676
     3  C    0.670186
     4  N   -0.524981
     5  C    0.604095
     6  N   -0.538305
     7  C    0.630380
     8  N   -0.550438
     9  O   -0.470548
    10  C   -0.197667
    11  O   -0.532497
    12  C    0.339721
    13  C   -0.136221
    14  C   -0.142760
    15  C   -0.093585
    16  C   -0.208936
    17  C    0.186105
    18  C   -0.534143
    19  H    0.156598
    20  H    0.166880
    21  H    0.166265
    22  H    0.159216
    23  H    0.154899
    24  H    0.149097
    25  H    0.174916
    26  H    0.162525
    27  H    0.162929
    28  H    0.149392
    29  H    0.161412
    30  H    0.197918
    31  H    0.204579
 Sum of Mulliken atomic charges =  -0.00000

 Dipole moment (field-independent basis, Debye):
    X=              6.9327    Y=              1.7753    Z=              0.4604  Tot=              7.1712
 Quadrupole moment (field-independent basis, Debye-Ang):
   XX=            -80.4906   YY=           -108.8595   ZZ=            -93.9842
   XY=              2.7481   XZ=             -1.2485   YZ=             -2.2508

 Summary of Natural Population Analysis:

                                       Natural Population
                Natural  -----------------------------------------------
    Atom  No    Charge         Core      Valence    Rydberg      Total
 -----------------------------------------------------------------------
      C    1   -0.31790      1.99941     4.30485    0.01363     6.31790
      O    2   -0.50816      1.99972     6.49636    0.01208     8.50816
      C    3    0.76603      1.99921     3.19713    0.03764     5.23397
      N    4   -0.59622      1.99924     5.57389    0.02310     7.59622
      C    5    0.65488      1.99916     3.30910    0.03685     5.34512
      N    6   -0.61382      1.99922     5.59659    0.01800     7.61382
      C    7    0.69464      1.99923     3.26977    0.03636     5.30536
      N    8   -0.65139      1.99926     5.62987    0.02226     7.65139
      O    9   -0.51460      1.99972     6.50275    0.01212     8.51460
      C   10   -0.31551      1.99942     4.30251    0.01358     6.31551
      O   11   -0.50923      1.99966     6.49766    0.01191     8.50923
      C   12    0.40505      1.99863     3.57238    0.02394     5.59495
      C   13   -0.26267      1.99900     4.24624    0.01744     6.26267
      C   14   -0.20126      1.99913     4.18630    0.01582     6.20126
      C   15   -0.15382      1.99912     4.13928    0.01542     6.15382
      C   16   -0.25153      1.99908     4.23676    0.01569     6.25153
      C   17    0.00669      1.99893     3.97870    0.01568     5.99331
      C   18   -0.70395      1.99939     4.69620    0.00836     6.70395
      H   19    0.21761      0.00000     0.78172    0.00067     0.78239
      H   20    0.21831      0.00000     0.78017    0.00151     0.78169
      H   21    0.21799      0.00000     0.78049    0.00152     0.78201
      H   22    0.21960      0.00000     0.77977    0.00063     0.78040
      H   23    0.20962      0.00000     0.78852    0.00185     0.79038
      H   24    0.20585      0.00000     0.79202    0.00213     0.79415
      H   25    0.26391      0.00000     0.73523    0.00086     0.73609
      H   26    0.24701      0.00000     0.75226    0.00073     0.75299
      H   27    0.24488      0.00000     0.75440    0.00072     0.75512
      H   28    0.24399      0.00000     0.75511    0.00090     0.75601
      H   29    0.24236      0.00000     0.75682    0.00082     0.75764
      H   30    0.26895      0.00000     0.72993    0.00113     0.73105
      H   31    0.27268      0.00000     0.72585    0.00147     0.72732
 =======================================================================
   * Total *   -0.00000     35.98652    93.64864    0.36484   130.00000

 Normal termination of Gaussian 09 at Wed Sep 29 01:48:31 2021.
