 Gaussian 09, Revision A.02,

 -----------------------------------
 #p opt b3lyp/6-31G* scf=(xqc,tight)
 -----------------------------------

 -------------------------
 COCOc1cccc2c1cccc2_conf_0
 -------------------------
 Symbolic Z-matrix:
 Charge =  0 Multiplicity = 1

 SCF Done:  E(RB3LYP) =  -614.931500430     A.U. after   15 cycles
 SCF Done:  E(RB3LYP) =  -614.936791941     A.U. after   12 cycles
 SCF Done:  E(RB3LYP) =  -614.937358246     A.U. after   11 cycles
 SCF Done:  E(RB3LYP) =  -614.937422699     A.U. after   11 cycles
 SCF Done:  E(RB3LYP) =  -614.937436747     A.U. after   10 cycles
 SCF Done:  E(RB3LYP) =  -614.937439522     A.U. after    8 cycles
 SCF Done:  E(RB3LYP) =  -614.937440448     A.U. after    8 cycles
 SCF Done:  E(RB3LYP) =  -614.937440955     A.U. after    7 cycles
 SCF Done:  E(RB3LYP) =  -614.937441199     A.U. after    8 cycles
 SCF Done:  E(RB3LYP) =  -614.937441284     A.U. after    7 cycles
 SCF Done:  E(RB3LYP) =  -614.937441327     A.U. after    7 cycles
 SCF Done:  E(RB3LYP) =  -614.937441349     A.U. after    7 cycles
 Optimization completed.
    -- Stationary point found.
 Normal termination of Gaussian 09 at Thu Sep 30 19:13:04 2021.

 ----------------------------------------------------------------------
 #p freq b3lyp/6-31G* volume NMR pop=NPA density=current Geom=AllCheck
 Guess=Read
 ----------------------------------------------------------------------

 COCOc1cccc2c1cccc2_conf_0
 -------------------------
 Redundant internal coordinates taken from checkpoint file:
 C12H12O2_bb16_conf_0.chk
 Charge =  0 Multiplicity = 1

 SCF Done:  E(RB3LYP) =  -614.937441349     A.U. after    1 cycles

  1  C    Isotropic =   134.3389   Anisotropy =    75.2546

  2  O    Isotropic =   284.4329   Anisotropy =    39.9060

  3  C    Isotropic =    96.7245   Anisotropy =    37.0654

  4  O    Isotropic =   202.4986   Anisotropy =    62.2452

  5  C    Isotropic =    44.5514   Anisotropy =   117.3262

  6  C    Isotropic =    90.8653   Anisotropy =   130.6757

  7  C    Isotropic =    70.2651   Anisotropy =   158.3146

  8  C    Isotropic =    75.1293   Anisotropy =   134.7526

  9  C    Isotropic =    62.3291   Anisotropy =   195.9951

 10  C    Isotropic =    70.8885   Anisotropy =   175.0619

 11  C    Isotropic =    72.3073   Anisotropy =   167.4167

 12  C    Isotropic =    71.5486   Anisotropy =   160.5314

 13  C    Isotropic =    69.8433   Anisotropy =   163.0461

 14  C    Isotropic =    68.3628   Anisotropy =   144.5096

 15  H    Isotropic =    28.4709   Anisotropy =     8.4027

 16  H    Isotropic =    28.0495   Anisotropy =     7.3374

 17  H    Isotropic =    29.1241   Anisotropy =     7.3995

 18  H    Isotropic =    26.6673   Anisotropy =     4.7907

 19  H    Isotropic =    27.1195   Anisotropy =     4.6923

 20  H    Isotropic =    26.0556   Anisotropy =     8.1502

 21  H    Isotropic =    25.0146   Anisotropy =     5.1246

 22  H    Isotropic =    25.0302   Anisotropy =     6.1090

 23  H    Isotropic =    23.9020   Anisotropy =    10.2321

 24  H    Isotropic =    24.8017   Anisotropy =     5.6889

 25  H    Isotropic =    24.8080   Anisotropy =     4.9791

 26  H    Isotropic =    24.6701   Anisotropy =     6.7055

  Exact polarizability: 172.755  10.914 163.988  -4.992   4.010  57.400
 Approx polarizability: 262.291  19.535 284.379 -14.201  10.864  88.116

                     1                      2                      3
                     A                      A                      A
 Frequencies --    35.9039                63.3186               113.7696
 Red. masses --     4.4962                 2.7830                 3.5768
 Frc consts  --     0.0034                 0.0066                 0.0273
 IR Inten    --     0.7510                 1.4808                 0.7628

                     4                      5                      6
                     A                      A                      A
 Frequencies --   137.9227               155.6362               182.0606
 Red. masses --     2.3246                 1.9239                 2.9072
 Frc consts  --     0.0261                 0.0275                 0.0568
 IR Inten    --     1.1577                 3.1037                 1.8913

                     7                      8                      9
                     A                      A                      A
 Frequencies --   197.0535               273.8024               288.0569
 Red. masses --     2.6953                 4.4190                 5.0194
 Frc consts  --     0.0617                 0.1952                 0.2454
 IR Inten    --     5.9287                 0.0630                 0.2232

                    10                     11                     12
                     A                      A                      A
 Frequencies --   358.7051               432.0517               445.5339
 Red. masses --     3.7164                 3.2651                 3.2067
 Frc consts  --     0.2817                 0.3591                 0.3750
 IR Inten    --     4.5052                 2.0363                 3.4056

                    13                     14                     15
                     A                      A                      A
 Frequencies --   477.3433               481.8523               532.6895
 Red. masses --     4.1967                 3.7874                 6.6201
 Frc consts  --     0.5634                 0.5181                 1.1068
 IR Inten    --     3.2917                 2.2405                 0.2038

                    16                     17                     18
                     A                      A                      A
 Frequencies --   554.4581               585.1683               644.0395
 Red. masses --     5.6702                 3.4101                 6.3707
 Frc consts  --     1.0270                 0.6880                 1.5569
 IR Inten    --     5.5945                 4.4869                 4.6086

                    19                     20                     21
                     A                      A                      A
 Frequencies --   648.3581               747.2977               762.9490
 Red. masses --     3.6265                 1.3582                 6.3535
 Frc consts  --     0.8982                 0.4469                 2.1790
 IR Inten    --     1.8552                 0.5340                 6.7088

                    22                     23                     24
                     A                      A                      A
 Frequencies --   788.9060               802.4685               807.1277
 Red. masses --     1.6479                 5.1043                 1.9639
 Frc consts  --     0.6043                 1.9366                 0.7538
 IR Inten    --    44.3697                 3.3024                42.2685

                    25                     26                     27
                     A                      A                      A
 Frequencies --   862.0651               888.9947               889.3405
 Red. masses --     1.4654                 1.6168                 4.7508
 Frc consts  --     0.6416                 0.7528                 2.2139
 IR Inten    --     0.3469                 1.2652                 2.0049

                    28                     29                     30
                     A                      A                      A
 Frequencies --   956.7135               965.5878               976.2686
 Red. masses --     1.2915                 1.3043                 4.1428
 Frc consts  --     0.6965                 0.7165                 2.3264
 IR Inten    --     0.0696                 1.9898                31.7870

                    31                     32                     33
                     A                      A                      A
 Frequencies --   991.5763              1004.4283              1052.8316
 Red. masses --     1.2682                 7.4986                 2.5603
 Frc consts  --     0.7346                 4.4573                 1.6721
 IR Inten    --     0.0833               151.9350                23.6029

                    34                     35                     36
                     A                      A                      A
 Frequencies --  1095.6246              1121.1903              1140.3348
 Red. masses --     2.7100                 2.4399                 1.5497
 Frc consts  --     1.9167                 1.8071                 1.1873
 IR Inten    --   133.1345               146.1501                12.1999

                    37                     38                     39
                     A                      A                      A
 Frequencies --  1178.8556              1184.2976              1190.8473
 Red. masses --     1.3820                 1.2953                 1.1671
 Frc consts  --     1.1316                 1.0704                 0.9752
 IR Inten    --    14.8258                 9.0676                17.8007

                    40                     41                     42
                     A                      A                      A
 Frequencies --  1207.0100              1219.9250              1244.9770
 Red. masses --     1.6060                 1.6261                 2.0916
 Frc consts  --     1.3785                 1.4258                 1.9101
 IR Inten    --   101.3150                20.1048               115.4541

                    43                     44                     45
                     A                      A                      A
 Frequencies --  1251.0730              1278.4405              1308.3546
 Red. masses --     2.2818                 1.7351                 2.4482
 Frc consts  --     2.1042                 1.6709                 2.4691
 IR Inten    --    42.1941                42.8646               125.7506

                    46                     47                     48
                     A                      A                      A
 Frequencies --  1324.0259              1392.8364              1418.0457
 Red. masses --     1.1679                 3.4359                 5.8799
 Frc consts  --     1.2062                 3.9273                 6.9662
 IR Inten    --     3.4999                 3.2294                 0.6774

                    49                     50                     51
                     A                      A                      A
 Frequencies --  1437.5362              1458.9193              1491.3863
 Red. masses --     1.7230                 1.4544                 1.8649
 Frc consts  --     2.0978                 1.8238                 2.4439
 IR Inten    --   145.6755                 5.7386                15.8510

                    52                     53                     54
                     A                      A                      A
 Frequencies --  1502.3025              1512.8025              1515.9753
 Red. masses --     1.3727                 1.6917                 1.1910
 Frc consts  --     1.8253                 2.2811                 1.6127
 IR Inten    --    17.2534                 4.5487                 4.7894

                    55                     56                     57
                     A                      A                      A
 Frequencies --  1537.0372              1552.6114              1566.8016
 Red. masses --     1.0504                 1.1397                 3.3252
 Frc consts  --     1.4622                 1.6188                 4.8095
 IR Inten    --     6.8269                 3.8143                15.2140

                    58                     59                     60
                     A                      A                      A
 Frequencies --  1634.1496              1655.6608              1683.6085
 Red. masses --     6.5915                 5.0233                 6.1682
 Frc consts  --    10.3710                 8.1130                10.3013
 IR Inten    --    59.7036                18.0721                 6.7352

                    61                     62                     63
                     A                      A                      A
 Frequencies --  2972.3181              3019.4925              3084.0313
 Red. masses --     1.0659                 1.0437                 1.0979
 Frc consts  --     5.5484                 5.6067                 6.1524
 IR Inten    --    47.1277                52.8949                42.1287

                    64                     65                     66
                     A                      A                      A
 Frequencies --  3098.4790              3157.0504              3178.2684
 Red. masses --     1.0939                 1.1024                 1.0860
 Frc consts  --     6.1878                 6.4736                 6.4633
 IR Inten    --    33.2727                33.2551                 1.2965

                    67                     68                     69
                     A                      A                      A
 Frequencies --  3184.2325              3190.5692              3201.4323
 Red. masses --     1.0860                 1.0899                 1.0944
 Frc consts  --     6.4877                 6.5367                 6.6084
 IR Inten    --     1.5863                15.6694                35.3606

                    70                     71                     72
                     A                      A                      A
 Frequencies --  3204.8507              3226.1233              3229.5849
 Red. masses --     1.0952                 1.0919                 1.0929
 Frc consts  --     6.6274                 6.6959                 6.7160
 IR Inten    --    33.4826                16.4367                 7.8112

 - Thermochemistry -
 -------------------
 Temperature   298.150 Kelvin.  Pressure   1.00000 Atm.
 Atom     1 has atomic number  6 and mass  12.00000

 Molecular mass:   188.08373 amu.
 Principal axes and moments of inertia in atomic units:
                           1         2         3
     Eigenvalues --  1460.868324002.805905324.73149
           X            0.99996  -0.00429   0.00780
           Y            0.00433   0.99998  -0.00481
           Z           -0.00778   0.00485   0.99996
 This molecule is an asymmetric top.
 Rotational symmetry number  1.
 Warning -- assumption of classical behavior for rotation
           may cause significant error
 Rotational temperatures (Kelvin)      0.05929     0.02164     0.01627
 Rotational constants (GHZ):           1.23539     0.45087     0.33894
 Zero-point vibrational energy     561977.7 (Joules/Mol)
                                  134.31590 (Kcal/Mol)
 Warning -- explicit consideration of  17 degrees of freedom as
           vibrations may cause significant error
 Vibrational temperatures:     51.66    91.10   163.69   198.44   223.93
          (Kelvin)            261.94   283.52   393.94   414.45   516.10
                              621.63   641.02   686.79   693.28   766.42
                              797.74   841.93   926.63   932.84  1075.19
                             1097.71  1135.06  1154.57  1161.28  1240.32
                             1279.06  1279.56  1376.50  1389.26  1404.63
                             1426.66  1445.15  1514.79  1576.36  1613.14
                             1640.69  1696.11  1703.94  1713.36  1736.62
                             1755.20  1791.24  1800.01  1839.39  1882.43
                             1904.98  2003.98  2040.25  2068.29  2099.06
                             2145.77  2161.48  2176.58  2181.15  2211.45
                             2233.86  2254.28  2351.17  2382.12  2422.33
                             4276.50  4344.37  4437.23  4458.01  4542.29
                             4572.81  4581.39  4590.51  4606.14  4611.06
                             4641.67  4646.65

 Zero-point correction=                           0.214046 (Hartree/Particle)
 Thermal correction to Energy=                    0.225915
 Thermal correction to Enthalpy=                  0.226859
 Thermal correction to Gibbs Free Energy=         0.175163
 Sum of electronic and zero-point Energies=           -614.723395
 Sum of electronic and thermal Energies=              -614.711526
 Sum of electronic and thermal Enthalpies=            -614.710582
 Sum of electronic and thermal Free Energies=         -614.762278

                     E (Thermal)             CV                S
                      KCal/Mol        Cal/Mol-Kelvin    Cal/Mol-Kelvin
 Total                  141.764             45.896            108.803
 Electronic               0.000              0.000              0.000
 Translational            0.889              2.981             41.601
 Rotational               0.889              2.981             31.810
 Vibrational            139.986             39.935             35.392
 Vibration     1          0.594              1.982              5.473
 Vibration     2          0.597              1.972              4.351
 Vibration     3          0.607              1.938              3.204
 Vibration     4          0.614              1.915              2.832
 Vibration     5          0.620              1.896              2.602
 Vibration     6          0.630              1.864              2.307
 Vibration     7          0.636              1.844              2.160
 Vibration     8          0.676              1.722              1.572
 Vibration     9          0.685              1.696              1.485
 Vibration    10          0.734              1.557              1.128
 Vibration    11          0.793              1.400              0.852
 Vibration    12          0.805              1.371              0.809
 Vibration    13          0.834              1.300              0.717
 Vibration    14          0.838              1.290              0.705
 Vibration    15          0.888              1.178              0.581
 Vibration    16          0.910              1.130              0.535
 Vibration    17          0.942              1.063              0.476

 Optimization completed.
    -- Stationary point found.
 Normal termination of Gaussian 09 at Thu Sep 30 20:02:27 2021.
 Gaussian 09:  AM64L-G09RevA.02 11-Jun-2009

 ----------------------------------------------------------------------
 #p TD(NStates=10, Root=1) b3lyp/6-31G* volume pop=NPA density=current
 Geom=AllCheck Guess=Read
 ----------------------------------------------------------------------

 COCOc1cccc2c1cccc2_conf_0
 -------------------------
 Redundant internal coordinates taken from checkpoint file:
 C12H12O2_bb16_conf_0.chk
 Charge =  0 Multiplicity = 1

                         Standard orientation:
 ---------------------------------------------------------------------
 Center     Atomic      Atomic             Coordinates (Angstroms)
 Number     Number       Type             X           Y           Z
 ---------------------------------------------------------------------
      1          6           0        3.966189   -1.191823    0.740988
      2          8           0        3.786758   -0.370296   -0.408266
      3          6           0        2.764660    0.548340   -0.290721
      4          8           0        1.515206   -0.141349   -0.296362
      5          6           0        0.367340    0.580449   -0.135790
      6          6           0        0.319116    1.958653   -0.038333
      7          6           0       -0.927219    2.613023    0.125658
      8          6           0       -2.100517    1.902698    0.188830
      9          6           0       -2.083520    0.483885    0.086371
     10          6           0       -0.835834   -0.196826   -0.079956
     11          6           0       -0.823900   -1.611270   -0.186076
     12          6           0       -1.999295   -2.328531   -0.127012
     13          6           0       -3.235580   -1.661874    0.040094
     14          6           0       -3.273747   -0.289133    0.143396
     15          1           0        4.861072   -1.789883    0.557117
     16          1           0        3.108704   -1.855047    0.899521
     17          1           0        4.118192   -0.579689    1.642814
     18          1           0        2.829637    1.212354   -1.160556
     19          1           0        2.842732    1.133498    0.642239
     20          1           0        1.221878    2.556327   -0.089873
     21          1           0       -0.940156    3.697101    0.200333
     22          1           0       -3.052566    2.411396    0.315100
     23          1           0        0.125971   -2.116772   -0.319668
     24          1           0       -1.978377   -3.411819   -0.210365
     25          1           0       -4.156568   -2.237153    0.085442
     26          1           0       -4.222396    0.227300    0.270229
 ---------------------------------------------------------------------

 SCF Done:  E(RB3LYP) =  -614.937441349     A.U. after    1 cycles

 Excitation energies and oscillator strengths:

 Excited State   1:      Singlet-A      4.2603 eV  291.02 nm  f=0.0977  <S**2>=0.000
      49 -> 52        -0.13035
      50 -> 51         0.68720
 This state for optimization and/or second-order correction.
 Total Energy, E(TD-HF/TD-KS) =  -614.780878330
 Copying the excited state density for this state as the 1-particle RhoCI density.

 Excited State   2:      Singlet-A      4.4500 eV  278.61 nm  f=0.0166  <S**2>=0.000
      49 -> 51         0.42316
      50 -> 52         0.56312

 Excited State   3:      Singlet-A      5.5703 eV  222.58 nm  f=0.0201  <S**2>=0.000
      48 -> 51         0.58736
      49 -> 51        -0.10843
      49 -> 52         0.15079
      50 -> 53         0.32384

 Excited State   4:      Singlet-A      5.7659 eV  215.03 nm  f=0.4868  <S**2>=0.000
      48 -> 52        -0.34173
      49 -> 51         0.44870
      49 -> 53         0.12837
      50 -> 52        -0.35377
      50 -> 53         0.13185

 Excited State   5:      Singlet-A      6.1973 eV  200.06 nm  f=0.1958  <S**2>=0.000
      47 -> 51        -0.21402
      48 -> 51        -0.22621
      48 -> 52         0.39860
      49 -> 51         0.17807
      49 -> 53        -0.17936
      50 -> 52        -0.11149
      50 -> 53         0.39567

 Excited State   6:      Singlet-A      6.2684 eV  197.79 nm  f=0.2299  <S**2>=0.000
      48 -> 51        -0.13788
      48 -> 53         0.16985
      49 -> 52         0.65319
      50 -> 51         0.12046

 Excited State   7:      Singlet-A      6.2830 eV  197.33 nm  f=0.0335  <S**2>=0.000
      47 -> 51         0.66615
      48 -> 52         0.11273
      50 -> 53         0.13483

 Excited State   8:      Singlet-A      6.3477 eV  195.32 nm  f=0.3492  <S**2>=0.000
      46 -> 51         0.15711
      48 -> 51        -0.24199
      48 -> 52        -0.32370
      49 -> 51        -0.25072
      49 -> 53         0.16413
      50 -> 52         0.18872
      50 -> 53         0.41494

 Excited State   9:      Singlet-A      6.9386 eV  178.69 nm  f=0.0001  <S**2>=0.000
      47 -> 52         0.69050

 Excited State  10:      Singlet-A      6.9623 eV  178.08 nm  f=0.0001  <S**2>=0.000
      44 -> 51         0.58717
      45 -> 51         0.36527

 The electronic state is 1-A.
 Alpha  occ. eigenvalues --  -19.18010 -19.16652 -10.29290 -10.25080 -10.23427
 Alpha  occ. eigenvalues --  -10.19503 -10.19370 -10.18997 -10.18749 -10.18690
 Alpha  occ. eigenvalues --  -10.18616 -10.18575 -10.18478 -10.18132  -1.08917
 Alpha  occ. eigenvalues --   -1.03323  -0.86571  -0.81477  -0.77041  -0.74047
 Alpha  occ. eigenvalues --   -0.73156  -0.70890  -0.65666  -0.61784  -0.60817
 Alpha  occ. eigenvalues --   -0.58602  -0.53764  -0.52039  -0.51175  -0.49881
 Alpha  occ. eigenvalues --   -0.49202  -0.47532  -0.43993  -0.43872  -0.42503
 Alpha  occ. eigenvalues --   -0.42227  -0.41877  -0.40164  -0.38900  -0.37585
 Alpha  occ. eigenvalues --   -0.36255  -0.35265  -0.33768  -0.32696  -0.32604
 Alpha  occ. eigenvalues --   -0.31139  -0.28227  -0.25931  -0.24020  -0.20046
 Alpha virt. eigenvalues --   -0.02884  -0.00538   0.04423   0.09139   0.09565
 Alpha virt. eigenvalues --    0.10387   0.10600   0.12318   0.13272   0.13547
 Alpha virt. eigenvalues --    0.14849   0.15276   0.17089   0.17436   0.17851

 Mulliken atomic charges:
              1
     1  C   -0.219527
     2  O   -0.445645
     3  C    0.182974
     4  O   -0.480522
     5  C    0.307620
     6  C   -0.188789
     7  C   -0.142404
     8  C   -0.174428
     9  C    0.141766
    10  C    0.080903
    11  C   -0.221967
    12  C   -0.134274
    13  C   -0.131448
    14  C   -0.245045
    15  H    0.171156
    16  H    0.170892
    17  H    0.138846
    18  H    0.165840
    19  H    0.135330
    20  H    0.142624
    21  H    0.137722
    22  H    0.143692
    23  H    0.126177
    24  H    0.117047
    25  H    0.114020
    26  H    0.107439
 Sum of Mulliken atomic charges =  -0.00000

 Dipole moment (field-independent basis, Debye):
    X=              2.4791    Y=              2.1682    Z=              1.2041  Tot=              3.5067
 Quadrupole moment (field-independent basis, Debye-Ang):
   XX=            -76.1488   YY=            -73.1152   ZZ=            -84.9353
   XY=             -2.3772   XZ=              3.9836   YZ=             -1.1495

 Summary of Natural Population Analysis:

                                       Natural Population
                Natural  -----------------------------------------------
    Atom  No    Charge         Core      Valence    Rydberg      Total
 -----------------------------------------------------------------------
      C    1   -0.32151      1.99944     4.30777    0.01430     6.32151
      O    2   -0.55754      1.99979     6.54518    0.01256     8.55754
      C    3    0.21003      1.99938     3.76316    0.02742     5.78997
      O    4   -0.49016      1.99973     6.47812    0.01232     8.49016
      C    5    0.36045      1.99875     3.61823    0.02257     5.63955
      C    6   -0.29635      1.99904     4.28417    0.01314     6.29635
      C    7   -0.22985      1.99913     4.21485    0.01588     6.22985
      C    8   -0.15614      1.99904     4.14226    0.01483     6.15614
      C    9   -0.05954      1.99904     4.04515    0.01535     6.05954
      C   10   -0.07375      1.99898     4.05937    0.01539     6.07375
      C   11   -0.29442      1.99907     4.27730    0.01805     6.29442
      C   12   -0.21823      1.99911     4.20346    0.01567     6.21823
      C   13   -0.24512      1.99911     4.23025    0.01577     6.24512
      C   14   -0.28754      1.99906     4.27149    0.01699     6.28754
      H   15    0.22647      0.00000     0.77294    0.00059     0.77353
      H   16    0.21252      0.00000     0.78562    0.00186     0.78748
      H   17    0.19349      0.00000     0.80478    0.00173     0.80651
      H   18    0.21602      0.00000     0.78217    0.00181     0.78398
      H   19    0.18211      0.00000     0.81495    0.00294     0.81789
      H   20    0.23649      0.00000     0.76258    0.00093     0.76351
      H   21    0.23926      0.00000     0.75991    0.00083     0.76074
      H   22    0.23669      0.00000     0.76218    0.00113     0.76331
      H   23    0.23599      0.00000     0.76289    0.00113     0.76401
      H   24    0.22897      0.00000     0.77016    0.00087     0.77103
      H   25    0.22918      0.00000     0.76999    0.00083     0.77082
      H   26    0.22246      0.00000     0.77642    0.00112     0.77754
 =======================================================================
   * Total *   -0.00000     27.98867    71.76533    0.24600   100.00000

 Normal termination of Gaussian 09 at Thu Sep 30 23:49:45 2021.
