 Gaussian 09, Revision A.02,

 -----------------------------------
 #p opt b3lyp/6-31G* scf=(xqc,tight)
 -----------------------------------

 --------------------------
 COc1ccc2c(c1C)cccc2_conf_0
 --------------------------
 Symbolic Z-matrix:
 Charge =  0 Multiplicity = 1

 SCF Done:  E(RB3LYP) =  -539.718928374     A.U. after   14 cycles
 SCF Done:  E(RB3LYP) =  -539.724213917     A.U. after   12 cycles
 SCF Done:  E(RB3LYP) =  -539.725038129     A.U. after   11 cycles
 SCF Done:  E(RB3LYP) =  -539.726050269     A.U. after   13 cycles
 SCF Done:  E(RB3LYP) =  -539.726567009     A.U. after   13 cycles
 SCF Done:  E(RB3LYP) =  -539.726963642     A.U. after   11 cycles
 SCF Done:  E(RB3LYP) =  -539.727040742     A.U. after   11 cycles
 SCF Done:  E(RB3LYP) =  -539.727111197     A.U. after   12 cycles
 SCF Done:  E(RB3LYP) =  -539.727194822     A.U. after   12 cycles
 SCF Done:  E(RB3LYP) =  -539.727265688     A.U. after   12 cycles
 SCF Done:  E(RB3LYP) =  -539.729150493     A.U. after   15 cycles
 SCF Done:  E(RB3LYP) =  -539.729390742     A.U. after   15 cycles
 SCF Done:  E(RB3LYP) =  -539.729381055     A.U. after   11 cycles
 SCF Done:  E(RB3LYP) =  -539.729550275     A.U. after   15 cycles
 SCF Done:  E(RB3LYP) =  -539.729616230     A.U. after   15 cycles
 SCF Done:  E(RB3LYP) =  -539.729650333     A.U. after   10 cycles
 SCF Done:  E(RB3LYP) =  -539.729665131     A.U. after   10 cycles
 SCF Done:  E(RB3LYP) =  -539.729670266     A.U. after    9 cycles
 Optimization completed.
    -- Stationary point found.
 Normal termination of Gaussian 09 at Tue Sep 28 17:42:14 2021.

 ----------------------------------------------------------------------
 #p freq b3lyp/6-31G* volume NMR pop=NPA density=current Geom=AllCheck
 Guess=Read
 ----------------------------------------------------------------------

 COc1ccc2c(c1C)cccc2_conf_0
 --------------------------
 Redundant internal coordinates taken from checkpoint file:
 C12H12O_8814_conf_0.chk
 Charge =  0 Multiplicity = 1

 SCF Done:  E(RB3LYP) =  -539.729670266     A.U. after    1 cycles

  1  C    Isotropic =   137.1721   Anisotropy =    64.8603

  2  O    Isotropic =   241.7459   Anisotropy =    79.0886

  3  C    Isotropic =    43.5452   Anisotropy =   118.4741

  4  C    Isotropic =    84.8443   Anisotropy =   143.9940

  5  C    Isotropic =    67.8334   Anisotropy =   140.6901

  6  C    Isotropic =    68.1943   Anisotropy =   192.2880

  7  C    Isotropic =    62.4890   Anisotropy =   191.1108

  8  C    Isotropic =    75.4878   Anisotropy =   135.3499

  9  C    Isotropic =   178.0594   Anisotropy =    11.7293

 10  C    Isotropic =    71.9394   Anisotropy =   155.8645

 11  C    Isotropic =    70.1160   Anisotropy =   160.6157

 12  C    Isotropic =    73.2986   Anisotropy =   157.5408

 13  C    Isotropic =    67.1949   Anisotropy =   144.3914

 14  H    Isotropic =    28.1598   Anisotropy =     8.4058

 15  H    Isotropic =    28.4764   Anisotropy =     8.7103

 16  H    Isotropic =    28.4764   Anisotropy =     8.7130

 17  H    Isotropic =    25.3523   Anisotropy =     8.2423

 18  H    Isotropic =    24.6912   Anisotropy =     6.9098

 19  H    Isotropic =    30.0704   Anisotropy =     9.1188

 20  H    Isotropic =    29.1955   Anisotropy =     7.5943

 21  H    Isotropic =    30.0701   Anisotropy =     9.1138

 22  H    Isotropic =    24.4257   Anisotropy =    10.3114

 23  H    Isotropic =    24.8103   Anisotropy =     5.5620

 24  H    Isotropic =    24.9811   Anisotropy =     4.8323

 25  H    Isotropic =    24.6659   Anisotropy =     6.8552

  Exact polarizability: 199.829   5.448 139.320   0.008   0.009  53.690
 Approx polarizability: 317.253  11.303 241.317   0.021   0.014  82.103

                     1                      2                      3
                     A                      A                      A
 Frequencies --    61.2354               103.8120               132.5762
 Red. masses --     3.1058                 1.9796                 2.5736
 Frc consts  --     0.0069                 0.0126                 0.0267
 IR Inten    --     3.0888                 0.8006                 0.7305

                     4                      5                      6
                     A                      A                      A
 Frequencies --   151.2304               213.8088               221.1586
 Red. masses --     1.6283                 2.5964                 3.4849
 Frc consts  --     0.0219                 0.0699                 0.1004
 IR Inten    --     0.4024                 2.3281                 1.8112

                     7                      8                      9
                     A                      A                      A
 Frequencies --   271.2638               300.0624               337.5791
 Red. masses --     1.2905                 2.9982                 3.6747
 Frc consts  --     0.0560                 0.1590                 0.2467
 IR Inten    --     0.9425                 0.7551                 0.0629

                    10                     11                     12
                     A                      A                      A
 Frequencies --   363.4490               428.5722               438.9342
 Red. masses --     4.4236                 3.2618                 4.5753
 Frc consts  --     0.3443                 0.3530                 0.5194
 IR Inten    --     0.1658                 2.3426                 0.5772

                    13                     14                     15
                     A                      A                      A
 Frequencies --   488.5323               538.2921               545.1716
 Red. masses --     5.2941                 3.0987                 3.4491
 Frc consts  --     0.7444                 0.5290                 0.6040
 IR Inten    --     4.2733                 4.0382                 0.2236

                    16                     17                     18
                     A                      A                      A
 Frequencies --   554.5764               605.8324               669.5806
 Red. masses --     5.2409                 4.9889                 3.2837
 Frc consts  --     0.9497                 1.0789                 0.8674
 IR Inten    --     6.0585                 0.4483                 0.0173

                    19                     20                     21
                     A                      A                      A
 Frequencies --   703.7360               728.9284               761.1027
 Red. masses --     5.3359                 5.5763                 1.4244
 Frc consts  --     1.5570                 1.7457                 0.4862
 IR Inten    --    12.2116                 0.9034                13.3261

                    22                     23                     24
                     A                      A                      A
 Frequencies --   781.4395               820.3263               872.7529
 Red. masses --     2.9707                 1.4857                 4.1466
 Frc consts  --     1.0688                 0.5891                 1.8609
 IR Inten    --    10.3824                50.6027                 0.1112

                    25                     26                     27
                     A                      A                      A
 Frequencies --   876.8431               888.3947               939.0369
 Red. masses --     1.6037                 3.2699                 1.2650
 Frc consts  --     0.7265                 1.5205                 0.6572
 IR Inten    --     1.3327                 7.0693                 0.0007

                    28                     29                     30
                     A                      A                      A
 Frequencies --   954.3062               985.9294              1046.7240
 Red. masses --     1.3361                 1.2618                 2.2650
 Frc consts  --     0.7169                 0.7226                 1.4621
 IR Inten    --     1.5886                 0.0027                 2.8054

                    31                     32                     33
                     A                      A                      A
 Frequencies --  1059.6444              1072.3411              1083.6032
 Red. masses --     2.8615                 1.4768                 2.8792
 Frc consts  --     1.8931                 1.0005                 1.9918
 IR Inten    --     9.1568                 0.1342                 0.1476

                    34                     35                     36
                     A                      A                      A
 Frequencies --  1143.2781              1185.0430              1185.4497
 Red. masses --     3.0687                 1.2672                 1.3531
 Frc consts  --     2.3633                 1.0485                 1.1203
 IR Inten    --   110.7316                 0.7980                11.0493

                    37                     38                     39
                     A                      A                      A
 Frequencies --  1193.5953              1213.5967              1219.7465
 Red. masses --     1.2485                 1.5478                 1.3959
 Frc consts  --     1.0480                 1.3431                 1.2236
 IR Inten    --    14.1729                10.3637                 5.8872

                    40                     41                     42
                     A                      A                      A
 Frequencies --  1257.4141              1291.7894              1306.3875
 Red. masses --     2.0107                 2.0471                 2.7888
 Frc consts  --     1.8731                 2.0126                 2.8042
 IR Inten    --     3.8413                93.6020               229.6236

                    43                     44                     45
                     A                      A                      A
 Frequencies --  1386.8842              1412.3741              1428.6863
 Red. masses --     3.4671                 6.7415                 2.7242
 Frc consts  --     3.9291                 7.9233                 3.2762
 IR Inten    --    17.9156                 6.0069                19.4541

                    46                     47                     48
                     A                      A                      A
 Frequencies --  1437.0919              1479.8574              1500.6077
 Red. masses --     1.2665                 2.3059                 1.3807
 Frc consts  --     1.5411                 2.9753                 1.8318
 IR Inten    --     4.6716                 7.6915                16.3581

                    49                     50                     51
                     A                      A                      A
 Frequencies --  1518.7420              1524.3023              1528.9563
 Red. masses --     1.2984                 1.0482                 1.0451
 Frc consts  --     1.7646                 1.4350                 1.4395
 IR Inten    --     5.5283                 3.8703                 7.6665

                    52                     53                     54
                     A                      A                      A
 Frequencies --  1530.1002              1538.1703              1565.7929
 Red. masses --     1.4232                 1.1078                 3.1934
 Frc consts  --     1.9631                 1.5442                 4.6129
 IR Inten    --    42.6937                22.8694                41.2608

                    55                     56                     57
                     A                      A                      A
 Frequencies --  1628.4392              1658.4564              1681.1427
 Red. masses --     7.0370                 5.4112                 5.9888
 Frc consts  --    10.9947                 8.7690                 9.9724
 IR Inten    --     0.0398                54.3167                35.0459

                    58                     59                     60
                     A                      A                      A
 Frequencies --  3023.4138              3041.8693              3081.9310
 Red. masses --     1.0348                 1.0426                 1.1067
 Frc consts  --     5.5730                 5.6841                 6.1931
 IR Inten    --    75.9976                27.5643                42.9793

                    61                     62                     63
                     A                      A                      A
 Frequencies --  3086.0979              3151.8378              3173.4480
 Red. masses --     1.1007                 1.0995                 1.0945
 Frc consts  --     6.1762                 6.4354                 6.4944
 IR Inten    --    24.3100                29.8107                 7.4694

                    64                     65                     66
                     A                      A                      A
 Frequencies --  3175.0762              3184.4317              3186.7147
 Red. masses --     1.0865                 1.0888                 1.0889
 Frc consts  --     6.4533                 6.5054                 6.5149
 IR Inten    --     2.1633                 3.4809                23.8098

                    67                     68                     69
                     A                      A                      A
 Frequencies --  3203.7937              3217.8013              3231.8295
 Red. masses --     1.0943                 1.0935                 1.0910
 Frc consts  --     6.6180                 6.6707                 6.7139
 IR Inten    --    35.3072                19.5406                14.1814

 - Thermochemistry -
 -------------------
 Temperature   298.150 Kelvin.  Pressure   1.00000 Atm.
 Atom     1 has atomic number  6 and mass  12.00000

 Molecular mass:   172.08882 amu.
 Principal axes and moments of inertia in atomic units:
                           1         2         3
     Eigenvalues --   996.638273209.387594183.28929
           X            0.99997   0.00765  -0.00000
           Y           -0.00765   0.99997  -0.00000
           Z            0.00000   0.00000   1.00000
 This molecule is an asymmetric top.
 Rotational symmetry number  1.
 Warning -- assumption of classical behavior for rotation
           may cause significant error
 Rotational temperatures (Kelvin)      0.08691     0.02699     0.02070
 Rotational constants (GHZ):           1.81083     0.56233     0.43142
 Zero-point vibrational energy     547739.7 (Joules/Mol)
                                  130.91293 (Kcal/Mol)
 Warning -- explicit consideration of  17 degrees of freedom as
           vibrations may cause significant error
 Vibrational temperatures:     88.10   149.36   190.75   217.59   307.62
          (Kelvin)            318.20   390.29   431.72   485.70   522.92
                              616.62   631.53   702.89   774.48   784.38
                              797.91   871.66   963.38  1012.52  1048.76
                             1095.06  1124.32  1180.27  1255.70  1261.58
                             1278.20  1351.06  1373.03  1418.53  1506.00
                             1524.59  1542.86  1559.06  1644.92  1705.01
                             1705.60  1717.32  1746.09  1754.94  1809.14
                             1858.59  1879.60  1995.41  2032.09  2055.56
                             2067.65  2129.18  2159.04  2185.13  2193.13
                             2199.82  2201.47  2213.08  2252.82  2342.96
                             2386.15  2418.79  4350.01  4376.57  4434.21
                             4440.20  4534.79  4565.88  4568.22  4581.68
                             4584.97  4609.54  4629.69  4649.88

 Zero-point correction=                           0.208623 (Hartree/Particle)
 Thermal correction to Energy=                    0.219716
 Thermal correction to Enthalpy=                  0.220660
 Thermal correction to Gibbs Free Energy=         0.171906
 Sum of electronic and zero-point Energies=           -539.521047
 Sum of electronic and thermal Energies=              -539.509955
 Sum of electronic and thermal Enthalpies=            -539.509010
 Sum of electronic and thermal Free Energies=         -539.557765

                     E (Thermal)             CV                S
                      KCal/Mol        Cal/Mol-Kelvin    Cal/Mol-Kelvin
 Total                  137.874             43.843            102.612
 Electronic               0.000              0.000              0.000
 Translational            0.889              2.981             41.336
 Rotational               0.889              2.981             30.971
 Vibrational            136.096             37.881             30.305
 Vibration     1          0.597              1.973              4.417
 Vibration     2          0.605              1.946              3.381
 Vibration     3          0.613              1.921              2.908
 Vibration     4          0.619              1.901              2.657
 Vibration     5          0.644              1.820              2.011
 Vibration     6          0.648              1.809              1.950
 Vibration     7          0.675              1.726              1.588
 Vibration     8          0.693              1.674              1.417
 Vibration     9          0.718              1.600              1.224
 Vibration    10          0.737              1.548              1.107
 Vibration    11          0.790              1.408              0.863
 Vibration    12          0.799              1.385              0.830
 Vibration    13          0.844              1.275              0.687
 Vibration    14          0.893              1.165              0.569
 Vibration    15          0.900              1.150              0.554
 Vibration    16          0.910              1.130              0.535
 Vibration    17          0.964              1.019              0.440

 Normal termination of Gaussian 09 at Tue Sep 28 18:22:25 2021.
 Gaussian 09:  AM64L-G09RevA.02 11-Jun-2009

 ----------------------------------------------------------------------
 #p TD(NStates=10, Root=1) b3lyp/6-31G* volume pop=NPA density=current
 Geom=AllCheck Guess=Read
 ----------------------------------------------------------------------

 COc1ccc2c(c1C)cccc2_conf_0
 --------------------------
 Redundant internal coordinates taken from checkpoint file:
 C12H12O_8814_conf_0.chk
 Charge =  0 Multiplicity = 1

                         Standard orientation:
 ---------------------------------------------------------------------
 Center     Atomic      Atomic             Coordinates (Angstroms)
 Number     Number       Type             X           Y           Z
 ---------------------------------------------------------------------
      1          6           0       -3.948456   -0.493300    0.000757
      2          8           0       -2.868240    0.422825    0.000536
      3          6           0       -1.582963   -0.057761   -0.000293
      4          6           0       -1.296808   -1.447792   -0.000569
      5          6           0        0.005971   -1.886353   -0.000444
      6          6           0        1.084144   -0.968843   -0.000120
      7          6           0        0.792154    0.436159   -0.000083
      8          6           0       -0.562411    0.889011   -0.000473
      9          6           0       -0.884894    2.364541   -0.000649
     10          6           0        1.893413    1.341341    0.000225
     11          6           0        3.192881    0.886464    0.000465
     12          6           0        3.473175   -0.501698    0.000330
     13          6           0        2.436304   -1.405066    0.000111
     14          1           0       -4.854378    0.116329    0.001432
     15          1           0       -3.944515   -1.130456    0.895345
     16          1           0       -3.944890   -1.129844   -0.894203
     17          1           0       -2.103915   -2.170955   -0.001140
     18          1           0        0.219264   -2.952628   -0.000766
     19          1           0       -0.467804    2.865290    0.882399
     20          1           0       -1.962670    2.526946   -0.002133
     21          1           0       -0.465250    2.865240   -0.882505
     22          1           0        1.702546    2.409357    0.000428
     23          1           0        4.013854    1.598935    0.000821
     24          1           0        4.503628   -0.846337    0.000432
     25          1           0        2.635003   -2.474694    0.000058
 ---------------------------------------------------------------------

 SCF Done:  E(RB3LYP) =  -539.729670266     A.U. after    3 cycles

 Excitation energies and oscillator strengths:

 Excited State   1:      Singlet-A      4.0138 eV  308.90 nm  f=0.0701  <S**2>=0.000
      45 -> 47         0.11938
      45 -> 48         0.14577
      46 -> 47         0.66495
      46 -> 48        -0.13397
 This state for optimization and/or second-order correction.
 Total Energy, E(TD-HF/TD-KS) =  -539.582166048
 Copying the excited state density for this state as the 1-particle RhoCI density.

 Excited State   2:      Singlet-A      4.4636 eV  277.77 nm  f=0.0095  <S**2>=0.000
      45 -> 47         0.50101
      46 -> 47        -0.18402
      46 -> 48        -0.45468

 Excited State   3:      Singlet-A      5.4817 eV  226.18 nm  f=0.1247  <S**2>=0.000
      44 -> 47         0.51720
      45 -> 47         0.23084
      46 -> 48         0.18101
      46 -> 49        -0.36214

 Excited State   4:      Singlet-A      5.7258 eV  216.54 nm  f=0.9726  <S**2>=0.000
      44 -> 47        -0.21363
      45 -> 47         0.38622
      45 -> 48         0.20641
      46 -> 48         0.47481
      46 -> 49         0.12198

 Excited State   5:      Singlet-A      5.9069 eV  209.90 nm  f=0.1177  <S**2>=0.000
      43 -> 47        -0.19924
      44 -> 47         0.16291
      44 -> 48        -0.20552
      45 -> 47         0.12667
      45 -> 48        -0.34719
      45 -> 49         0.15577
      46 -> 49         0.45498

 Excited State   6:      Singlet-A      6.1538 eV  201.47 nm  f=0.1146  <S**2>=0.000
      44 -> 47         0.32120
      44 -> 49         0.12892
      45 -> 48         0.50908
      45 -> 49         0.12301
      46 -> 49         0.26562

 Excited State   7:      Singlet-A      6.4634 eV  191.83 nm  f=0.0378  <S**2>=0.000
      43 -> 47         0.12737
      44 -> 47        -0.20211
      44 -> 48        -0.36401
      45 -> 49         0.50512
      46 -> 49        -0.18747

 Excited State   8:      Singlet-A      6.6083 eV  187.62 nm  f=0.0000  <S**2>=0.000
      41 -> 47        -0.11197
      42 -> 47         0.69108

 Excited State   9:      Singlet-A      6.6224 eV  187.22 nm  f=0.0564  <S**2>=0.000
      43 -> 47         0.58644
      44 -> 48         0.25720
      45 -> 48        -0.14332
      45 -> 49         0.13992
      46 -> 49         0.17501

 Excited State  10:      Singlet-A      7.0510 eV  175.84 nm  f=0.0016  <S**2>=0.000
      46 -> 50         0.67047
      46 -> 52        -0.16532

 The electronic state is 1-A.
 Alpha  occ. eigenvalues --  -19.17469 -10.24258 -10.24125 -10.19042 -10.18788
 Alpha  occ. eigenvalues --  -10.18758 -10.18706 -10.18702 -10.18398 -10.18384
 Alpha  occ. eigenvalues --  -10.18169 -10.18053 -10.17231  -1.06003  -0.86469
 Alpha  occ. eigenvalues --   -0.81334  -0.78043  -0.73960  -0.72856  -0.70097
 Alpha  occ. eigenvalues --   -0.66846  -0.61710  -0.59583  -0.57191  -0.52703
 Alpha  occ. eigenvalues --   -0.50926  -0.49869  -0.46753  -0.46056  -0.44278
 Alpha  occ. eigenvalues --   -0.43056  -0.42192  -0.41339  -0.40614  -0.39846
 Alpha  occ. eigenvalues --   -0.37871  -0.37211  -0.37107  -0.34572  -0.33691
 Alpha  occ. eigenvalues --   -0.33315  -0.31402  -0.29707  -0.26414  -0.22672
 Alpha  occ. eigenvalues --   -0.19496
 Alpha virt. eigenvalues --   -0.03167   0.00518   0.04266   0.09545   0.10506
 Alpha virt. eigenvalues --    0.10882   0.10933   0.13279   0.14014   0.15156
 Alpha virt. eigenvalues --    0.16423   0.16545   0.17589   0.18025   0.18294

 Mulliken atomic charges:
              1
     1  C   -0.223783
     2  O   -0.472160
     3  C    0.325436
     4  C   -0.213599
     5  C   -0.218385
     6  C    0.160411
     7  C    0.077693
     8  C    0.072837
     9  C   -0.537245
    10  C   -0.221569
    11  C   -0.155575
    12  C   -0.114422
    13  C   -0.224817
    14  H    0.177754
    15  H    0.171930
    16  H    0.171936
    17  H    0.118869
    18  H    0.126789
    19  H    0.167925
    20  H    0.175268
    21  H    0.167906
    22  H    0.114675
    23  H    0.111290
    24  H    0.125044
    25  H    0.115790
 Sum of Mulliken atomic charges =  -0.00000

 Dipole moment (field-independent basis, Debye):
    X=             -3.4591    Y=             -0.5347    Z=              0.0001  Tot=              3.5002
 Quadrupole moment (field-independent basis, Debye-Ang):
   XX=            -62.6384   YY=            -70.9593   ZZ=            -79.9289
   XY=              2.3534   XZ=             -0.0009   YZ=              0.0012

 Summary of Natural Population Analysis:

                                       Natural Population
                Natural  -----------------------------------------------
    Atom  No    Charge         Core      Valence    Rydberg      Total
 -----------------------------------------------------------------------
      C    1   -0.32102      1.99942     4.30751    0.01409     6.32102
      O    2   -0.46106      1.99974     6.44998    0.01134     8.46106
      C    3    0.37294      1.99871     3.60711    0.02123     5.62706
      C    4   -0.38271      1.99905     4.36863    0.01503     6.38271
      C    5   -0.19586      1.99906     4.18082    0.01598     6.19586
      C    6   -0.04944      1.99903     4.03525    0.01516     6.04944
      C    7   -0.05613      1.99900     4.04256    0.01457     6.05613
      C    8   -0.00959      1.99896     3.99498    0.01565     6.00959
      C    9   -0.70553      1.99940     4.69804    0.00810     6.70553
      C   10   -0.24834      1.99908     4.23341    0.01585     6.24834
      C   11   -0.29096      1.99912     4.27520    0.01665     6.29096
      C   12   -0.17819      1.99910     4.16452    0.01456     6.17819
      C   13   -0.26242      1.99906     4.24776    0.01559     6.26242
      H   14    0.23225      0.00000     0.76721    0.00054     0.76775
      H   15    0.21724      0.00000     0.78085    0.00191     0.78276
      H   16    0.21723      0.00000     0.78086    0.00191     0.78277
      H   17    0.23176      0.00000     0.76734    0.00090     0.76824
      H   18    0.23187      0.00000     0.76699    0.00114     0.76813
      H   19    0.24617      0.00000     0.75172    0.00211     0.75383
      H   20    0.25424      0.00000     0.74468    0.00108     0.74576
      H   21    0.24616      0.00000     0.75173    0.00211     0.75384
      H   22    0.22609      0.00000     0.77285    0.00106     0.77391
      H   23    0.22864      0.00000     0.77054    0.00082     0.77136
      H   24    0.23087      0.00000     0.76826    0.00086     0.76913
      H   25    0.22577      0.00000     0.77308    0.00114     0.77423
 =======================================================================
   * Total *   -0.00000     25.98872    65.80188    0.20940    92.00000

 Normal termination of Gaussian 09 at Tue Sep 28 21:54:23 2021.
