 Gaussian 09, Revision A.02,

 -----------------------------------
 #p opt b3lyp/6-31G* scf=(xqc,tight)
 -----------------------------------

 --------------------------------
 O=C(N(C)C)Oc1cccc2c1cccn2_conf_0
 --------------------------------
 Symbolic Z-matrix:
 Charge =  0 Multiplicity = 1

 SCF Done:  E(RB3LYP) =  -724.466307148     A.U. after   15 cycles
 SCF Done:  E(RB3LYP) =  -724.474368673     A.U. after   13 cycles
 SCF Done:  E(RB3LYP) =  -724.474793874     A.U. after   12 cycles
 SCF Done:  E(RB3LYP) =  -724.474660501     A.U. after   13 cycles
 SCF Done:  E(RB3LYP) =  -724.475004036     A.U. after   12 cycles
 SCF Done:  E(RB3LYP) =  -724.475103008     A.U. after   11 cycles
 SCF Done:  E(RB3LYP) =  -724.475121622     A.U. after   10 cycles
 SCF Done:  E(RB3LYP) =  -724.475125757     A.U. after    9 cycles
 SCF Done:  E(RB3LYP) =  -724.475130632     A.U. after    9 cycles
 SCF Done:  E(RB3LYP) =  -724.475132579     A.U. after    8 cycles
 SCF Done:  E(RB3LYP) =  -724.475134468     A.U. after    8 cycles
 SCF Done:  E(RB3LYP) =  -724.475135305     A.U. after    8 cycles
 SCF Done:  E(RB3LYP) =  -724.475136093     A.U. after    8 cycles
 SCF Done:  E(RB3LYP) =  -724.475137496     A.U. after    9 cycles
 SCF Done:  E(RB3LYP) =  -724.475138598     A.U. after    9 cycles
 SCF Done:  E(RB3LYP) =  -724.475139025     A.U. after    7 cycles
 SCF Done:  E(RB3LYP) =  -724.475139391     A.U. after    8 cycles
 SCF Done:  E(RB3LYP) =  -724.475139591     A.U. after    8 cycles
 Optimization completed.
    -- Stationary point found.
 Normal termination of Gaussian 09 at Thu Sep 30 00:55:04 2021.

 ----------------------------------------------------------------------
 #p freq b3lyp/6-31G* volume NMR pop=NPA density=current Geom=AllCheck
 Guess=Read
 ----------------------------------------------------------------------

 O=C(N(C)C)Oc1cccc2c1cccn2_conf_0
 --------------------------------
 Redundant internal coordinates taken from checkpoint file:
 C12H12N2O2_9e1b_conf_0.chk
 Charge =  0 Multiplicity = 1

 SCF Done:  E(RB3LYP) =  -724.475139591     A.U. after    1 cycles

  1  O    Isotropic =    67.3753   Anisotropy =   388.2551

  2  C    Isotropic =    46.9381   Anisotropy =    80.7860

  3  N    Isotropic =   179.6484   Anisotropy =    83.3920

  4  C    Isotropic =   154.9597   Anisotropy =    51.8260

  5  C    Isotropic =   155.5511   Anisotropy =    49.3528

  6  O    Isotropic =   150.5670   Anisotropy =   154.3131

  7  C    Isotropic =    48.9039   Anisotropy =    99.2502

  8  C    Isotropic =    75.6806   Anisotropy =   149.6160

  9  C    Isotropic =    67.5716   Anisotropy =   165.0429

 10  C    Isotropic =    68.7245   Anisotropy =   143.7768

 11  C    Isotropic =    47.2471   Anisotropy =   178.6017

 12  C    Isotropic =    73.8684   Anisotropy =   176.0955

 13  C    Isotropic =    66.1640   Anisotropy =   177.9814

 14  C    Isotropic =    76.0767   Anisotropy =   153.2917

 15  C    Isotropic =    46.9642   Anisotropy =   154.0186

 16  N    Isotropic =   -58.6003   Anisotropy =   506.0363

 17  H    Isotropic =    28.1021   Anisotropy =     7.1140

 18  H    Isotropic =    29.8533   Anisotropy =     9.2749

 19  H    Isotropic =    29.7915   Anisotropy =     9.3939

 20  H    Isotropic =    28.1587   Anisotropy =     4.6365

 21  H    Isotropic =    29.4463   Anisotropy =     9.1969

 22  H    Isotropic =    29.7102   Anisotropy =     8.8343

 23  H    Isotropic =    24.7694   Anisotropy =     9.3939

 24  H    Isotropic =    24.5561   Anisotropy =     5.3337

 25  H    Isotropic =    24.3839   Anisotropy =     5.3878

 26  H    Isotropic =    23.9856   Anisotropy =    10.2746

 27  H    Isotropic =    25.0400   Anisotropy =     6.4900

 28  H    Isotropic =    23.3068   Anisotropy =     6.0001

  Exact polarizability: 191.286  -5.787 172.655  -7.086   5.761  69.989
 Approx polarizability: 278.192 -13.089 302.231 -16.307   8.932 110.138

                     1                      2                      3
                     A                      A                      A
 Frequencies --    30.8217                40.5990                74.6401
 Red. masses --     4.5544                 3.5793                 1.6431
 Frc consts  --     0.0025                 0.0035                 0.0054
 IR Inten    --     1.3220                 0.9007                 0.1019

                     4                      5                      6
                     A                      A                      A
 Frequencies --    82.5907               118.0741               144.1991
 Red. masses --     3.2035                 3.0362                 1.5776
 Frc consts  --     0.0129                 0.0249                 0.0193
 IR Inten    --     0.4238                 0.7804                 1.7565

                     7                      8                      9
                     A                      A                      A
 Frequencies --   155.8968               185.5183               222.7004
 Red. masses --     2.3868                 4.0579                 2.3709
 Frc consts  --     0.0342                 0.0823                 0.0693
 IR Inten    --     3.4654                 1.6260                 4.4037

                    10                     11                     12
                     A                      A                      A
 Frequencies --   242.2584               258.0350               295.3769
 Red. masses --     3.6230                 4.8865                 5.5881
 Frc consts  --     0.1253                 0.1917                 0.2873
 IR Inten    --     2.1830                 1.6228                 1.0273

                    13                     14                     15
                     A                      A                      A
 Frequencies --   380.8750               431.3125               444.1956
 Red. masses --     3.4587                 4.1266                 3.7047
 Frc consts  --     0.2956                 0.4523                 0.4307
 IR Inten    --    21.2843                 1.6328                 8.6952

                    16                     17                     18
                     A                      A                      A
 Frequencies --   466.8758               480.7138               540.8684
 Red. masses --     4.8813                 3.3097                 6.8898
 Frc consts  --     0.6269                 0.4506                 1.1875
 IR Inten    --     0.6629                 0.7371                 1.7997

                    19                     20                     21
                     A                      A                      A
 Frequencies --   542.1653               575.6203               616.3913
 Red. masses --     6.9052                 3.7617                 6.7667
 Frc consts  --     1.1959                 0.7344                 1.5148
 IR Inten    --     0.4540                 1.9518                 3.7347

                    22                     23                     24
                     A                      A                      A
 Frequencies --   634.2825               670.0907               735.3791
 Red. masses --     5.3675                 4.6616                11.6293
 Frc consts  --     1.2723                 1.2332                 3.7053
 IR Inten    --     4.9221                 3.2815                18.1360

                    25                     26                     27
                     A                      A                      A
 Frequencies --   753.7588               760.3928               816.8544
 Red. masses --     6.8632                 1.4723                 2.9193
 Frc consts  --     2.2974                 0.5016                 1.1477
 IR Inten    --     2.5069                 2.6603                20.9205

                    28                     29                     30
                     A                      A                      A
 Frequencies --   820.5113               827.9670               861.7316
 Red. masses --     1.6791                 4.1894                 4.8889
 Frc consts  --     0.6660                 1.6921                 2.1390
 IR Inten    --    40.7525                10.3280                15.2727

                    31                     32                     33
                     A                      A                      A
 Frequencies --   903.4150               913.8725               970.6226
 Red. masses --     4.4429                 1.5244                 1.3937
 Frc consts  --     2.1364                 0.7501                 0.7736
 IR Inten    --     1.0219                 1.0049                 0.0358

                    34                     35                     36
                     A                      A                      A
 Frequencies --   984.8072               995.0793              1012.8595
 Red. masses --     1.2820                 1.3209                 3.7649
 Frc consts  --     0.7326                 0.7706                 2.2756
 IR Inten    --     0.4260                 0.9213                19.2182

                    37                     38                     39
                     A                      A                      A
 Frequencies --  1055.7538              1084.6562              1094.5551
 Red. masses --     2.8384                 2.2043                 1.3686
 Frc consts  --     1.8640                 1.5280                 0.9661
 IR Inten    --     6.4796                31.9694                 7.6350

                    40                     41                     42
                     A                      A                      A
 Frequencies --  1105.1783              1143.8456              1171.7821
 Red. masses --     2.1647                 1.2180                 1.2784
 Frc consts  --     1.5578                 0.9389                 1.0342
 IR Inten    --    26.5656                 0.5823               110.0201

                    43                     44                     45
                     A                      A                      A
 Frequencies --  1182.3164              1191.6168              1196.4849
 Red. masses --     2.0737                 1.4168                 1.5904
 Frc consts  --     1.7079                 1.1853                 1.3414
 IR Inten    --   457.9407                38.5289               264.2600

                    46                     47                     48
                     A                      A                      A
 Frequencies --  1248.7689              1268.1333              1278.7838
 Red. masses --     2.4400                 2.2297                 2.2830
 Frc consts  --     2.2418                 2.1126                 2.1997
 IR Inten    --    11.7256               175.7885                47.5784

                    49                     50                     51
                     A                      A                      A
 Frequencies --  1299.9810              1371.6675              1402.5827
 Red. masses --     4.9790                 3.4768                 5.4160
 Frc consts  --     4.9575                 3.8541                 6.2775
 IR Inten    --    11.8281                11.2698                 8.8533

                    52                     53                     54
                     A                      A                      A
 Frequencies --  1428.6258              1446.9423              1457.7020
 Red. masses --     2.2747                 2.1613                 2.0564
 Frc consts  --     2.7353                 2.6661                 2.5746
 IR Inten    --   291.6979                37.7714                 2.6731

                    55                     56                     57
                     A                      A                      A
 Frequencies --  1461.6222              1491.4360              1519.1742
 Red. masses --     1.2708                 1.2198                 2.4908
 Frc consts  --     1.5995                 1.5987                 3.3869
 IR Inten    --    20.7828                50.6813                18.6346

                    58                     59                     60
                     A                      A                      A
 Frequencies --  1520.7057              1530.2403              1532.4257
 Red. masses --     1.0742                 1.0489                 1.0470
 Frc consts  --     1.4636                 1.4471                 1.4486
 IR Inten    --     1.9690                16.8864                15.1916

                    61                     62                     63
                     A                      A                      A
 Frequencies --  1552.2660              1565.2918              1621.5446
 Red. masses --     3.4581                 1.2590                 6.8764
 Frc consts  --     4.9092                 1.8174                10.6530
 IR Inten    --     8.4108                56.3062                33.9232

                    64                     65                     66
                     A                      A                      A
 Frequencies --  1653.5608              1675.7390              1823.7626
 Red. masses --     5.5097                 6.6379                10.9858
 Frc consts  --     8.8760                10.9823                21.5287
 IR Inten    --    26.4590                18.7207               373.5807

                    67                     68                     69
                     A                      A                      A
 Frequencies --  3028.6296              3036.9852              3079.3721
 Red. masses --     1.0431                 1.0419                 1.1003
 Frc consts  --     5.6372                 5.6619                 6.1476
 IR Inten    --    30.7600               100.1377                59.7959

                    70                     71                     72
                     A                      A                      A
 Frequencies --  3083.4739              3161.0438              3195.7271
 Red. masses --     1.1040                 1.0892                 1.0964
 Frc consts  --     6.1845                 6.4123                 6.5971
 IR Inten    --    12.4560                35.4451                 0.7573

                    73                     74                     75
                     A                      A                      A
 Frequencies --  3199.2555              3205.0625              3207.9129
 Red. masses --     1.0883                 1.0898                 1.0946
 Frc consts  --     6.5629                 6.5956                 6.6369
 IR Inten    --    11.2166                13.4245                 4.3002

                    76                     77                     78
                     A                      A                      A
 Frequencies --  3225.2942              3226.6361              3249.8386
 Red. masses --     1.0942                 1.0947                 1.0928
 Frc consts  --     6.7062                 6.7152                 6.8004
 IR Inten    --    11.3382                11.1443                 2.8716

 - Thermochemistry -
 -------------------
 Temperature   298.150 Kelvin.  Pressure   1.00000 Atm.
 Atom     1 has atomic number  8 and mass  15.99491

 Molecular mass:   216.08988 amu.
 Principal axes and moments of inertia in atomic units:
                           1         2         3
     Eigenvalues --  1677.865605484.632516773.66390
           X            0.99992   0.01201  -0.00294
           Y           -0.01201   0.99993  -0.00028
           Z            0.00294   0.00032   1.00000
 This molecule is an asymmetric top.
 Rotational symmetry number  1.
 Warning -- assumption of classical behavior for rotation
           may cause significant error
 Rotational temperatures (Kelvin)      0.05162     0.01579     0.01279
 Rotational constants (GHZ):           1.07562     0.32905     0.26644
 Zero-point vibrational energy     587771.5 (Joules/Mol)
                                  140.48077 (Kcal/Mol)
 Warning -- explicit consideration of  21 degrees of freedom as
           vibrations may cause significant error
 Vibrational temperatures:     44.35    58.41   107.39   118.83   169.88
          (Kelvin)            207.47   224.30   266.92   320.42   348.56
                              371.25   424.98   547.99   620.56   639.10
                              671.73   691.64   778.19   780.05   828.19
                              886.85   912.59   964.11  1058.05  1084.49
                             1094.03  1175.27  1180.53  1191.26  1239.84
                             1299.81  1314.86  1396.51  1416.92  1431.70
                             1457.28  1518.99  1560.58  1574.82  1590.10
                             1645.74  1685.93  1701.09  1714.47  1721.47
                             1796.70  1824.56  1839.88  1870.38  1973.52
                             2018.00  2055.47  2081.82  2097.31  2102.95
                             2145.84  2185.75  2187.95  2201.67  2204.82
                             2233.36  2252.10  2333.04  2379.10  2411.01
                             2623.98  4357.52  4369.54  4430.52  4436.43
                             4548.03  4597.93  4603.01  4611.36  4615.47
                             4640.47  4642.40  4675.79

 Zero-point correction=                           0.223870 (Hartree/Particle)
 Thermal correction to Energy=                    0.237978
 Thermal correction to Enthalpy=                  0.238922
 Thermal correction to Gibbs Free Energy=         0.181498
 Sum of electronic and zero-point Energies=           -724.251269
 Sum of electronic and thermal Energies=              -724.237162
 Sum of electronic and thermal Enthalpies=            -724.236218
 Sum of electronic and thermal Free Energies=         -724.293642

                     E (Thermal)             CV                S
                      KCal/Mol        Cal/Mol-Kelvin    Cal/Mol-Kelvin
 Total                  149.333             52.886            120.859
 Electronic               0.000              0.000              0.000
 Translational            0.889              2.981             42.015
 Rotational               0.889              2.981             32.500
 Vibrational            147.556             46.924             46.345
 Vibration     1          0.594              1.984              5.776
 Vibration     2          0.594              1.981              5.230
 Vibration     3          0.599              1.966              4.027
 Vibration     4          0.600              1.961              3.828
 Vibration     5          0.608              1.934              3.132
 Vibration     6          0.616              1.909              2.747
 Vibration     7          0.620              1.896              2.599
 Vibration     8          0.632              1.860              2.272
 Vibration     9          0.648              1.807              1.937
 Vibration    10          0.658              1.776              1.786
 Vibration    11          0.667              1.749              1.675
 Vibration    12          0.690              1.682              1.443
 Vibration    13          0.751              1.511              1.036
 Vibration    14          0.792              1.402              0.854
 Vibration    15          0.804              1.374              0.814
 Vibration    16          0.824              1.324              0.746
 Vibration    17          0.837              1.293              0.708
 Vibration    18          0.896              1.160              0.563
 Vibration    19          0.897              1.157              0.561
 Vibration    20          0.932              1.084              0.494
 Vibration    21          0.976              0.997              0.422

 Normal termination of Gaussian 09 at Thu Sep 30 02:07:26 2021.
 Gaussian 09:  AM64L-G09RevA.02 11-Jun-2009

 ----------------------------------------------------------------------
 #p TD(NStates=10, Root=1) b3lyp/6-31G* volume pop=NPA density=current
 Geom=AllCheck Guess=Read
 ----------------------------------------------------------------------

 O=C(N(C)C)Oc1cccc2c1cccn2_conf_0
 --------------------------------
 Redundant internal coordinates taken from checkpoint file:
 C12H12N2O2_9e1b_conf_0.chk
 Charge =  0 Multiplicity = 1

                         Standard orientation:
 ---------------------------------------------------------------------
 Center     Atomic      Atomic             Coordinates (Angstroms)
 Number     Number       Type             X           Y           Z
 ---------------------------------------------------------------------
      1          8           0       -2.175862    1.263741   -1.057795
      2          6           0       -2.179758    0.339387   -0.269660
      3          7           0       -3.269733   -0.403778    0.078557
      4          6           0       -4.534028   -0.134199   -0.589540
      5          6           0       -3.253369   -1.524170    1.007019
      6          8           0       -1.054787   -0.104312    0.403874
      7          6           0        0.150091    0.576613    0.268279
      8          6           0        0.255539    1.941412    0.405060
      9          6           0        1.530337    2.552027    0.338237
     10          6           0        2.670656    1.805018    0.150066
     11          6           0        2.583022    0.395914    0.011169
     12          6           0        1.298624   -0.237373    0.064280
     13          6           0        1.249685   -1.645648   -0.089336
     14          6           0        2.421897   -2.338269   -0.278311
     15          6           0        3.642771   -1.618866   -0.309538
     16          7           0        3.736653   -0.312078   -0.173356
     17          1           0       -4.409109    0.724487   -1.247186
     18          1           0       -5.314753    0.082116    0.150723
     19          1           0       -4.851033   -1.002939   -1.182159
     20          1           0       -2.306871   -1.559361    1.540926
     21          1           0       -3.403505   -2.475281    0.476847
     22          1           0       -4.066447   -1.408997    1.734699
     23          1           0       -0.633517    2.542253    0.547846
     24          1           0        1.597164    3.631272    0.442168
     25          1           0        3.655179    2.258225    0.101425
     26          1           0        0.291661   -2.153641   -0.058761
     27          1           0        2.425586   -3.417031   -0.402937
     28          1           0        4.579598   -2.156618   -0.454977
 ---------------------------------------------------------------------

 SCF Done:  E(RB3LYP) =  -724.475139591     A.U. after    1 cycles

 Excitation energies and oscillator strengths:

 Excited State   1:      Singlet-A      4.1937 eV  295.64 nm  f=0.0801  <S**2>=0.000
      54 -> 58         0.11596
      56 -> 59         0.10603
      57 -> 58         0.67867
 This state for optimization and/or second-order correction.
 Total Energy, E(TD-HF/TD-KS) =  -724.321022451
 Copying the excited state density for this state as the 1-particle RhoCI density.

 Excited State   2:      Singlet-A      4.3317 eV  286.22 nm  f=0.0053  <S**2>=0.000
      54 -> 58         0.66118
      55 -> 58         0.18438
      57 -> 58        -0.11849

 Excited State   3:      Singlet-A      4.5055 eV  275.18 nm  f=0.0068  <S**2>=0.000
      54 -> 58         0.10017
      55 -> 58        -0.11976
      56 -> 58         0.50454
      57 -> 59        -0.46387

 Excited State   4:      Singlet-A      4.9103 eV  252.50 nm  f=0.0047  <S**2>=0.000
      54 -> 58        -0.15942
      55 -> 58         0.65186
      56 -> 58         0.21513

 Excited State   5:      Singlet-A      5.2720 eV  235.17 nm  f=0.0015  <S**2>=0.000
      54 -> 59         0.67197
      55 -> 59         0.19010

 Excited State   6:      Singlet-A      5.4625 eV  226.97 nm  f=0.0515  <S**2>=0.000
      53 -> 58         0.65579
      56 -> 58        -0.15914
      57 -> 59        -0.16852

 Excited State   7:      Singlet-A      5.7769 eV  214.62 nm  f=0.3915  <S**2>=0.000
      52 -> 58        -0.10923
      52 -> 59         0.13350
      53 -> 58         0.18738
      55 -> 59         0.23492
      56 -> 58         0.29628
      56 -> 59         0.20640
      56 -> 60         0.11965
      57 -> 59         0.38795
      57 -> 60        -0.23063

 Excited State   8:      Singlet-A      5.8708 eV  211.19 nm  f=0.0384  <S**2>=0.000
      52 -> 58         0.39398
      54 -> 59        -0.11825
      55 -> 59         0.29508
      56 -> 59        -0.21932
      57 -> 59         0.12532
      57 -> 60         0.39926

 Excited State   9:      Singlet-A      5.9306 eV  209.06 nm  f=0.2334  <S**2>=0.000
      52 -> 58        -0.10646
      52 -> 59        -0.10573
      53 -> 58        -0.10360
      54 -> 59        -0.10092
      55 -> 59         0.52879
      56 -> 58        -0.19472
      56 -> 59         0.26713
      57 -> 59        -0.21116

 Excited State  10:      Singlet-A      6.2029 eV  199.88 nm  f=0.2029  <S**2>=0.000
      51 -> 58         0.23916
      52 -> 58        -0.32276
      56 -> 59         0.20328
      57 -> 60         0.46020
      57 -> 61        -0.18096

 The electronic state is 1-A.
 Alpha  occ. eigenvalues --  -19.20219 -19.12234 -14.37690 -14.32634 -10.33980
 Alpha  occ. eigenvalues --  -10.25671 -10.22904 -10.22434 -10.22351 -10.22250
 Alpha  occ. eigenvalues --  -10.20810 -10.20570 -10.19848 -10.19628 -10.19355
 Alpha  occ. eigenvalues --  -10.18622  -1.11191  -1.02129  -0.94851  -0.93962
 Alpha  occ. eigenvalues --   -0.84738  -0.80620  -0.75310  -0.75191  -0.73173
 Alpha  occ. eigenvalues --   -0.70608  -0.64715  -0.63451  -0.62207  -0.56398
 Alpha  occ. eigenvalues --   -0.54303  -0.52229  -0.51293  -0.49989  -0.49006
 Alpha  occ. eigenvalues --   -0.48541  -0.45780  -0.44646  -0.44202  -0.43117
 Alpha  occ. eigenvalues --   -0.41412  -0.41328  -0.41209  -0.41012  -0.40549
 Alpha  occ. eigenvalues --   -0.40182  -0.38756  -0.36699  -0.35846  -0.33878
 Alpha  occ. eigenvalues --   -0.31848  -0.29681  -0.27803  -0.25295  -0.25087
 Alpha  occ. eigenvalues --   -0.24906  -0.22195
 Alpha virt. eigenvalues --   -0.05011  -0.01388   0.02298   0.05036   0.08034
 Alpha virt. eigenvalues --    0.09410   0.10076   0.10635   0.12583   0.13689
 Alpha virt. eigenvalues --    0.14271   0.15397   0.15603   0.16769   0.17074

 Mulliken atomic charges:
              1
     1  O   -0.496744
     2  C    0.786239
     3  N   -0.431909
     4  C   -0.322847
     5  C   -0.321770
     6  O   -0.523770
     7  C    0.300710
     8  C   -0.122450
     9  C   -0.153834
    10  C   -0.103983
    11  C    0.230119
    12  C    0.129269
    13  C   -0.202479
    14  C   -0.150970
    15  C    0.025448
    16  N   -0.549632
    17  H    0.210633
    18  H    0.162605
    19  H    0.165027
    20  H    0.204475
    21  H    0.167408
    22  H    0.164369
    23  H    0.167382
    24  H    0.150159
    25  H    0.166554
    26  H    0.112833
    27  H    0.116993
    28  H    0.120166
 Sum of Mulliken atomic charges =  -0.00000

 Dipole moment (field-independent basis, Debye):
    X=             -5.6420    Y=             -0.0815    Z=              1.9755  Tot=              5.9784
 Quadrupole moment (field-independent basis, Debye-Ang):
   XX=            -87.8552   YY=            -83.4133   ZZ=            -95.1041
   XY=              9.8031   XZ=             -2.5867   YZ=              3.0523

 Summary of Natural Population Analysis:

                                       Natural Population
                Natural  -----------------------------------------------
    Atom  No    Charge         Core      Valence    Rydberg      Total
 -----------------------------------------------------------------------
      O    1   -0.63185      1.99978     6.61274    0.01933     8.63185
      C    2    0.93621      1.99936     3.01965    0.04477     5.06379
      N    3   -0.47206      1.99932     5.46179    0.01096     7.47206
      C    4   -0.47131      1.99946     4.45988    0.01196     6.47131
      C    5   -0.47386      1.99946     4.46279    0.01162     6.47386
      O    6   -0.51677      1.99969     6.50681    0.01028     8.51677
      C    7    0.40284      1.99865     3.57659    0.02191     5.59716
      C    8   -0.24024      1.99901     4.22692    0.01430     6.24024
      C    9   -0.24005      1.99914     4.22611    0.01480     6.24005
      C   10   -0.11440      1.99903     4.09947    0.01589     6.11440
      C   11    0.16110      1.99904     3.81769    0.02217     5.83890
      C   12   -0.10854      1.99894     4.09485    0.01476     6.10854
      C   13   -0.30982      1.99907     4.29257    0.01819     6.30982
      C   14   -0.26768      1.99908     4.25352    0.01508     6.26768
      C   15    0.00113      1.99925     3.97474    0.02488     5.99887
      N   16   -0.51970      1.99940     5.49689    0.02341     7.51970
      H   17    0.26543      0.00000     0.73317    0.00139     0.73457
      H   18    0.22577      0.00000     0.77303    0.00120     0.77423
      H   19    0.22577      0.00000     0.77293    0.00130     0.77423
      H   20    0.25815      0.00000     0.74093    0.00093     0.74185
      H   21    0.22678      0.00000     0.77170    0.00152     0.77322
      H   22    0.22879      0.00000     0.76988    0.00133     0.77121
      H   23    0.26069      0.00000     0.73818    0.00113     0.73931
      H   24    0.24586      0.00000     0.75338    0.00076     0.75414
      H   25    0.25322      0.00000     0.74515    0.00163     0.74678
      H   26    0.22984      0.00000     0.76910    0.00106     0.77016
      H   27    0.23172      0.00000     0.76729    0.00098     0.76828
      H   28    0.21298      0.00000     0.78591    0.00111     0.78702
 =======================================================================
   * Total *   -0.00000     31.98768    81.70364    0.30867   114.00000

 Normal termination of Gaussian 09 at Thu Sep 30 06:48:16 2021.
