 Gaussian 09, Revision A.02,

 -----------------------------------
 #p opt b3lyp/6-31G* scf=(xqc,tight)
 -----------------------------------

 -----------------------------------
 COc1ccc2c(c1)ccc(c2)C(F)(F)F_conf_0
 -----------------------------------
 Symbolic Z-matrix:
 Charge =  0 Multiplicity = 1

 SCF Done:  E(RB3LYP) =  -837.447259194     A.U. after   14 cycles
 SCF Done:  E(RB3LYP) =  -837.451602797     A.U. after   12 cycles
 SCF Done:  E(RB3LYP) =  -837.451921796     A.U. after   11 cycles
 SCF Done:  E(RB3LYP) =  -837.451970168     A.U. after   10 cycles
 SCF Done:  E(RB3LYP) =  -837.451972874     A.U. after    8 cycles
 Optimization completed.
    -- Stationary point found.
 Normal termination of Gaussian 09 at Tue Sep 28 23:37:49 2021.

 ----------------------------------------------------------------------
 #p freq b3lyp/6-31G* volume NMR pop=NPA density=current Geom=AllCheck
 Guess=Read
 ----------------------------------------------------------------------

 COc1ccc2c(c1)ccc(c2)C(F)(F)F_conf_0
 -----------------------------------
 Redundant internal coordinates taken from checkpoint file:
 C12H9F3O_6168_conf_0.chk
 Charge =  0 Multiplicity = 1

 SCF Done:  E(RB3LYP) =  -837.451972874     A.U. after    1 cycles

  1  C    Isotropic =   137.1070   Anisotropy =    65.6310

  2  O    Isotropic =   235.8963   Anisotropy =    77.4709

  3  C    Isotropic =    39.6870   Anisotropy =   125.0256

  4  C    Isotropic =    83.6019   Anisotropy =   146.6080

  5  C    Isotropic =    64.9106   Anisotropy =   146.8039

  6  C    Isotropic =    68.7455   Anisotropy =   190.1468

  7  C    Isotropic =    61.1057   Anisotropy =   196.5379

  8  C    Isotropic =    82.2107   Anisotropy =   113.2776

  9  C    Isotropic =    69.0190   Anisotropy =   143.1195

 10  C    Isotropic =    72.8575   Anisotropy =   161.3813

 11  C    Isotropic =    67.7012   Anisotropy =   140.7189

 12  C    Isotropic =    67.4717   Anisotropy =   150.1128

 13  C    Isotropic =    62.4565   Anisotropy =    12.0412

 14  F    Isotropic =   282.9581   Anisotropy =   115.9181

 15  F    Isotropic =   253.1396   Anisotropy =   131.1815

 16  F    Isotropic =   253.0730   Anisotropy =   131.1857

 17  H    Isotropic =    28.1654   Anisotropy =     8.2357

 18  H    Isotropic =    28.4830   Anisotropy =     8.2898

 19  H    Isotropic =    28.4816   Anisotropy =     8.2912

 20  H    Isotropic =    25.2586   Anisotropy =     8.0975

 21  H    Isotropic =    24.4593   Anisotropy =     7.7554

 22  H    Isotropic =    25.1336   Anisotropy =     8.0927

 23  H    Isotropic =    24.6535   Anisotropy =     7.3122

 24  H    Isotropic =    24.6739   Anisotropy =     8.3983

 25  H    Isotropic =    24.3287   Anisotropy =    10.3029

  Exact polarizability: 216.903 -12.538 130.521   0.004  -0.002  55.152
 Approx polarizability: 330.270 -18.884 236.242   0.016  -0.003  85.482

 ******    1 imaginary frequencies (negative Signs) ******

                     1                      2                      3
                     A                      A                      A
 Frequencies --   -32.8197                48.9147                87.0256
 Red. masses --     8.6238                 4.8947                 4.3430
 Frc consts  --     0.0055                 0.0069                 0.0194
 IR Inten    --     0.1405                 0.3000                 4.3280

                     4                      5                      6
                     A                      A                      A
 Frequencies --   129.0060               158.3691               185.6738
 Red. masses --     7.2913                 4.9625                 3.7111
 Frc consts  --     0.0715                 0.0733                 0.0754
 IR Inten    --     0.5008                 0.6101                 0.1553

                     7                      8                      9
                     A                      A                      A
 Frequencies --   222.5657               245.8793               260.8721
 Red. masses --     5.1064                 1.3552                 7.1148
 Frc consts  --     0.1490                 0.0483                 0.2853
 IR Inten    --     1.1549                 0.0652                 2.7521

                    10                     11                     12
                     A                      A                      A
 Frequencies --   292.4741               338.4770               410.0460
 Red. masses --     3.5693                 6.0983                 5.0522
 Frc consts  --     0.1799                 0.4116                 0.5005
 IR Inten    --     0.4689                 1.3513                 1.0761

                    13                     14                     15
                     A                      A                      A
 Frequencies --   415.8500               420.9526               452.4745
 Red. masses --     5.8952                 4.3957                 6.3131
 Frc consts  --     0.6006                 0.4589                 0.7615
 IR Inten    --     3.3468                 0.1381                 1.6195

                    16                     17                     18
                     A                      A                      A
 Frequencies --   484.8781               523.4249               532.7806
 Red. masses --     2.6534                 7.5531                 6.7118
 Frc consts  --     0.3675                 1.2192                 1.1225
 IR Inten    --     7.9597                 0.1678                 1.0775

                    19                     20                     21
                     A                      A                      A
 Frequencies --   573.4143               577.1408               612.6149
 Red. masses --     4.9000                10.9899                 3.3488
 Frc consts  --     0.9492                 2.1568                 0.7405
 IR Inten    --    31.5430                 1.7497                 0.4684

                    22                     23                     24
                     A                      A                      A
 Frequencies --   652.4822               689.1716               715.3923
 Red. masses --     7.8244                 4.3244                 8.2881
 Frc consts  --     1.9626                 1.2101                 2.4992
 IR Inten    --     4.4303                 2.2066                 1.8515

                    25                     26                     27
                     A                      A                      A
 Frequencies --   763.1034               763.6677               818.9823
 Red. masses --     7.8919                 3.4476                 1.4719
 Frc consts  --     2.7077                 1.1846                 0.5817
 IR Inten    --     6.7624                 0.8954                20.8330

                    28                     29                     30
                     A                      A                      A
 Frequencies --   820.6885               832.1251               890.0702
 Red. masses --     4.6773                 1.4454                 1.5460
 Frc consts  --     1.8561                 0.5897                 0.7216
 IR Inten    --     2.4358                 7.2718                28.5224

                    31                     32                     33
                     A                      A                      A
 Frequencies --   902.5616               926.2251               955.6605
 Red. masses --     1.4488                 6.1292                 1.3005
 Frc consts  --     0.6954                 3.0980                 0.6998
 IR Inten    --    29.0400                21.5015                 1.0772

                    34                     35                     36
                     A                      A                      A
 Frequencies --   975.0599               975.9509              1079.3575
 Red. masses --     1.2887                 4.0945                 3.7018
 Frc consts  --     0.7219                 2.2978                 2.5409
 IR Inten    --     0.0108                 5.3159                45.2299

                    37                     38                     39
                     A                      A                      A
 Frequencies --  1091.9415              1172.2810              1180.0804
 Red. masses --     3.1167                 1.8495                12.8394
 Frc consts  --     2.1895                 1.4975                10.5346
 IR Inten    --   105.5568                63.7812               259.1251

                    40                     41                     42
                     A                      A                      A
 Frequencies --  1182.7916              1191.6450              1202.4248
 Red. masses --     1.2674                 1.4175                 1.6263
 Frc consts  --     1.0447                 1.1860                 1.3854
 IR Inten    --     1.3094                12.3472                53.2394

                    43                     44                     45
                     A                      A                      A
 Frequencies --  1207.5508              1223.4223              1252.2286
 Red. masses --     2.1554                 2.1791                 1.8326
 Frc consts  --     1.8518                 1.9217                 1.6931
 IR Inten    --    76.7973                57.2085               299.3817

                    46                     47                     48
                     A                      A                      A
 Frequencies --  1301.2061              1320.1720              1345.9222
 Red. masses --     1.7465                 2.6536                 5.9492
 Frc consts  --     1.7422                 2.7249                 6.3497
 IR Inten    --    11.7715               409.2844               187.7680

                    49                     50                     51
                     A                      A                      A
 Frequencies --  1387.6560              1417.4334              1426.3016
 Red. masses --     2.1157                 3.6069                 5.5836
 Frc consts  --     2.4003                 4.2696                 6.6925
 IR Inten    --     8.1274                 2.9927                 7.3168

                    52                     53                     54
                     A                      A                      A
 Frequencies --  1463.2133              1501.1775              1523.7142
 Red. masses --     4.2003                 1.2493                 1.0482
 Frc consts  --     5.2985                 1.6587                 1.4338
 IR Inten    --     5.6894                38.2072                 5.6448

                    55                     56                     57
                     A                      A                      A
 Frequencies --  1533.1669              1542.1861              1562.6621
 Red. masses --     1.1513                 2.0108                 3.6967
 Frc consts  --     1.5945                 2.8177                 5.3186
 IR Inten    --    92.7710                45.5443                42.7369

                    58                     59                     60
                     A                      A                      A
 Frequencies --  1622.0816              1668.8149              1690.7899
 Red. masses --     7.1674                 5.6325                 6.2304
 Frc consts  --    11.1111                 9.2420                10.4942
 IR Inten    --     6.1871                29.3437               132.7103

                    61                     62                     63
                     A                      A                      A
 Frequencies --  3029.1135              3089.8186              3160.8747
 Red. masses --     1.0348                 1.1070                 1.0998
 Frc consts  --     5.5940                 6.2270                 6.4741
 IR Inten    --    67.7917                41.9968                26.4856

                    64                     65                     66
                     A                      A                      A
 Frequencies --  3186.9515              3191.0108              3194.6052
 Red. masses --     1.0895                 1.0895                 1.0905
 Frc consts  --     6.5198                 6.5365                 6.5568
 IR Inten    --     5.4544                10.9368                 6.2839

                    67                     68                     69
                     A                      A                      A
 Frequencies --  3207.5637              3228.9464              3232.3742
 Red. masses --     1.0906                 1.0917                 1.0925
 Frc consts  --     6.6112                 6.7064                 6.7256
 IR Inten    --     6.0095                11.9404                 5.2275

 - Thermochemistry -
 -------------------
 Temperature   298.150 Kelvin.  Pressure   1.00000 Atm.
 Atom     1 has atomic number  6 and mass  12.00000

 Molecular mass:   226.06055 amu.
 Principal axes and moments of inertia in atomic units:
                           1         2         3
     Eigenvalues --  1035.602797942.341838647.62153
           X            0.99994  -0.01067  -0.00001
           Y            0.01067   0.99994  -0.00000
           Z            0.00001   0.00000   1.00000
 This molecule is an asymmetric top.
 Rotational symmetry number  1.
 Warning -- assumption of classical behavior for rotation
           may cause significant error
 Rotational temperatures (Kelvin)      0.08364     0.01091     0.01002
 Rotational constants (GHZ):           1.74270     0.22723     0.20870
    1 imaginary frequencies ignored.
 Zero-point vibrational energy     486075.4 (Joules/Mol)
                                  116.17480 (Kcal/Mol)
 Warning -- explicit consideration of  20 degrees of freedom as
           vibrations may cause significant error
 Vibrational temperatures:     70.38   125.21   185.61   227.86   267.14
          (Kelvin)            320.22   353.77   375.34   420.80   486.99
                              589.96   598.31   605.66   651.01   697.63
                              753.09   766.55   825.01   830.38   881.42
                              938.78   991.56  1029.29  1097.93  1098.75
                             1178.33  1180.79  1197.24  1280.61  1298.58
                             1332.63  1374.98  1402.89  1404.17  1552.95
                             1571.06  1686.65  1697.87  1701.77  1714.51
                             1730.02  1737.39  1760.23  1801.68  1872.14
                             1899.43  1936.48  1996.52  2039.37  2052.13
                             2105.23  2159.86  2192.28  2205.88  2218.86
                             2248.32  2333.81  2401.05  2432.67  4358.21
                             4445.55  4547.79  4585.31  4591.15  4596.32
                             4614.96  4645.73  4650.66

 Zero-point correction=                           0.185136 (Hartree/Particle)
 Thermal correction to Energy=                    0.197351
 Thermal correction to Enthalpy=                  0.198295
 Thermal correction to Gibbs Free Energy=         0.146303
 Sum of electronic and zero-point Energies=           -837.266837
 Sum of electronic and thermal Energies=              -837.254622
 Sum of electronic and thermal Enthalpies=            -837.253677
 Sum of electronic and thermal Free Energies=         -837.305670

                     E (Thermal)             CV                S
                      KCal/Mol        Cal/Mol-Kelvin    Cal/Mol-Kelvin
 Total                  123.840             48.717            109.427
 Electronic               0.000              0.000              0.000
 Translational            0.889              2.981             42.149
 Rotational               0.889              2.981             32.631
 Vibrational            122.062             42.756             34.647
 Vibration     1          0.595              1.978              4.861
 Vibration     2          0.601              1.958              3.726
 Vibration     3          0.611              1.924              2.961
 Vibration     4          0.621              1.893              2.569
 Vibration     5          0.632              1.859              2.271
 Vibration     6          0.648              1.807              1.938
 Vibration     7          0.660              1.770              1.760
 Vibration     8          0.669              1.744              1.656
 Vibration     9          0.688              1.688              1.460
 Vibration    10          0.719              1.599              1.219
 Vibration    11          0.774              1.448              0.926
 Vibration    12          0.779              1.436              0.906
 Vibration    13          0.783              1.425              0.889
 Vibration    14          0.811              1.355              0.788
 Vibration    15          0.841              1.284              0.697
 Vibration    16          0.878              1.198              0.602
 Vibration    17          0.888              1.177              0.581
 Vibration    18          0.930              1.089              0.498
 Vibration    19          0.934              1.081              0.491
 Vibration    20          0.972              1.005              0.428

 Normal termination of Gaussian 09 at Wed Sep 29 00:23:35 2021.
 Gaussian 09:  AM64L-G09RevA.02 11-Jun-2009

 ----------------------------------------------------------------------
 #p TD(NStates=10, Root=1) b3lyp/6-31G* volume pop=NPA density=current
 Geom=AllCheck Guess=Read
 ----------------------------------------------------------------------

 COc1ccc2c(c1)ccc(c2)C(F)(F)F_conf_0
 -----------------------------------
 Redundant internal coordinates taken from checkpoint file:
 C12H9F3O_6168_conf_0.chk
 Charge =  0 Multiplicity = 1

                         Standard orientation:
 ---------------------------------------------------------------------
 Center     Atomic      Atomic             Coordinates (Angstroms)
 Number     Number       Type             X           Y           Z
 ---------------------------------------------------------------------
      1          6           0        5.463512   -0.416501   -0.000582
      2          8           0        4.437925    0.565573    0.000432
      3          6           0        3.136142    0.159591    0.000224
      4          6           0        2.736766   -1.204461    0.000227
      5          6           0        1.398384   -1.527782    0.000120
      6          6           0        0.394896   -0.526021    0.000035
      7          6           0        0.803564    0.850216    0.000048
      8          6           0        2.181556    1.161519    0.000129
      9          6           0       -0.203258    1.855573   -0.000057
     10          6           0       -1.537408    1.525240   -0.000150
     11          6           0       -1.935218    0.164164   -0.000150
     12          6           0       -0.986853   -0.836651   -0.000066
     13          6           0       -3.390799   -0.213584   -0.000042
     14          9           0       -4.202405    0.866650   -0.001564
     15          9           0       -3.715643   -0.960214   -1.083016
     16          9           0       -3.716184   -0.957513    1.084635
     17          1           0        6.403405    0.138112   -0.000998
     18          1           0        5.418371   -1.049815   -0.896124
     19          1           0        5.419564   -1.050436    0.894585
     20          1           0        3.478231   -1.995008    0.000339
     21          1           0        1.097349   -2.572571    0.000126
     22          1           0        2.509875    2.196680    0.000122
     23          1           0        0.099241    2.899580   -0.000065
     24          1           0       -2.295468    2.300351   -0.000229
     25          1           0       -1.293585   -1.879612   -0.000104
 ---------------------------------------------------------------------

 SCF Done:  E(RB3LYP) =  -837.451972874     A.U. after    1 cycles

 Excitation energies and oscillator strengths:

 Excited State   1:      Singlet-A      4.0235 eV  308.15 nm  f=0.0684  <S**2>=0.000
      57 -> 59         0.10982
      57 -> 60        -0.14120
      58 -> 59         0.66591
      58 -> 60         0.13933
 This state for optimization and/or second-order correction.
 Total Energy, E(TD-HF/TD-KS) =  -837.304112450
 Copying the excited state density for this state as the 1-particle RhoCI density.

 Excited State   2:      Singlet-A      4.3849 eV  282.75 nm  f=0.0090  <S**2>=0.000
      57 -> 59         0.49284
      58 -> 59        -0.17947
      58 -> 60         0.46486

 Excited State   3:      Singlet-A      5.4804 eV  226.23 nm  f=0.4732  <S**2>=0.000
      56 -> 59         0.35898
      57 -> 59         0.36247
      58 -> 60        -0.34713
      58 -> 61         0.33495

 Excited State   4:      Singlet-A      5.6887 eV  217.95 nm  f=0.5198  <S**2>=0.000
      56 -> 59         0.30413
      57 -> 59        -0.25421
      57 -> 60         0.36398
      58 -> 60         0.32979
      58 -> 61         0.28493

 Excited State   5:      Singlet-A      5.8703 eV  211.21 nm  f=0.2788  <S**2>=0.000
      55 -> 59        -0.22754
      56 -> 60         0.17889
      57 -> 59         0.17861
      57 -> 60         0.40781
      57 -> 61        -0.12602
      58 -> 60        -0.10885
      58 -> 61        -0.40280

 Excited State   6:      Singlet-A      6.2354 eV  198.84 nm  f=0.2433  <S**2>=0.000
      56 -> 59         0.42332
      56 -> 60         0.15628
      57 -> 60        -0.37679
      57 -> 61        -0.22381
      58 -> 60         0.10843
      58 -> 61        -0.24417

 Excited State   7:      Singlet-A      6.4448 eV  192.38 nm  f=0.0480  <S**2>=0.000
      55 -> 59        -0.20024
      56 -> 59         0.26629
      56 -> 60        -0.29003
      57 -> 61         0.50959
      58 -> 61        -0.16011

 Excited State   8:      Singlet-A      6.5583 eV  189.05 nm  f=0.0866  <S**2>=0.000
      55 -> 59         0.56542
      56 -> 60        -0.28051
      57 -> 60         0.15255
      58 -> 61        -0.21761

 Excited State   9:      Singlet-A      6.6200 eV  187.29 nm  f=0.0000  <S**2>=0.000
      52 -> 59        -0.11229
      53 -> 59        -0.12545
      54 -> 59         0.68245

 Excited State  10:      Singlet-A      7.0827 eV  175.05 nm  f=0.0346  <S**2>=0.000
      55 -> 59         0.19083
      56 -> 60         0.45871
      57 -> 61         0.30369
      58 -> 63         0.38358

 The electronic state is 1-A.
 Alpha  occ. eigenvalues --  -24.71993 -24.71251 -24.71249 -19.18736 -10.42493
 Alpha  occ. eigenvalues --  -10.25957 -10.25005 -10.20943 -10.20917 -10.20619
 Alpha  occ. eigenvalues --  -10.20555 -10.20509 -10.20311 -10.20202 -10.19801
 Alpha  occ. eigenvalues --  -10.19096  -1.29219  -1.20753  -1.20138  -1.07328
 Alpha  occ. eigenvalues --   -0.88346  -0.83647  -0.78638  -0.76962  -0.74125
 Alpha  occ. eigenvalues --   -0.71487  -0.67836  -0.64027  -0.61567  -0.60917
 Alpha  occ. eigenvalues --   -0.57088  -0.57002  -0.56170  -0.53987  -0.51900
 Alpha  occ. eigenvalues --   -0.48904  -0.47732  -0.47350  -0.45751  -0.45112
 Alpha  occ. eigenvalues --   -0.44802  -0.44277  -0.42902  -0.41994  -0.41325
 Alpha  occ. eigenvalues --   -0.40217  -0.40107  -0.39870  -0.39057  -0.38890
 Alpha  occ. eigenvalues --   -0.36089  -0.35616  -0.34983  -0.33231  -0.31270
 Alpha  occ. eigenvalues --   -0.28775  -0.24421  -0.21318
 Alpha virt. eigenvalues --   -0.05024  -0.01680   0.02366   0.08534   0.08608
 Alpha virt. eigenvalues --    0.09980   0.11443   0.11809   0.13504   0.14575
 Alpha virt. eigenvalues --    0.14823   0.15868   0.17509   0.18179   0.18533

 Mulliken atomic charges:
              1
     1  C   -0.229883
     2  O   -0.460433
     3  C    0.393981
     4  C   -0.217109
     5  C   -0.206428
     6  C    0.154276
     7  C    0.155955
     8  C   -0.247509
     9  C   -0.222067
    10  C   -0.180275
    11  C    0.004307
    12  C   -0.274572
    13  C    0.781645
    14  F   -0.274301
    15  F   -0.270426
    16  F   -0.270392
    17  H    0.184767
    18  H    0.176973
    19  H    0.176968
    20  H    0.127243
    21  H    0.137929
    22  H    0.154910
    23  H    0.125040
    24  H    0.141197
    25  H    0.138203
 Sum of Mulliken atomic charges =  -0.00000

 Dipole moment (field-independent basis, Debye):
    X=              6.6527    Y=             -0.4358    Z=             -0.0014  Tot=              6.6670
 Quadrupole moment (field-independent basis, Debye-Ang):
   XX=            -74.1753   YY=            -83.1943   ZZ=            -92.9456
   XY=             -6.1498   XZ=             -0.0052   YZ=             -0.0004

 Summary of Natural Population Analysis:

                                       Natural Population
                Natural  -----------------------------------------------
    Atom  No    Charge         Core      Valence    Rydberg      Total
 -----------------------------------------------------------------------
      C    1   -0.32472      1.99941     4.31144    0.01387     6.32472
      O    2   -0.44369      1.99975     6.43233    0.01161     8.44369
      C    3    0.36777      1.99881     3.61101    0.02242     5.63223
      C    4   -0.37773      1.99905     4.36426    0.01442     6.37773
      C    5   -0.19281      1.99907     4.17765    0.01609     6.19281
      C    6   -0.03999      1.99903     4.02585    0.01511     6.03999
      C    7   -0.05274      1.99904     4.03866    0.01504     6.05274
      C    8   -0.20459      1.99900     4.18982    0.01578     6.20459
      C    9   -0.24099      1.99907     4.22580    0.01612     6.24099
      C   10   -0.24821      1.99906     4.23280    0.01635     6.24821
      C   11   -0.12937      1.99885     4.11403    0.01649     6.12937
      C   12   -0.25290      1.99901     4.23698    0.01691     6.25290
      C   13    1.11975      1.99904     2.81118    0.07004     4.88025
      F   14   -0.36504      1.99993     7.35909    0.00602     9.36504
      F   15   -0.36479      1.99993     7.35866    0.00620     9.36479
      F   16   -0.36478      1.99993     7.35865    0.00620     9.36478
      H   17    0.23591      0.00000     0.76358    0.00050     0.76409
      H   18    0.22014      0.00000     0.77804    0.00182     0.77986
      H   19    0.22014      0.00000     0.77804    0.00182     0.77986
      H   20    0.23624      0.00000     0.76293    0.00083     0.76376
      H   21    0.23763      0.00000     0.76127    0.00110     0.76237
      H   22    0.24720      0.00000     0.75120    0.00160     0.75280
      H   23    0.23124      0.00000     0.76768    0.00108     0.76876
      H   24    0.24793      0.00000     0.75074    0.00133     0.75207
      H   25    0.23840      0.00000     0.76002    0.00158     0.76160
 =======================================================================
   * Total *   -0.00000     31.98797    83.72171    0.29032   116.00000

 Normal termination of Gaussian 09 at Wed Sep 29 04:54:41 2021.
