 Gaussian 09, Revision A.02,

 -----------------------------------
 #p opt b3lyp/6-31G* scf=(xqc,tight)
 -----------------------------------

 ---------------------------
 COCOc1ccc2c(c1)cccc2_conf_0
 ---------------------------
 Symbolic Z-matrix:
 Charge =  0 Multiplicity = 1

 SCF Done:  E(RB3LYP) =  -614.929499665     A.U. after   14 cycles
 SCF Done:  E(RB3LYP) =  -614.935273663     A.U. after   12 cycles
 SCF Done:  E(RB3LYP) =  -614.935789312     A.U. after   11 cycles
 SCF Done:  E(RB3LYP) =  -614.935836693     A.U. after   10 cycles
 SCF Done:  E(RB3LYP) =  -614.935845108     A.U. after    9 cycles
 SCF Done:  E(RB3LYP) =  -614.935848533     A.U. after    9 cycles
 SCF Done:  E(RB3LYP) =  -614.935851803     A.U. after    9 cycles
 SCF Done:  E(RB3LYP) =  -614.935855463     A.U. after   10 cycles
 SCF Done:  E(RB3LYP) =  -614.935857134     A.U. after   10 cycles
 SCF Done:  E(RB3LYP) =  -614.935857312     A.U. after    8 cycles
 Optimization completed.
    -- Stationary point found.
 Normal termination of Gaussian 09 at Thu Sep 30 07:47:24 2021.

 ----------------------------------------------------------------------
 #p freq b3lyp/6-31G* volume NMR pop=NPA density=current Geom=AllCheck
 Guess=Read
 ----------------------------------------------------------------------

 COCOc1ccc2c(c1)cccc2_conf_0
 ---------------------------
 Redundant internal coordinates taken from checkpoint file:
 C12H12O2_4708_conf_0.chk
 Charge =  0 Multiplicity = 1

 SCF Done:  E(RB3LYP) =  -614.935857312     A.U. after    1 cycles

  1  C    Isotropic =   134.8009   Anisotropy =    74.6084

  2  O    Isotropic =   283.4205   Anisotropy =    41.9110

  3  C    Isotropic =    97.1354   Anisotropy =    37.2421

  4  O    Isotropic =   203.9462   Anisotropy =    59.5575

  5  C    Isotropic =    43.6008   Anisotropy =   121.4911

  6  C    Isotropic =    83.8767   Anisotropy =   140.0641

  7  C    Isotropic =    66.1603   Anisotropy =   144.3294

  8  C    Isotropic =    68.2335   Anisotropy =   192.6380

  9  C    Isotropic =    62.2311   Anisotropy =   196.4204

 10  C    Isotropic =    82.2187   Anisotropy =   113.7362

 11  C    Isotropic =    68.9177   Anisotropy =   143.0775

 12  C    Isotropic =    69.6493   Anisotropy =   162.3178

 13  C    Isotropic =    72.7776   Anisotropy =   157.8108

 14  C    Isotropic =    67.8835   Anisotropy =   145.7409

 15  H    Isotropic =    28.5642   Anisotropy =     8.3296

 16  H    Isotropic =    29.2407   Anisotropy =     7.2857

 17  H    Isotropic =    28.1304   Anisotropy =     7.5634

 18  H    Isotropic =    27.2185   Anisotropy =     4.5168

 19  H    Isotropic =    26.6754   Anisotropy =     4.7356

 20  H    Isotropic =    25.5897   Anisotropy =     8.2795

 21  H    Isotropic =    24.6510   Anisotropy =     7.0764

 22  H    Isotropic =    25.1854   Anisotropy =     8.4259

 23  H    Isotropic =    24.6877   Anisotropy =     7.3790

 24  H    Isotropic =    24.8666   Anisotropy =     5.1363

 25  H    Isotropic =    24.9841   Anisotropy =     4.9087

 26  H    Isotropic =    24.6740   Anisotropy =     6.8284

  Exact polarizability: 213.634  -9.379 134.431   5.743   4.966  57.846
 Approx polarizability: 320.880 -17.603 236.814  16.705  12.383  88.582

                     1                      2                      3
                     A                      A                      A
 Frequencies --    24.4865                58.5585               106.2372
 Red. masses --     4.8727                 2.8437                 4.0578
 Frc consts  --     0.0017                 0.0057                 0.0270
 IR Inten    --     0.8800                 1.4186                 0.9904

                     4                      5                      6
                     A                      A                      A
 Frequencies --   135.2708               157.3801               187.6003
 Red. masses --     2.6871                 1.7621                 3.3091
 Frc consts  --     0.0290                 0.0257                 0.0686
 IR Inten    --     0.8353                 2.0559                 1.5353

                     7                      8                      9
                     A                      A                      A
 Frequencies --   196.8070               294.2989               305.1093
 Red. masses --     2.3169                 5.3273                 4.8272
 Frc consts  --     0.0529                 0.2719                 0.2648
 IR Inten    --     3.8873                 0.1546                 2.1936

                    10                     11                     12
                     A                      A                      A
 Frequencies --   335.5005               411.2362               420.1446
 Red. masses --     4.2051                 3.2077                 3.0955
 Frc consts  --     0.2789                 0.3196                 0.3219
 IR Inten    --     7.3401                 1.1302                 1.8469

                    13                     14                     15
                     A                      A                      A
 Frequencies --   485.4810               494.7680               533.4507
 Red. masses --     2.6250                 4.2373                 5.8866
 Frc consts  --     0.3645                 0.6111                 0.9870
 IR Inten    --     9.5960                 7.7662                 3.2725

                    16                     17                     18
                     A                      A                      A
 Frequencies --   541.1587               578.0941               641.1967
 Red. masses --     3.6219                 6.2330                 6.4734
 Frc consts  --     0.6249                 1.2273                 1.5681
 IR Inten    --     0.4260                 0.6370                 0.8192

                    19                     20                     21
                     A                      A                      A
 Frequencies --   651.5943               761.2028               765.4486
 Red. masses --     3.0406                 1.4029                 5.9322
 Frc consts  --     0.7606                 0.4789                 2.0478
 IR Inten    --     0.2794                14.8457                 4.2860

                    22                     23                     24
                     A                      A                      A
 Frequencies --   767.5678               782.8494               816.7218
 Red. masses --     2.8038                 4.7680                 1.4440
 Frc consts  --     0.9732                 1.7216                 0.5675
 IR Inten    --     6.6429                 2.0126                29.0508

                    25                     26                     27
                     A                      A                      A
 Frequencies --   865.2477               891.1262               906.9317
 Red. masses --     1.4443                 1.6031                 5.3741
 Frc consts  --     0.6371                 0.7500                 2.6044
 IR Inten    --    23.2281                12.4569                11.6420

                    28                     29                     30
                     A                      A                      A
 Frequencies --   941.8840               956.2373               972.8279
 Red. masses --     1.2795                 1.3514                 4.2582
 Frc consts  --     0.6688                 0.7281                 2.3744
 IR Inten    --     0.0680                 2.6410                 8.1879

                    31                     32                     33
                     A                      A                      A
 Frequencies --   975.7768               986.6837              1040.0043
 Red. masses --     4.2249                 1.2668                 5.0924
 Frc consts  --     2.3701                 0.7266                 3.2452
 IR Inten    --    29.8162                 0.0331               314.7084

                    34                     35                     36
                     A                      A                      A
 Frequencies --  1049.2722              1139.6785              1157.6960
 Red. masses --     2.3128                 1.5473                 1.7322
 Frc consts  --     1.5003                 1.1841                 1.3678
 IR Inten    --    14.9024                44.2443                52.0820

                    37                     38                     39
                     A                      A                      A
 Frequencies --  1181.8157              1186.6059              1194.9565
 Red. masses --     1.3744                 1.2174                 1.2186
 Frc consts  --     1.1310                 1.0099                 1.0252
 IR Inten    --    56.2880                 3.6915                 4.0732

                    40                     41                     42
                     A                      A                      A
 Frequencies --  1202.3210              1215.2408              1243.7016
 Red. masses --     1.5787                 1.8438                 2.1264
 Frc consts  --     1.3446                 1.6043                 1.9378
 IR Inten    --   244.2236                33.6431               159.9396

                    43                     44                     45
                     A                      A                      A
 Frequencies --  1266.7255              1295.4071              1308.7526
 Red. masses --     2.2136                 1.7508                 2.7985
 Frc consts  --     2.0927                 1.7310                 2.8242
 IR Inten    --    17.6894                 8.7865               225.8446

                    46                     47                     48
                     A                      A                      A
 Frequencies --  1326.3717              1396.7884              1413.6668
 Red. masses --     1.1763                 2.8247                 2.3157
 Frc consts  --     1.2193                 3.2471                 2.7266
 IR Inten    --     8.6502                26.6408                16.2649

                    49                     50                     51
                     A                      A                      A
 Frequencies --  1420.1341              1458.2644              1488.5839
 Red. masses --     5.7109                 1.2398                 2.5763
 Frc consts  --     6.7860                 1.5534                 3.3635
 IR Inten    --     0.1170                53.7243                 4.3569

                    52                     53                     54
                     A                      A                      A
 Frequencies --  1501.2671              1514.7018              1523.9179
 Red. masses --     1.1858                 1.0736                 2.1446
 Frc consts  --     1.5746                 1.4513                 2.9344
 IR Inten    --    34.6480                 6.0088                11.4958

                    55                     56                     57
                     A                      A                      A
 Frequencies --  1537.5292              1552.0974              1567.5868
 Red. masses --     1.0522                 1.2391                 2.5840
 Frc consts  --     1.4656                 1.7587                 3.7411
 IR Inten    --     8.6889                15.1426                45.0027

                    58                     59                     60
                     A                      A                      A
 Frequencies --  1623.0516              1663.2918              1690.4377
 Red. masses --     6.9032                 5.2188                 6.2332
 Frc consts  --    10.7144                 8.5066                10.4944
 IR Inten    --     3.5510                50.2835                78.4993

                    61                     62                     63
                     A                      A                      A
 Frequencies --  2967.5944              3017.7339              3080.6382
 Red. masses --     1.0663                 1.0449                 1.0974
 Frc consts  --     5.5327                 5.6067                 6.1363
 IR Inten    --    55.2801                54.7339                47.5332

                    64                     65                     66
                     A                      A                      A
 Frequencies --  3100.6806              3157.0091              3176.4370
 Red. masses --     1.0922                 1.1028                 1.0858
 Frc consts  --     6.1867                 6.4759                 6.4550
 IR Inten    --    33.9161                35.0471                 3.2164

                    67                     68                     69
                     A                      A                      A
 Frequencies --  3181.1691              3184.5045              3195.2423
 Red. masses --     1.0879                 1.0886                 1.0933
 Frc consts  --     6.4867                 6.5043                 6.5767
 IR Inten    --     1.4563                11.3598                33.0204

                    70                     71                     72
                     A                      A                      A
 Frequencies --  3204.4458              3208.5294              3222.9522
 Red. masses --     1.0907                 1.0969                 1.0921
 Frc consts  --     6.5989                 6.6529                 6.6835
 IR Inten    --    12.5443                30.0672                15.3965

 - Thermochemistry -
 -------------------
 Temperature   298.150 Kelvin.  Pressure   1.00000 Atm.
 Atom     1 has atomic number  6 and mass  12.00000

 Molecular mass:   188.08373 amu.
 Principal axes and moments of inertia in atomic units:
                           1         2         3
     Eigenvalues --   804.556215815.090536473.69701
           X            0.99998   0.00225  -0.00669
           Y           -0.00228   0.99999  -0.00401
           Z            0.00668   0.00403   0.99997
 This molecule is an asymmetric top.
 Rotational symmetry number  1.
 Warning -- assumption of classical behavior for rotation
           may cause significant error
 Rotational temperatures (Kelvin)      0.10765     0.01489     0.01338
 Rotational constants (GHZ):           2.24315     0.31035     0.27878
 Zero-point vibrational energy     561082.6 (Joules/Mol)
                                  134.10196 (Kcal/Mol)
 Warning -- explicit consideration of  17 degrees of freedom as
           vibrations may cause significant error
 Vibrational temperatures:     35.23    84.25   152.85   194.62   226.43
          (Kelvin)            269.91   283.16   423.43   438.98   482.71
                              591.68   604.49   698.50   711.86   767.52
                              778.61   831.75   922.54   937.50  1095.20
                             1101.31  1104.36  1126.34  1175.08  1244.90
                             1282.13  1304.87  1355.16  1375.81  1399.68
                             1403.92  1419.62  1496.33  1509.67  1639.74
                             1665.66  1700.37  1707.26  1719.27  1729.87
                             1748.46  1789.41  1822.53  1863.80  1883.00
                             1908.35  2009.66  2033.95  2043.25  2098.11
                             2141.74  2159.99  2179.32  2192.58  2212.16
                             2233.12  2255.40  2335.21  2393.10  2432.16
                             4269.70  4341.84  4432.35  4461.18  4542.23
                             4570.18  4576.99  4581.79  4597.24  4610.48
                             4616.35  4637.10

 Zero-point correction=                           0.213705 (Hartree/Particle)
 Thermal correction to Energy=                    0.225642
 Thermal correction to Enthalpy=                  0.226586
 Thermal correction to Gibbs Free Energy=         0.174400
 Sum of electronic and zero-point Energies=           -614.722152
 Sum of electronic and thermal Energies=              -614.710215
 Sum of electronic and thermal Enthalpies=            -614.709271
 Sum of electronic and thermal Free Energies=         -614.761458

                     E (Thermal)             CV                S
                      KCal/Mol        Cal/Mol-Kelvin    Cal/Mol-Kelvin
 Total                  141.593             46.053            109.836
 Electronic               0.000              0.000              0.000
 Translational            0.889              2.981             41.601
 Rotational               0.889              2.981             31.783
 Vibrational            139.815             40.091             36.453
 Vibration     1          0.593              1.985              6.232
 Vibration     2          0.596              1.974              4.505
 Vibration     3          0.605              1.944              3.337
 Vibration     4          0.613              1.918              2.870
 Vibration     5          0.621              1.894              2.581
 Vibration     6          0.632              1.857              2.251
 Vibration     7          0.636              1.844              2.163
 Vibration     8          0.689              1.684              1.449
 Vibration     9          0.696              1.664              1.389
 Vibration    10          0.717              1.605              1.233
 Vibration    11          0.775              1.446              0.922
 Vibration    12          0.783              1.426              0.891
 Vibration    13          0.842              1.282              0.695
 Vibration    14          0.850              1.262              0.671
 Vibration    15          0.888              1.176              0.580
 Vibration    16          0.896              1.159              0.563
 Vibration    17          0.935              1.079              0.489

 Normal termination of Gaussian 09 at Thu Sep 30 08:39:31 2021.
 Gaussian 09:  AM64L-G09RevA.02 11-Jun-2009

 ----------------------------------------------------------------------
 #p TD(NStates=10, Root=1) b3lyp/6-31G* volume pop=NPA density=current
 Geom=AllCheck Guess=Read
 ----------------------------------------------------------------------

 COCOc1ccc2c(c1)cccc2_conf_0
 ---------------------------
 Redundant internal coordinates taken from checkpoint file:
 C12H12O2_4708_conf_0.chk
 Charge =  0 Multiplicity = 1

                         Standard orientation:
 ---------------------------------------------------------------------
 Center     Atomic      Atomic             Coordinates (Angstroms)
 Number     Number       Type             X           Y           Z
 ---------------------------------------------------------------------
      1          6           0       -4.636173   -0.914316    0.762518
      2          8           0       -4.369358   -0.021325   -0.314095
      3          6           0       -3.155966    0.628736   -0.218824
      4          8           0       -2.106547   -0.322993   -0.390252
      5          6           0       -0.809339    0.077200   -0.225083
      6          6           0       -0.422854    1.434786   -0.060414
      7          6           0        0.909358    1.755615    0.086588
      8          6           0        1.918926    0.761499    0.074340
      9          6           0        1.523418   -0.607003   -0.097452
     10          6           0        0.151310   -0.917378   -0.242652
     11          6           0        2.533972   -1.609745   -0.112516
     12          6           0        3.860397   -1.276329    0.033950
     13          6           0        4.249622    0.077077    0.203470
     14          6           0        3.298227    1.070536    0.222786
     15          1           0       -5.658265   -1.271754    0.621296
     16          1           0       -4.563887   -0.396428    1.731032
     17          1           0       -3.945877   -1.764751    0.758722
     18          1           0       -3.033590    1.126263    0.759640
     19          1           0       -3.133485    1.370693   -1.025706
     20          1           0       -1.165136    2.225161   -0.056236
     21          1           0        1.199007    2.796348    0.211897
     22          1           0       -0.164894   -1.948364   -0.372430
     23          1           0        2.237795   -2.647876   -0.243068
     24          1           0        4.619658   -2.053890    0.019657
     25          1           0        5.301455    0.324351    0.317586
     26          1           0        3.589075    2.110714    0.352127
 ---------------------------------------------------------------------

 SCF Done:  E(RB3LYP) =  -614.935857312     A.U. after    1 cycles

 Excitation energies and oscillator strengths:

 Excited State   1:      Singlet-A      4.0963 eV  302.68 nm  f=0.0552  <S**2>=0.000
      49 -> 51         0.13900
      49 -> 52         0.15563
      50 -> 51         0.65506
      50 -> 52        -0.15374
 This state for optimization and/or second-order correction.
 Total Energy, E(TD-HF/TD-KS) =  -614.785322382
 Copying the excited state density for this state as the 1-particle RhoCI density.

 Excited State   2:      Singlet-A      4.5189 eV  274.37 nm  f=0.0090  <S**2>=0.000
      49 -> 51         0.50375
      50 -> 51        -0.21240
      50 -> 52        -0.44100

 Excited State   3:      Singlet-A      5.5547 eV  223.21 nm  f=0.2420  <S**2>=0.000
      48 -> 51         0.43773
      49 -> 51         0.26145
      50 -> 52         0.25879
      50 -> 53        -0.39699

 Excited State   4:      Singlet-A      5.8295 eV  212.68 nm  f=0.9462  <S**2>=0.000
      48 -> 51        -0.11455
      49 -> 51         0.36192
      49 -> 52         0.12104
      50 -> 52         0.42425
      50 -> 53         0.37228

 Excited State   5:      Singlet-A      5.9389 eV  208.76 nm  f=0.0661  <S**2>=0.000
      46 -> 51         0.17594
      48 -> 51        -0.26262
      48 -> 52         0.19109
      49 -> 52         0.47380
      49 -> 53        -0.16871
      50 -> 53        -0.27654

 Excited State   6:      Singlet-A      6.1000 eV  203.25 nm  f=0.0167  <S**2>=0.000
      47 -> 51         0.65795
      48 -> 51        -0.19432
      49 -> 52        -0.12352

 Excited State   7:      Singlet-A      6.2646 eV  197.91 nm  f=0.2440  <S**2>=0.000
      47 -> 51         0.17274
      48 -> 51         0.29381
      48 -> 52        -0.15918
      49 -> 51        -0.13210
      49 -> 52         0.41681
      49 -> 53         0.28855
      50 -> 52        -0.10712
      50 -> 53         0.20461

 Excited State   8:      Singlet-A      6.5038 eV  190.63 nm  f=0.0979  <S**2>=0.000
      46 -> 51         0.29890
      47 -> 51        -0.10840
      48 -> 51        -0.26646
      48 -> 52        -0.20031
      49 -> 53         0.47344
      50 -> 52         0.10051
      50 -> 53        -0.15223

 Excited State   9:      Singlet-A      6.6766 eV  185.70 nm  f=0.0320  <S**2>=0.000
      46 -> 51         0.52857
      48 -> 51         0.14367
      48 -> 52         0.29953
      49 -> 52        -0.12833
      50 -> 53         0.22657

 Excited State  10:      Singlet-A      6.7818 eV  182.82 nm  f=0.0016  <S**2>=0.000
      44 -> 51        -0.22831
      45 -> 51         0.64589

 The electronic state is 1-A.
 Alpha  occ. eigenvalues --  -19.17638 -19.16483 -10.29201 -10.25048 -10.23243
 Alpha  occ. eigenvalues --  -10.19681 -10.19480 -10.19410 -10.19272 -10.18820
 Alpha  occ. eigenvalues --  -10.18807 -10.18595 -10.18588 -10.18205  -1.08637
 Alpha  occ. eigenvalues --   -1.03032  -0.86822  -0.81571  -0.77187  -0.74512
 Alpha  occ. eigenvalues --   -0.73089  -0.70975  -0.65051  -0.62618  -0.59896
 Alpha  occ. eigenvalues --   -0.59342  -0.54337  -0.51508  -0.51273  -0.50973
 Alpha  occ. eigenvalues --   -0.48426  -0.46459  -0.44764  -0.43989  -0.42273
 Alpha  occ. eigenvalues --   -0.42056  -0.41521  -0.40918  -0.39007  -0.38706
 Alpha  occ. eigenvalues --   -0.35990  -0.34935  -0.34423  -0.32837  -0.32583
 Alpha  occ. eigenvalues --   -0.30074  -0.28097  -0.27474  -0.23206  -0.20215
 Alpha virt. eigenvalues --   -0.03564   0.00062   0.03606   0.09172   0.09489
 Alpha virt. eigenvalues --    0.10769   0.11043   0.12410   0.12619   0.13609
 Alpha virt. eigenvalues --    0.15010   0.15591   0.17146   0.17257   0.17768

 Mulliken atomic charges:
              1
     1  C   -0.216693
     2  O   -0.446674
     3  C    0.183354
     4  O   -0.483769
     5  C    0.387334
     6  C   -0.218355
     7  C   -0.220365
     8  C    0.155056
     9  C    0.142448
    10  C   -0.258351
    11  C   -0.205242
    12  C   -0.157430
    13  C   -0.113825
    14  C   -0.216810
    15  H    0.170564
    16  H    0.139190
    17  H    0.165930
    18  H    0.141941
    19  H    0.170083
    20  H    0.122594
    21  H    0.127431
    22  H    0.142681
    23  H    0.119423
    24  H    0.116781
    25  H    0.130445
    26  H    0.122258
 Sum of Mulliken atomic charges =  -0.00000

 Dipole moment (field-independent basis, Debye):
    X=             -2.0106    Y=              0.4183    Z=              1.1973  Tot=              2.3772
 Quadrupole moment (field-independent basis, Debye-Ang):
   XX=            -74.7941   YY=            -74.8686   ZZ=            -84.8753
   XY=              1.4488   XZ=             -4.9254   YZ=             -0.4113

 Summary of Natural Population Analysis:

                                       Natural Population
                Natural  -----------------------------------------------
    Atom  No    Charge         Core      Valence    Rydberg      Total
 -----------------------------------------------------------------------
      C    1   -0.32145      1.99944     4.30773    0.01427     6.32145
      O    2   -0.55902      1.99980     6.54668    0.01254     8.55902
      C    3    0.20974      1.99938     3.76381    0.02707     5.79026
      O    4   -0.48109      1.99973     6.46954    0.01182     8.48109
      C    5    0.36291      1.99879     3.61576    0.02254     5.63709
      C    6   -0.38488      1.99905     4.37109    0.01474     6.38488
      C    7   -0.20855      1.99907     4.19311    0.01637     6.20855
      C    8   -0.04778      1.99902     4.03374    0.01502     6.04778
      C    9   -0.05653      1.99903     4.04222    0.01528     6.05653
      C   10   -0.23471      1.99900     4.21959    0.01613     6.23471
      C   11   -0.22816      1.99906     4.21360    0.01550     6.22816
      C   12   -0.29287      1.99912     4.27754    0.01621     6.29287
      C   13   -0.17112      1.99910     4.15740    0.01462     6.17112
      C   14   -0.25136      1.99906     4.23680    0.01549     6.25136
      H   15    0.22613      0.00000     0.77330    0.00057     0.77387
      H   16    0.19384      0.00000     0.80443    0.00173     0.80616
      H   17    0.21077      0.00000     0.78742    0.00181     0.78923
      H   18    0.18801      0.00000     0.80881    0.00317     0.81199
      H   19    0.22006      0.00000     0.77811    0.00183     0.77994
      H   20    0.23100      0.00000     0.76814    0.00086     0.76900
      H   21    0.23253      0.00000     0.76633    0.00114     0.76747
      H   22    0.24275      0.00000     0.75562    0.00163     0.75725
      H   23    0.22706      0.00000     0.77180    0.00114     0.77294
      H   24    0.23136      0.00000     0.76784    0.00080     0.76864
      H   25    0.23263      0.00000     0.76650    0.00087     0.76737
      H   26    0.22874      0.00000     0.77013    0.00113     0.77126
 =======================================================================
   * Total *   -0.00000     27.98866    71.76705    0.24429   100.00000

 Normal termination of Gaussian 09 at Thu Sep 30 12:42:36 2021.
