 Gaussian 09, Revision A.02,

 -----------------------------------
 #p opt b3lyp/6-31G* scf=(xqc,tight)
 -----------------------------------

 --------------------------
 CCOc1ccc2c(c1)cccc2_conf_0
 --------------------------
 Symbolic Z-matrix:
 Charge =  0 Multiplicity = 1

 SCF Done:  E(RB3LYP) =  -539.729329654     A.U. after   14 cycles
 SCF Done:  E(RB3LYP) =  -539.733175795     A.U. after   12 cycles
 SCF Done:  E(RB3LYP) =  -539.733412588     A.U. after   11 cycles
 SCF Done:  E(RB3LYP) =  -539.733426709     A.U. after   10 cycles
 SCF Done:  E(RB3LYP) =  -539.733429458     A.U. after    8 cycles
 SCF Done:  E(RB3LYP) =  -539.733429690     A.U. after    7 cycles
 SCF Done:  E(RB3LYP) =  -539.733429747     A.U. after    7 cycles
 SCF Done:  E(RB3LYP) =  -539.733429806     A.U. after    7 cycles
 SCF Done:  E(RB3LYP) =  -539.733429832     A.U. after    7 cycles
 Optimization completed.
    -- Stationary point found.
 Normal termination of Gaussian 09 at Tue Sep 28 14:51:24 2021.

 ----------------------------------------------------------------------
 #p freq b3lyp/6-31G* volume NMR pop=NPA density=current Geom=AllCheck
 Guess=Read
 ----------------------------------------------------------------------

 CCOc1ccc2c(c1)cccc2_conf_0
 --------------------------
 Redundant internal coordinates taken from checkpoint file:
 C12H12O_d53c_conf_0.chk
 Charge =  0 Multiplicity = 1

 SCF Done:  E(RB3LYP) =  -539.733429832     A.U. after    1 cycles

  1  C    Isotropic =   173.6663   Anisotropy =    21.7550

  2  C    Isotropic =   128.5215   Anisotropy =    55.1356

  3  O    Isotropic =   216.9134   Anisotropy =    64.2700

  4  C    Isotropic =    41.1821   Anisotropy =   121.8679

  5  C    Isotropic =    84.3717   Anisotropy =   143.7736

  6  C    Isotropic =    66.2725   Anisotropy =   143.9049

  7  C    Isotropic =    68.3069   Anisotropy =   191.9288

  8  C    Isotropic =    62.3105   Anisotropy =   195.8738

  9  C    Isotropic =    82.4354   Anisotropy =   111.9497

 10  C    Isotropic =    68.9280   Anisotropy =   142.7165

 11  C    Isotropic =    69.8332   Anisotropy =   161.6659

 12  C    Isotropic =    73.1001   Anisotropy =   157.0106

 13  C    Isotropic =    67.9148   Anisotropy =   145.4288

 14  H    Isotropic =    31.0775   Anisotropy =     9.1332

 15  H    Isotropic =    30.5644   Anisotropy =     7.6148

 16  H    Isotropic =    30.5644   Anisotropy =     7.6146

 17  H    Isotropic =    28.1966   Anisotropy =     5.8029

 18  H    Isotropic =    28.1964   Anisotropy =     5.8035

 19  H    Isotropic =    25.3687   Anisotropy =     8.6016

 20  H    Isotropic =    24.6097   Anisotropy =     7.1812

 21  H    Isotropic =    25.1725   Anisotropy =     8.5120

 22  H    Isotropic =    24.6871   Anisotropy =     7.3913

 23  H    Isotropic =    24.8859   Anisotropy =     5.1150

 24  H    Isotropic =    25.0007   Anisotropy =     4.9046

 25  H    Isotropic =    24.6674   Anisotropy =     6.8599

  Exact polarizability: 212.124  -8.247 130.623   0.002   0.000  53.816
 Approx polarizability: 318.790 -14.016 232.718   0.005   0.001  81.800

                     1                      2                      3
                     A                      A                      A
 Frequencies --    45.2960               107.0641               135.0798
 Red. masses --     3.8974                 1.7139                 5.3455
 Frc consts  --     0.0047                 0.0116                 0.0575
 IR Inten    --     1.6410                 1.1764                 0.0315

                     4                      5                      6
                     A                      A                      A
 Frequencies --   135.8402               190.8861               257.5895
 Red. masses --     3.5284                 3.5668                 1.1757
 Frc consts  --     0.0384                 0.0766                 0.0460
 IR Inten    --     0.6007                 0.5919                 0.3784

                     7                      8                      9
                     A                      A                      A
 Frequencies --   306.1099               308.4236               313.5498
 Red. masses --     4.9874                 3.6606                 4.7280
 Frc consts  --     0.2753                 0.2052                 0.2739
 IR Inten    --     1.1721                 0.1783                 0.6812

                    10                     11                     12
                     A                      A                      A
 Frequencies --   414.7082               437.5919               486.1073
 Red. masses --     3.4019                 3.8624                 2.5714
 Frc consts  --     0.3447                 0.4358                 0.3580
 IR Inten    --     0.1262                 0.2711                 9.3205

                    13                     14                     15
                     A                      A                      A
 Frequencies --   528.2250               543.1305               569.3164
 Red. masses --     6.6087                 3.6135                 5.6959
 Frc consts  --     1.0864                 0.6280                 1.0877
 IR Inten    --     0.0286                 0.1606                 4.8053

                    16                     17                     18
                     A                      A                      A
 Frequencies --   635.7972               653.9747               738.6532
 Red. masses --     6.4164                 2.9774                 5.1571
 Frc consts  --     1.5282                 0.7502                 1.6578
 IR Inten    --     5.4526                 0.0012                10.6951

                    19                     20                     21
                     A                      A                      A
 Frequencies --   762.6309               767.9075               783.4469
 Red. masses --     1.3401                 2.9572                 4.8002
 Frc consts  --     0.4592                 1.0274                 1.7359
 IR Inten    --    17.1188                 4.8046                 1.1322

                    22                     23                     24
                     A                      A                      A
 Frequencies --   817.1333               848.8277               867.5640
 Red. masses --     1.3952                 1.1025                 1.4537
 Frc consts  --     0.5489                 0.4680                 0.6446
 IR Inten    --    30.3929                 0.0052                24.5327

                    25                     26                     27
                     A                      A                      A
 Frequencies --   879.3438               891.8427               944.8983
 Red. masses --     3.6062                 1.5970                 1.2764
 Frc consts  --     1.6429                 0.7484                 0.6714
 IR Inten    --     3.6671                13.5515                 0.3719

                    28                     29                     30
                     A                      A                      A
 Frequencies --   946.8744               956.9241               986.3419
 Red. masses --     3.2392                 1.3434                 1.2636
 Frc consts  --     1.7111                 0.7248                 0.7243
 IR Inten    --     1.7817                 2.6433                 0.0349

                    31                     32                     33
                     A                      A                      A
 Frequencies --   988.0725              1048.4779              1077.0525
 Red. masses --     2.8732                 2.3084                 3.0577
 Frc consts  --     1.6527                 1.4952                 2.0899
 IR Inten    --    11.2804                 3.3712                53.1843

                    34                     35                     36
                     A                      A                      A
 Frequencies --  1151.4922              1161.4079              1186.6097
 Red. masses --     2.0665                 1.8009                 1.2158
 Frc consts  --     1.6144                 1.4312                 1.0086
 IR Inten    --     7.5227                50.0129                 2.6527

                    37                     38                     39
                     A                      A                      A
 Frequencies --  1194.3445              1195.0118              1209.0581
 Red. masses --     1.2021                 1.4954                 1.6013
 Frc consts  --     1.0103                 1.2582                 1.3792
 IR Inten    --    10.0858                 4.0929               113.5474

                    40                     41                     42
                     A                      A                      A
 Frequencies --  1266.0835              1295.5099              1311.3306
 Red. masses --     2.1479                 1.7571                 3.0560
 Frc consts  --     2.0285                 1.7375                 3.0962
 IR Inten    --    52.2452                 7.0941               325.1310

                    43                     44                     45
                     A                      A                      A
 Frequencies --  1317.9180              1393.3071              1410.4517
 Red. masses --     1.1128                 2.6086                 1.9096
 Frc consts  --     1.1388                 2.9836                 2.2382
 IR Inten    --     0.2039                44.5135                 9.9194

                    46                     47                     48
                     A                      A                      A
 Frequencies --  1420.0592              1428.8748              1454.2973
 Red. masses --     5.2266                 1.5118                 1.4509
 Frc consts  --     6.2099                 1.8185                 1.8080
 IR Inten    --     0.1972                 0.5647                29.5793

                    49                     50                     51
                     A                      A                      A
 Frequencies --  1489.5246              1514.6219              1520.9951
 Red. masses --     2.5974                 1.0401                 2.1909
 Frc consts  --     3.3953                 1.4058                 2.9863
 IR Inten    --     5.7532                 5.1334                47.3792

                    52                     53                     54
                     A                      A                      A
 Frequencies --  1531.1041              1553.9505              1568.7289
 Red. masses --     1.0590                 1.2485                 2.5202
 Frc consts  --     1.4626                 1.7763                 3.6541
 IR Inten    --     3.1466                37.0513                41.9624

                    55                     56                     57
                     A                      A                      A
 Frequencies --  1623.5307              1663.2166              1690.4463
 Red. masses --     6.9600                 5.2149                 6.2407
 Frc consts  --    10.8089                 8.4996                10.5071
 IR Inten    --     3.9242                57.0238                86.9438

                    58                     59                     60
                     A                      A                      A
 Frequencies --  3014.2341              3051.5186              3063.1280
 Red. masses --     1.0554                 1.1089                 1.0352
 Frc consts  --     5.6496                 6.0839                 5.7229
 IR Inten    --    40.5953                39.7444                21.9247

                    61                     62                     63
                     A                      A                      A
 Frequencies --  3134.5148              3141.4778              3175.0030
 Red. masses --     1.1024                 1.1041                 1.0859
 Frc consts  --     6.3815                 6.4198                 6.4495
 IR Inten    --    25.4598                28.0737                 3.2882

                    64                     65                     66
                     A                      A                      A
 Frequencies --  3180.0694              3183.1813              3194.1656
 Red. masses --     1.0878                 1.0888                 1.0933
 Frc consts  --     6.4815                 6.5002                 6.5719
 IR Inten    --     1.7430                12.6819                34.1947

                    67                     68                     69
                     A                      A                      A
 Frequencies --  3202.8635              3207.4783              3231.3546
 Red. masses --     1.0906                 1.0969                 1.0911
 Frc consts  --     6.5917                 6.6488                 6.7122
 IR Inten    --    12.5559                31.4847                13.4009

 - Thermochemistry -
 -------------------
 Temperature   298.150 Kelvin.  Pressure   1.00000 Atm.
 Atom     1 has atomic number  6 and mass  12.00000

 Molecular mass:   172.08882 amu.
 Principal axes and moments of inertia in atomic units:
                           1         2         3
     Eigenvalues --   684.059654517.983395179.33395
           X            1.00000  -0.00107  -0.00000
           Y            0.00107   1.00000  -0.00000
           Z            0.00000   0.00000   1.00000
 This molecule is an asymmetric top.
 Rotational symmetry number  1.
 Warning -- assumption of classical behavior for rotation
           may cause significant error
 Rotational temperatures (Kelvin)      0.12662     0.01917     0.01672
 Rotational constants (GHZ):           2.63828     0.39946     0.34845
 Zero-point vibrational energy     548521.0 (Joules/Mol)
                                  131.09966 (Kcal/Mol)
 Warning -- explicit consideration of  15 degrees of freedom as
           vibrations may cause significant error
 Vibrational temperatures:     65.17   154.04   194.35   195.44   274.64
          (Kelvin)            370.61   440.42   443.75   451.13   596.67
                              629.60   699.40   760.00   781.44   819.12
                              914.77   940.92  1062.76  1097.25  1104.85
                             1127.20  1175.67  1221.27  1248.23  1265.18
                             1283.16  1359.50  1362.34  1376.80  1419.12
                             1421.61  1508.52  1549.64  1656.74  1671.00
                             1707.26  1718.39  1719.35  1739.56  1821.61
                             1863.95  1886.71  1896.19  2004.66  2029.32
                             2043.15  2055.83  2092.41  2143.09  2179.20
                             2188.37  2202.91  2235.79  2257.05  2335.90
                             2392.99  2432.17  4336.81  4390.45  4407.15
                             4509.86  4519.88  4568.12  4575.40  4579.88
                             4595.69  4608.20  4614.84  4649.19

 Zero-point correction=                           0.208921 (Hartree/Particle)
 Thermal correction to Energy=                    0.219752
 Thermal correction to Enthalpy=                  0.220696
 Thermal correction to Gibbs Free Energy=         0.172040
 Sum of electronic and zero-point Energies=           -539.524509
 Sum of electronic and thermal Energies=              -539.513678
 Sum of electronic and thermal Enthalpies=            -539.512733
 Sum of electronic and thermal Free Energies=         -539.561389

                     E (Thermal)             CV                S
                      KCal/Mol        Cal/Mol-Kelvin    Cal/Mol-Kelvin
 Total                  137.897             42.996            102.405
 Electronic               0.000              0.000              0.000
 Translational            0.889              2.981             41.336
 Rotational               0.889              2.981             31.149
 Vibrational            136.119             37.034             29.920
 Vibration     1          0.595              1.979              5.013
 Vibration     2          0.606              1.944              3.321
 Vibration     3          0.613              1.918              2.872
 Vibration     4          0.614              1.918              2.862
 Vibration     5          0.634              1.852              2.219
 Vibration     6          0.667              1.750              1.678
 Vibration     7          0.696              1.662              1.383
 Vibration     8          0.698              1.658              1.371
 Vibration     9          0.701              1.648              1.344
 Vibration    10          0.778              1.438              0.910
 Vibration    11          0.798              1.388              0.834
 Vibration    12          0.842              1.281              0.694
 Vibration    13          0.883              1.188              0.591
 Vibration    14          0.898              1.155              0.559
 Vibration    15          0.925              1.098              0.506

 Optimization completed.
    -- Stationary point found.
 Normal termination of Gaussian 09 at Tue Sep 28 14:59:59 2021.
 Gaussian 09:  AM64L-G09RevA.02 11-Jun-2009

 ----------------------------------------------------------------------
 #p TD(NStates=10, Root=1) b3lyp/6-31G* volume pop=NPA density=current
 Geom=AllCheck Guess=Read
 ----------------------------------------------------------------------

 CCOc1ccc2c(c1)cccc2_conf_0
 --------------------------
 Redundant internal coordinates taken from checkpoint file:
 C12H12O_d53c_conf_0.chk
 Charge =  0 Multiplicity = 1

                         Standard orientation:
 ---------------------------------------------------------------------
 Center     Atomic      Atomic             Coordinates (Angstroms)
 Number     Number       Type             X           Y           Z
 ---------------------------------------------------------------------
      1          6           0       -4.848813   -0.498030    0.000115
      2          6           0       -3.575805    0.331022    0.000055
      3          8           0       -2.475816   -0.577088   -0.000133
      4          6           0       -1.201188   -0.084651   -0.000076
      5          6           0       -0.891037    1.301432   -0.000058
      6          6           0        0.425195    1.710268   -0.000020
      7          6           0        1.493117    0.779055   -0.000000
      8          6           0        1.174436   -0.620000   -0.000017
      9          6           0       -0.181682   -1.020037   -0.000052
     10          6           0        2.243633   -1.560365    0.000005
     11          6           0        3.553184   -1.139716    0.000038
     12          6           0        3.866314    0.243822    0.000053
     13          6           0        2.857042    1.178679    0.000034
     14          1           0       -5.725995    0.158001    0.000189
     15          1           0       -4.891711   -1.137254    0.887466
     16          1           0       -4.891818   -1.137188   -0.887279
     17          1           0       -3.531206    0.976683    0.888934
     18          1           0       -3.531393    0.976821   -0.888733
     19          1           0       -1.681686    2.042791   -0.000075
     20          1           0        0.656167    2.773098   -0.000007
     21          1           0       -0.440520   -2.074977   -0.000062
     22          1           0        2.005587   -2.621454   -0.000007
     23          1           0        4.357619   -1.870651    0.000055
     24          1           0        4.905715    0.560514    0.000077
     25          1           0        3.089399    2.241444    0.000045
 ---------------------------------------------------------------------

 SCF Done:  E(RB3LYP) =  -539.733429832     A.U. after    1 cycles

 Excitation energies and oscillator strengths:

 Excited State   1:      Singlet-A      4.0779 eV  304.04 nm  f=0.0574  <S**2>=0.000
      45 -> 47         0.13290
      45 -> 48         0.15483
      46 -> 47         0.65757
      46 -> 48        -0.14911
 This state for optimization and/or second-order correction.
 Total Energy, E(TD-HF/TD-KS) =  -539.583567952
 Copying the excited state density for this state as the 1-particle RhoCI density.

 Excited State   2:      Singlet-A      4.5188 eV  274.38 nm  f=0.0089  <S**2>=0.000
      45 -> 47         0.50533
      46 -> 47        -0.20511
      46 -> 48        -0.44213

 Excited State   3:      Singlet-A      5.5488 eV  223.44 nm  f=0.2404  <S**2>=0.000
      44 -> 47         0.44021
      45 -> 47         0.26337
      46 -> 48         0.25705
      46 -> 49        -0.40373

 Excited State   4:      Singlet-A      5.8186 eV  213.08 nm  f=0.9387  <S**2>=0.000
      44 -> 47        -0.11479
      45 -> 47         0.36106
      45 -> 48         0.12941
      46 -> 48         0.42682
      46 -> 49         0.37056

 Excited State   5:      Singlet-A      5.9305 eV  209.06 nm  f=0.0605  <S**2>=0.000
      43 -> 47         0.17759
      44 -> 47        -0.25299
      44 -> 48         0.19634
      45 -> 48         0.47512
      45 -> 49        -0.17129
      46 -> 49        -0.28381

 Excited State   6:      Singlet-A      6.2591 eV  198.08 nm  f=0.2553  <S**2>=0.000
      44 -> 47         0.33325
      44 -> 48        -0.15009
      45 -> 47        -0.13330
      45 -> 48         0.42654
      45 -> 49         0.28849
      46 -> 48        -0.10608
      46 -> 49         0.19769

 Excited State   7:      Singlet-A      6.5081 eV  190.51 nm  f=0.1108  <S**2>=0.000
      43 -> 47         0.28332
      44 -> 47        -0.29341
      44 -> 48        -0.20277
      45 -> 48        -0.10083
      45 -> 49         0.48337
      46 -> 48         0.10429
      46 -> 49        -0.15079

 Excited State   8:      Singlet-A      6.6831 eV  185.52 nm  f=0.0377  <S**2>=0.000
      43 -> 47         0.53964
      44 -> 47         0.14384
      44 -> 48         0.31498
      45 -> 48        -0.13648
      46 -> 49         0.21689

 Excited State   9:      Singlet-A      6.7093 eV  184.80 nm  f=0.0000  <S**2>=0.000
      41 -> 47        -0.15606
      42 -> 47         0.68137

 Excited State  10:      Singlet-A      7.0973 eV  174.69 nm  f=0.0002  <S**2>=0.000
      46 -> 50         0.60399
      46 -> 51        -0.34770

 The electronic state is 1-A.
 Alpha  occ. eigenvalues --  -19.17250 -10.24499 -10.24453 -10.19326 -10.19096
 Alpha  occ. eigenvalues --  -10.18946 -10.18912 -10.18520 -10.18509 -10.18476
 Alpha  occ. eigenvalues --  -10.18290 -10.18281 -10.17779  -1.05906  -0.86512
 Alpha  occ. eigenvalues --   -0.81465  -0.77681  -0.75976  -0.72866  -0.70834
 Alpha  occ. eigenvalues --   -0.63962  -0.62100  -0.59291  -0.58810  -0.53271
 Alpha  occ. eigenvalues --   -0.50941  -0.49803  -0.48390  -0.45980  -0.44474
 Alpha  occ. eigenvalues --   -0.43000  -0.41698  -0.40896  -0.39997  -0.39284
 Alpha  occ. eigenvalues --   -0.38987  -0.37754  -0.37459  -0.34148  -0.33961
 Alpha  occ. eigenvalues --   -0.33545  -0.31826  -0.29738  -0.27165  -0.22828
 Alpha  occ. eigenvalues --   -0.19800
 Alpha virt. eigenvalues --   -0.03213   0.00451   0.03951   0.09512   0.09962
 Alpha virt. eigenvalues --    0.11184   0.11627   0.12473   0.13359   0.14797
 Alpha virt. eigenvalues --    0.15418   0.17088   0.17450   0.17781   0.19021

 Mulliken atomic charges:
              1
     1  C   -0.460809
     2  C   -0.041894
     3  O   -0.476083
     4  C    0.393475
     5  C   -0.217857
     6  C   -0.219513
     7  C    0.154769
     8  C    0.143322
     9  C   -0.258993
    10  C   -0.207330
    11  C   -0.157961
    12  C   -0.114367
    13  C   -0.218728
    14  H    0.155818
    15  H    0.168450
    16  H    0.168452
    17  H    0.161124
    18  H    0.161122
    19  H    0.120117
    20  H    0.125773
    21  H    0.141539
    22  H    0.117045
    23  H    0.114681
    24  H    0.128168
    25  H    0.119682
 Sum of Mulliken atomic charges =  -0.00000

 Dipole moment (field-independent basis, Debye):
    X=             -3.2612    Y=              0.7356    Z=              0.0002  Tot=              3.3431
 Quadrupole moment (field-independent basis, Debye-Ang):
   XX=            -62.3241   YY=            -71.7418   ZZ=            -79.9842
   XY=             -1.2537   XZ=             -0.0004   YZ=             -0.0000

 Summary of Natural Population Analysis:

                                       Natural Population
                Natural  -----------------------------------------------
    Atom  No    Charge         Core      Valence    Rydberg      Total
 -----------------------------------------------------------------------
      C    1   -0.69760      1.99945     4.68986    0.00828     6.69760
      C    2   -0.11280      1.99927     4.09867    0.01486     6.11280
      O    3   -0.46193      1.99974     6.44994    0.01225     8.46193
      C    4    0.36851      1.99880     3.61036    0.02233     5.63149
      C    5   -0.38440      1.99905     4.37060    0.01475     6.38440
      C    6   -0.20760      1.99907     4.19230    0.01623     6.20760
      C    7   -0.04713      1.99902     4.03310    0.01501     6.04713
      C    8   -0.05701      1.99903     4.04271    0.01527     6.05701
      C    9   -0.23203      1.99900     4.21705    0.01599     6.23203
      C   10   -0.23301      1.99906     4.21838    0.01557     6.23301
      C   11   -0.29348      1.99912     4.27814    0.01623     6.29348
      C   12   -0.17295      1.99910     4.15922    0.01462     6.17295
      C   13   -0.25648      1.99906     4.24187    0.01554     6.25648
      H   14    0.24089      0.00000     0.75845    0.00066     0.75911
      H   15    0.24056      0.00000     0.75818    0.00126     0.75944
      H   16    0.24056      0.00000     0.75817    0.00126     0.75944
      H   17    0.22215      0.00000     0.77541    0.00243     0.77785
      H   18    0.22215      0.00000     0.77542    0.00243     0.77785
      H   19    0.23198      0.00000     0.76721    0.00082     0.76802
      H   20    0.23162      0.00000     0.76724    0.00114     0.76838
      H   21    0.24215      0.00000     0.75619    0.00165     0.75785
      H   22    0.22611      0.00000     0.77275    0.00114     0.77389
      H   23    0.23038      0.00000     0.76881    0.00081     0.76962
      H   24    0.23168      0.00000     0.76745    0.00087     0.76832
      H   25    0.22767      0.00000     0.77119    0.00114     0.77233
 =======================================================================
   * Total *   -0.00000     25.98878    65.79868    0.21254    92.00000

 Normal termination of Gaussian 09 at Tue Sep 28 15:14:01 2021.
