 Gaussian 09, Revision A.02,

 -----------------------------------
 #p opt b3lyp/6-31G* scf=(xqc,tight)
 -----------------------------------

 ---------------------------------
 CCN(C(=O)Oc1ccc(cc1)C#N)CC_conf_0
 ---------------------------------
 Symbolic Z-matrix:
 Charge =  0 Multiplicity = 1

 SCF Done:  E(RB3LYP) =  -725.665111081     A.U. after   16 cycles
 SCF Done:  E(RB3LYP) =  -725.668769759     A.U. after   13 cycles
 SCF Done:  E(RB3LYP) =  -725.669232233     A.U. after   13 cycles
 SCF Done:  E(RB3LYP) =  -725.670450361     A.U. after   16 cycles
 SCF Done:  E(RB3LYP) =  -725.670671465     A.U. after   13 cycles
 SCF Done:  E(RB3LYP) =  -725.670811598     A.U. after   12 cycles
 SCF Done:  E(RB3LYP) =  -725.670841211     A.U. after   10 cycles
 SCF Done:  E(RB3LYP) =  -725.670848691     A.U. after   10 cycles
 SCF Done:  E(RB3LYP) =  -725.670850873     A.U. after   10 cycles
 SCF Done:  E(RB3LYP) =  -725.670853035     A.U. after   10 cycles
 SCF Done:  E(RB3LYP) =  -725.670853715     A.U. after    8 cycles
 SCF Done:  E(RB3LYP) =  -725.670854048     A.U. after    8 cycles
 SCF Done:  E(RB3LYP) =  -725.670854181     A.U. after    7 cycles
 Optimization completed.
    -- Stationary point found.
 Normal termination of Gaussian 09 at Wed Sep 29 20:32:34 2021.

 ----------------------------------------------------------------------
 #p freq b3lyp/6-31G* volume NMR pop=NPA density=current Geom=AllCheck
 Guess=Read
 ----------------------------------------------------------------------

 CCN(C(=O)Oc1ccc(cc1)C#N)CC_conf_0
 ---------------------------------
 Redundant internal coordinates taken from checkpoint file:
 C12H14N2O2_d20a_conf_0.chk
 Charge =  0 Multiplicity = 1

 SCF Done:  E(RB3LYP) =  -725.670854181     A.U. after    1 cycles

  1  C    Isotropic =   175.0267   Anisotropy =    22.2715

  2  C    Isotropic =   147.5384   Anisotropy =    41.2220

  3  N    Isotropic =   156.4786   Anisotropy =    65.5978

  4  C    Isotropic =    47.5955   Anisotropy =    84.2818

  5  O    Isotropic =    63.9614   Anisotropy =   378.6273

  6  O    Isotropic =   137.9965   Anisotropy =   142.0009

  7  C    Isotropic =    41.7421   Anisotropy =   118.3977

  8  C    Isotropic =    73.3402   Anisotropy =   157.4224

  9  C    Isotropic =    62.0799   Anisotropy =   167.7910

 10  C    Isotropic =    85.8383   Anisotropy =   130.9411

 11  C    Isotropic =    62.3959   Anisotropy =   167.6325

 12  C    Isotropic =    76.1130   Anisotropy =   140.5665

 13  C    Isotropic =    82.2639   Anisotropy =   309.5002

 14  N    Isotropic =   -14.4554   Anisotropy =   388.2269

 15  C    Isotropic =   146.5786   Anisotropy =    43.2446

 16  C    Isotropic =   175.8625   Anisotropy =    21.0077

 17  H    Isotropic =    31.3032   Anisotropy =    10.4198

 18  H    Isotropic =    30.7117   Anisotropy =     6.9853

 19  H    Isotropic =    30.9421   Anisotropy =     7.1683

 20  H    Isotropic =    28.4964   Anisotropy =     4.4852

 21  H    Isotropic =    29.3627   Anisotropy =     6.3239

 22  H    Isotropic =    24.5520   Anisotropy =     9.7590

 23  H    Isotropic =    24.7653   Anisotropy =     5.9663

 24  H    Isotropic =    24.7820   Anisotropy =     5.7759

 25  H    Isotropic =    25.4467   Anisotropy =     7.1336

 26  H    Isotropic =    29.5041   Anisotropy =     6.5523

 27  H    Isotropic =    28.3566   Anisotropy =     5.9013

 28  H    Isotropic =    31.0619   Anisotropy =     6.8602

 29  H    Isotropic =    31.3384   Anisotropy =    10.6340

 30  H    Isotropic =    30.6782   Anisotropy =     7.1790

  Exact polarizability: 225.978   4.038 134.085   2.780  -2.661  77.854
 Approx polarizability: 309.542  12.914 214.140   6.595  -1.730 118.919

                     1                      2                      3
                     A                      A                      A
 Frequencies --    25.4574                32.6385                51.4851
 Red. masses --     3.8641                 5.6292                 3.4723
 Frc consts  --     0.0015                 0.0035                 0.0054
 IR Inten    --     0.1534                 0.0259                 0.3653

                     4                      5                      6
                     A                      A                      A
 Frequencies --    69.7217                79.6812               112.5183
 Red. masses --     2.8915                 3.7973                 8.1909
 Frc consts  --     0.0083                 0.0142                 0.0611
 IR Inten    --     0.6624                 1.8744                 2.6599

                     7                      8                      9
                     A                      A                      A
 Frequencies --   113.8662               130.6007               170.1337
 Red. masses --     4.7048                 4.3652                 4.7798
 Frc consts  --     0.0359                 0.0439                 0.0815
 IR Inten    --     1.8506                 3.4810                 5.5684

                    10                     11                     12
                     A                      A                      A
 Frequencies --   216.8567               231.5713               254.3756
 Red. masses --     1.7523                 1.2114                 1.8412
 Frc consts  --     0.0486                 0.0383                 0.0702
 IR Inten    --     1.0356                 1.4498                 0.7077

                    13                     14                     15
                     A                      A                      A
 Frequencies --   278.9654               327.3131               347.8836
 Red. masses --     4.3909                 2.7741                 3.6139
 Frc consts  --     0.2013                 0.1751                 0.2577
 IR Inten    --     0.4018                 0.9065                 4.6865

                    16                     17                     18
                     A                      A                      A
 Frequencies --   388.5709               418.2533               434.0817
 Red. masses --     4.6775                 3.1085                 2.7785
 Frc consts  --     0.4161                 0.3204                 0.3085
 IR Inten    --    12.0376                 0.5159                 3.4496

                    19                     20                     21
                     A                      A                      A
 Frequencies --   472.1312               481.8649               544.8833
 Red. masses --     5.3617                 5.2280                 3.6715
 Frc consts  --     0.7042                 0.7152                 0.6423
 IR Inten    --     5.5728                 0.5747                 1.9739

                    22                     23                     24
                     A                      A                      A
 Frequencies --   558.4779               567.1611               622.7273
 Red. masses --     7.3446                 3.4145                 4.0057
 Frc consts  --     1.3497                 0.6471                 0.9152
 IR Inten    --     0.4585                16.9479                 3.5369

                    25                     26                     27
                     A                      A                      A
 Frequencies --   661.4290               719.1761               737.6755
 Red. masses --     6.5405                 4.9206                 6.7558
 Frc consts  --     1.6859                 1.4995                 2.1660
 IR Inten    --     4.3342                 0.3685                17.3940

                    28                     29                     30
                     A                      A                      A
 Frequencies --   744.9355               789.1533               796.3193
 Red. masses --     6.9218                 1.5325                 1.1708
 Frc consts  --     2.2631                 0.5623                 0.4374
 IR Inten    --     9.7534                16.3075                 4.1660

                    31                     32                     33
                     A                      A                      A
 Frequencies --   822.3178               837.1413               852.8345
 Red. masses --     2.0834                 1.2546                 4.2184
 Frc consts  --     0.8301                 0.5180                 1.8077
 IR Inten    --     8.1918                 0.4494                 2.1791

                    34                     35                     36
                     A                      A                      A
 Frequencies --   866.6138               953.5134               963.6346
 Red. masses --     2.1009                 2.2826                 1.3168
 Frc consts  --     0.9296                 1.2227                 0.7204
 IR Inten    --    36.4655                11.3665                 1.6095

                    37                     38                     39
                     A                      A                      A
 Frequencies --   966.3816               972.4282              1037.3629
 Red. masses --     1.3994                 2.3634                 2.7683
 Frc consts  --     0.7700                 1.3168                 1.7552
 IR Inten    --     9.0077                58.4976                 4.2367

                    40                     41                     42
                     A                      A                      A
 Frequencies --  1058.9472              1102.8185              1115.7385
 Red. masses --     3.0332                 1.9461                 1.7867
 Frc consts  --     2.0040                 1.3945                 1.3105
 IR Inten    --    35.8031                20.0589                10.4079

                    43                     44                     45
                     A                      A                      A
 Frequencies --  1126.9950              1142.8216              1184.6243
 Red. masses --     1.7185                 1.3031                 2.3816
 Frc consts  --     1.2860                 1.0027                 1.9692
 IR Inten    --    34.5088                 6.2985               326.2790

                    46                     47                     48
                     A                      A                      A
 Frequencies --  1202.6379              1228.2686              1253.8333
 Red. masses --     1.2360                 3.3345                 3.3005
 Frc consts  --     1.0533                 2.9639                 3.0571
 IR Inten    --    98.2102                10.8051               363.5018

                    49                     50                     51
                     A                      A                      A
 Frequencies --  1269.8299              1310.4427              1338.8575
 Red. masses --     3.4364                 1.5739                 1.4698
 Frc consts  --     3.2647                 1.5925                 1.5523
 IR Inten    --   351.4650               135.0632                 4.6169

                    52                     53                     54
                     A                      A                      A
 Frequencies --  1345.0106              1356.2938              1400.3253
 Red. masses --     4.8902                 1.3183                 1.2797
 Frc consts  --     5.2123                 1.4288                 1.4785
 IR Inten    --    16.0461                12.5418                18.3457

                    55                     56                     57
                     A                      A                      A
 Frequencies --  1421.3013              1438.2112              1440.5831
 Red. masses --     1.2860                 1.2863                 1.2589
 Frc consts  --     1.5306                 1.5676                 1.5393
 IR Inten    --    12.3213                10.8079                23.2072

                    58                     59                     60
                     A                      A                      A
 Frequencies --  1457.6986              1463.5935              1508.4868
 Red. masses --     3.0520                 2.1190                 1.0693
 Frc consts  --     3.8210                 2.6744                 1.4336
 IR Inten    --    11.4437               288.1113                 7.1640

                    61                     62                     63
                     A                      A                      A
 Frequencies --  1520.9880              1522.5665              1527.4306
 Red. masses --     1.0453                 1.0586                 1.0737
 Frc consts  --     1.4248                 1.4459                 1.4760
 IR Inten    --     1.4486                 5.0396                44.9722

                    64                     65                     66
                     A                      A                      A
 Frequencies --  1533.7384              1538.0867              1555.1441
 Red. masses --     1.0609                 1.1234                 2.4362
 Frc consts  --     1.4704                 1.5659                 3.4714
 IR Inten    --     9.2526                47.4790                52.2369

                    67                     68                     69
                     A                      A                      A
 Frequencies --  1622.8758              1663.8383              1816.8029
 Red. masses --     6.9367                 5.7453                11.2163
 Frc consts  --    10.7640                 9.3711                21.8130
 IR Inten    --     3.1377                58.3840               392.2034

                    70                     71                     72
                     A                      A                      A
 Frequencies --  2346.2951              3053.9494              3055.0683
 Red. masses --    12.6804                 1.0361                 1.0358
 Frc consts  --    41.1290                 5.6932                 5.6961
 IR Inten    --    49.1955                18.0858                17.0528

                    73                     74                     75
                     A                      A                      A
 Frequencies --  3067.8499              3076.7006              3115.8281
 Red. masses --     1.0676                 1.0683                 1.1019
 Frc consts  --     5.9201                 5.9584                 6.3031
 IR Inten    --    27.9061                32.0826                15.6472

                    76                     77                     78
                     A                      A                      A
 Frequencies --  3117.7013              3133.5592              3135.0431
 Red. masses --     1.1022                 1.0987                 1.0988
 Frc consts  --     6.3121                 6.3560                 6.3627
 IR Inten    --    19.0286                25.1235                21.6823

                    79                     80                     81
                     A                      A                      A
 Frequencies --  3147.2421              3148.7404              3214.2523
 Red. masses --     1.1012                 1.1030                 1.0885
 Frc consts  --     6.4266                 6.4429                 6.6258
 IR Inten    --    22.9717                31.0333                 4.2677

                    82                     83                     84
                     A                      A                      A
 Frequencies --  3218.7819              3228.5431              3269.8492
 Red. masses --     1.0912                 1.0956                 1.0930
 Frc consts  --     6.6611                 6.7287                 6.8855
 IR Inten    --     2.9742                 3.5728                 0.2978

 - Thermochemistry -
 -------------------
 Temperature   298.150 Kelvin.  Pressure   1.00000 Atm.
 Atom     1 has atomic number  6 and mass  12.00000

 Molecular mass:   218.10553 amu.
 Principal axes and moments of inertia in atomic units:
                           1         2         3
     Eigenvalues --  1265.213278038.175449015.08178
           X            1.00000  -0.00023   0.00246
           Y            0.00027   0.99985  -0.01720
           Z           -0.00246   0.01720   0.99985
 This molecule is an asymmetric top.
 Rotational symmetry number  1.
 Warning -- assumption of classical behavior for rotation
           may cause significant error
 Rotational temperatures (Kelvin)      0.06846     0.01078     0.00961
 Rotational constants (GHZ):           1.42643     0.22452     0.20019
 Zero-point vibrational energy     642695.7 (Joules/Mol)
                                  153.60796 (Kcal/Mol)
 Warning -- explicit consideration of  23 degrees of freedom as
           vibrations may cause significant error
 Vibrational temperatures:     36.63    46.96    74.08   100.31   114.64
          (Kelvin)            161.89   163.83   187.91   244.78   312.01
                              333.18   365.99   401.37   470.93   500.53
                              559.07   601.77   624.55   679.29   693.30
                              783.96   803.52   816.02   895.96   951.65
                             1034.73  1061.35  1071.79  1135.41  1145.72
                             1183.13  1204.46  1227.04  1246.86  1371.89
                             1386.45  1390.41  1399.11  1492.53  1523.59
                             1586.71  1605.30  1621.49  1644.26  1704.41
                             1730.33  1767.20  1803.98  1827.00  1885.43
                             1926.31  1935.17  1951.40  2014.75  2044.93
                             2069.26  2072.68  2097.30  2105.78  2170.37
                             2188.36  2190.63  2197.63  2206.70  2212.96
                             2237.50  2334.95  2393.89  2613.97  3375.79
                             4393.95  4395.56  4413.95  4426.68  4482.98
                             4485.67  4508.49  4510.62  4528.17  4530.33
                             4624.59  4631.10  4645.15  4704.58

 Zero-point correction=                           0.244790 (Hartree/Particle)
 Thermal correction to Energy=                    0.260659
 Thermal correction to Enthalpy=                  0.261604
 Thermal correction to Gibbs Free Energy=         0.199527
 Sum of electronic and zero-point Energies=           -725.426064
 Sum of electronic and thermal Energies=              -725.410195
 Sum of electronic and thermal Enthalpies=            -725.409251
 Sum of electronic and thermal Free Energies=         -725.471327

                     E (Thermal)             CV                S
                      KCal/Mol        Cal/Mol-Kelvin    Cal/Mol-Kelvin
 Total                  163.566             57.917            130.651
 Electronic               0.000              0.000              0.000
 Translational            0.889              2.981             42.043
 Rotational               0.889              2.981             32.883
 Vibrational            161.789             51.956             55.726
 Vibration     1          0.593              1.985              6.155
 Vibration     2          0.594              1.983              5.662
 Vibration     3          0.596              1.977              4.760
 Vibration     4          0.598              1.969              4.161
 Vibration     5          0.600              1.963              3.899
 Vibration     6          0.607              1.939              3.225
 Vibration     7          0.607              1.938              3.202
 Vibration     8          0.612              1.923              2.937
 Vibration     9          0.625              1.879              2.434
 Vibration    10          0.646              1.815              1.985
 Vibration    11          0.653              1.793              1.867
 Vibration    12          0.665              1.755              1.700
 Vibration    13          0.679              1.712              1.540
 Vibration    14          0.711              1.621              1.273
 Vibration    15          0.726              1.580              1.176
 Vibration    16          0.757              1.495              1.006
 Vibration    17          0.781              1.431              0.898
 Vibration    18          0.795              1.396              0.845
 Vibration    19          0.829              1.312              0.732
 Vibration    20          0.838              1.290              0.705
 Vibration    21          0.900              1.151              0.555
 Vibration    22          0.914              1.121              0.527
 Vibration    23          0.923              1.102              0.510

 Normal termination of Gaussian 09 at Wed Sep 29 21:42:13 2021.
 Gaussian 09:  AM64L-G09RevA.02 11-Jun-2009

 ----------------------------------------------------------------------
 #p TD(NStates=10, Root=1) b3lyp/6-31G* volume pop=NPA density=current
 Geom=AllCheck Guess=Read
 ----------------------------------------------------------------------

 CCN(C(=O)Oc1ccc(cc1)C#N)CC_conf_0
 ---------------------------------
 Redundant internal coordinates taken from checkpoint file:
 C12H14N2O2_d20a_conf_0.chk
 Charge =  0 Multiplicity = 1

                         Standard orientation:
 ---------------------------------------------------------------------
 Center     Atomic      Atomic             Coordinates (Angstroms)
 Number     Number       Type             X           Y           Z
 ---------------------------------------------------------------------
      1          6           0        3.112504    2.483985   -0.195842
      2          6           0        2.999691    1.256062    0.711316
      3          7           0        2.699517    0.019345   -0.020286
      4          6           0        1.441992   -0.414704   -0.293566
      5          8           0        1.154681   -1.441905   -0.877903
      6          8           0        0.505050    0.497293    0.176637
      7          6           0       -0.849300    0.235420    0.092369
      8          6           0       -1.412534   -1.026487    0.307739
      9          6           0       -2.796434   -1.161999    0.278880
     10          6           0       -3.621941   -0.049357    0.045105
     11          6           0       -3.040297    1.212656   -0.162676
     12          6           0       -1.658412    1.350894   -0.140479
     13          6           0       -5.046743   -0.199085    0.021258
     14          7           0       -6.204109   -0.318686    0.003185
     15          6           0        3.816738   -0.799365   -0.508048
     16          6           0        4.265747   -1.858950    0.500590
     17          1           0        3.374731    3.369680    0.394182
     18          1           0        2.161217    2.676446   -0.701267
     19          1           0        3.885196    2.345541   -0.960364
     20          1           0        2.229465    1.412291    1.468599
     21          1           0        3.942660    1.089024    1.243760
     22          1           0       -0.778861   -1.885999    0.476006
     23          1           0       -3.245740   -2.136309    0.441292
     24          1           0       -3.673474    2.075232   -0.342453
     25          1           0       -1.190495    2.316876   -0.298985
     26          1           0        4.640976   -0.117761   -0.746060
     27          1           0        3.501237   -1.276214   -1.438249
     28          1           0        4.571569   -1.405728    1.450639
     29          1           0        5.118230   -2.422511    0.104628
     30          1           0        3.451512   -2.562701    0.698224
 ---------------------------------------------------------------------

 SCF Done:  E(RB3LYP) =  -725.670854181     A.U. after    1 cycles

 Excitation energies and oscillator strengths:

 Excited State   1:      Singlet-A      5.0623 eV  244.92 nm  f=0.0214  <S**2>=0.000
      56 -> 59         0.44120
      57 -> 59         0.18497
      57 -> 60         0.15883
      58 -> 59        -0.21085
      58 -> 60         0.43932
 This state for optimization and/or second-order correction.
 Total Energy, E(TD-HF/TD-KS) =  -725.484819620
 Copying the excited state density for this state as the 1-particle RhoCI density.

 Excited State   2:      Singlet-A      5.0915 eV  243.51 nm  f=0.1885  <S**2>=0.000
      56 -> 59         0.18787
      57 -> 59        -0.34490
      58 -> 59         0.54340
      58 -> 60         0.18844

 Excited State   3:      Singlet-A      5.3644 eV  231.13 nm  f=0.2851  <S**2>=0.000
      56 -> 60        -0.15855
      57 -> 59         0.57411
      58 -> 59         0.35955

 Excited State   4:      Singlet-A      5.7015 eV  217.46 nm  f=0.0115  <S**2>=0.000
      55 -> 59         0.52939
      56 -> 59        -0.28336
      57 -> 60        -0.22995
      58 -> 60         0.26947

 Excited State   5:      Singlet-A      5.7526 eV  215.53 nm  f=0.0002  <S**2>=0.000
      55 -> 59         0.32918
      57 -> 60         0.57665
      58 -> 60        -0.22728

 Excited State   6:      Singlet-A      6.3316 eV  195.82 nm  f=0.0101  <S**2>=0.000
      53 -> 59         0.64325
      54 -> 59         0.16302
      55 -> 60        -0.12275
      56 -> 60         0.10028

 Excited State   7:      Singlet-A      6.3526 eV  195.17 nm  f=0.1354  <S**2>=0.000
      53 -> 59         0.13635
      55 -> 60         0.54327
      56 -> 60        -0.40000

 Excited State   8:      Singlet-A      6.4478 eV  192.29 nm  f=0.2221  <S**2>=0.000
      55 -> 59         0.28949
      56 -> 59         0.41195
      57 -> 60        -0.28236
      58 -> 60        -0.36979

 Excited State   9:      Singlet-A      6.6578 eV  186.22 nm  f=0.0016  <S**2>=0.000
      53 -> 59        -0.11450
      54 -> 62        -0.14080
      57 -> 62         0.25423
      58 -> 61        -0.22391
      58 -> 62         0.57521

 Excited State  10:      Singlet-A      6.7649 eV  183.28 nm  f=0.0023  <S**2>=0.000
      53 -> 59        -0.18654
      53 -> 62        -0.14682
      54 -> 59         0.63848

 The electronic state is 1-A.
 Alpha  occ. eigenvalues --  -19.21340 -19.13117 -14.37820 -14.33008 -10.34602
 Alpha  occ. eigenvalues --  -10.27550 -10.23884 -10.23574 -10.23314 -10.22384
 Alpha  occ. eigenvalues --  -10.22006 -10.21869 -10.21183 -10.20912 -10.19394
 Alpha  occ. eigenvalues --  -10.18915  -1.12174  -1.03090  -0.95431  -0.90205
 Alpha  occ. eigenvalues --   -0.87476  -0.79149  -0.78168  -0.77245  -0.75402
 Alpha  occ. eigenvalues --   -0.68752  -0.65652  -0.64082  -0.63448  -0.58134
 Alpha  occ. eigenvalues --   -0.56316  -0.53975  -0.51121  -0.49096  -0.48751
 Alpha  occ. eigenvalues --   -0.46472  -0.45961  -0.45335  -0.44763  -0.44180
 Alpha  occ. eigenvalues --   -0.43595  -0.41590  -0.40898  -0.40084  -0.39390
 Alpha  occ. eigenvalues --   -0.38877  -0.38294  -0.37698  -0.36713  -0.36142
 Alpha  occ. eigenvalues --   -0.35336  -0.34906  -0.32572  -0.32232  -0.28798
 Alpha  occ. eigenvalues --   -0.27214  -0.25742  -0.24682
 Alpha virt. eigenvalues --   -0.04532  -0.02180   0.03642   0.04148   0.07124
 Alpha virt. eigenvalues --    0.07714   0.08668   0.10235   0.11379   0.12654
 Alpha virt. eigenvalues --    0.13107   0.13827   0.14337   0.14678   0.15178

 Mulliken atomic charges:
              1
     1  C   -0.447004
     2  C   -0.150335
     3  N   -0.419444
     4  C    0.801413
     5  O   -0.484061
     6  O   -0.540877
     7  C    0.341254
     8  C   -0.144727
     9  C   -0.173240
    10  C    0.135481
    11  C   -0.147111
    12  C   -0.193152
    13  C    0.217111
    14  N   -0.490660
    15  C   -0.155753
    16  C   -0.447069
    17  H    0.160435
    18  H    0.173138
    19  H    0.156904
    20  H    0.188324
    21  H    0.160469
    22  H    0.166816
    23  H    0.153140
    24  H    0.156796
    25  H    0.139120
    26  H    0.157333
    27  H    0.194251
    28  H    0.152783
    29  H    0.160440
    30  H    0.178222
 Sum of Mulliken atomic charges =  -0.00000

 Dipole moment (field-independent basis, Debye):
    X=             10.1519    Y=              2.0924    Z=              1.1326  Tot=             10.4270
 Quadrupole moment (field-independent basis, Debye-Ang):
   XX=           -119.7521   YY=            -87.8752   ZZ=            -94.8276
   XY=             -1.6209   XZ=              1.2123   YZ=             -2.6165

 Summary of Natural Population Analysis:

                                       Natural Population
                Natural  -----------------------------------------------
    Atom  No    Charge         Core      Valence    Rydberg      Total
 -----------------------------------------------------------------------
      C    1   -0.68751      1.99944     4.68044    0.00763     6.68751
      C    2   -0.26376      1.99934     4.24931    0.01511     6.26376
      N    3   -0.44689      1.99930     5.43415    0.01344     7.44689
      C    4    0.93711      1.99936     3.01861    0.04492     5.06289
      O    5   -0.60562      1.99978     6.58658    0.01926     8.60562
      O    6   -0.52827      1.99969     6.51799    0.01059     8.52827
      C    7    0.27341      1.99877     3.70504    0.02278     5.72659
      C    8   -0.23745      1.99904     4.22249    0.01592     6.23745
      C    9   -0.21977      1.99910     4.20313    0.01754     6.21977
      C   10   -0.16803      1.99887     4.15405    0.01511     6.16803
      C   11   -0.17202      1.99908     4.15677    0.01617     6.17202
      C   12   -0.28703      1.99905     4.26964    0.01834     6.28703
      C   13    0.25631      1.99939     3.70976    0.03454     5.74369
      N   14   -0.32467      1.99965     5.30304    0.02197     7.32467
      C   15   -0.25952      1.99934     4.24480    0.01538     6.25952
      C   16   -0.68834      1.99944     4.68128    0.00762     6.68834
      H   17    0.24299      0.00000     0.75621    0.00079     0.75701
      H   18    0.24224      0.00000     0.75644    0.00132     0.75776
      H   19    0.23144      0.00000     0.76769    0.00087     0.76856
      H   20    0.26088      0.00000     0.73762    0.00151     0.73912
      H   21    0.23751      0.00000     0.76109    0.00139     0.76249
      H   22    0.25653      0.00000     0.74227    0.00119     0.74347
      H   23    0.24568      0.00000     0.75360    0.00073     0.75432
      H   24    0.24677      0.00000     0.75249    0.00074     0.75323
      H   25    0.24183      0.00000     0.75702    0.00115     0.75817
      H   26    0.23478      0.00000     0.76394    0.00129     0.76522
      H   27    0.26427      0.00000     0.73386    0.00187     0.73573
      H   28    0.22872      0.00000     0.77040    0.00088     0.77128
      H   29    0.24297      0.00000     0.75626    0.00077     0.75703
      H   30    0.24545      0.00000     0.75334    0.00122     0.75455
 =======================================================================
   * Total *    0.00000     31.98865    83.69929    0.31206   116.00000

 Normal termination of Gaussian 09 at Thu Sep 30 02:43:41 2021.
