 Gaussian 09, Revision A.02,

 -----------------------------------
 #p opt b3lyp/6-31G* scf=(xqc,tight)
 -----------------------------------

 ----------------------------------
 N#Cc1ccc(cc1)OC(=O)C(C)(C)C_conf_0
 ----------------------------------
 Symbolic Z-matrix:
 Charge =  0 Multiplicity = 1

 SCF Done:  E(RB3LYP) =  -670.306205838     A.U. after   16 cycles
 SCF Done:  E(RB3LYP) =  -670.309378939     A.U. after   12 cycles
 SCF Done:  E(RB3LYP) =  -670.308661827     A.U. after   13 cycles
 SCF Done:  E(RB3LYP) =  -670.309560956     A.U. after   13 cycles
 SCF Done:  E(RB3LYP) =  -670.309823646     A.U. after   12 cycles
 SCF Done:  E(RB3LYP) =  -670.309818880     A.U. after   13 cycles
 SCF Done:  E(RB3LYP) =  -670.310080165     A.U. after   12 cycles
 SCF Done:  E(RB3LYP) =  -670.310320934     A.U. after   11 cycles
 SCF Done:  E(RB3LYP) =  -670.310467982     A.U. after   11 cycles
 SCF Done:  E(RB3LYP) =  -670.310478756     A.U. after   11 cycles
 SCF Done:  E(RB3LYP) =  -670.310484545     A.U. after   10 cycles
 SCF Done:  E(RB3LYP) =  -670.310485550     A.U. after    8 cycles
 Optimization completed.
    -- Stationary point found.
 Normal termination of Gaussian 09 at Fri Oct  1 01:47:02 2021.

 ----------------------------------------------------------------------
 #p freq b3lyp/6-31G* volume NMR pop=NPA density=current Geom=AllCheck
 Guess=Read
 ----------------------------------------------------------------------

 N#Cc1ccc(cc1)OC(=O)C(C)(C)C_conf_0
 ----------------------------------
 Redundant internal coordinates taken from checkpoint file:
 C12H13NO2_b9f2_conf_0.chk
 Charge =  0 Multiplicity = 1

 SCF Done:  E(RB3LYP) =  -670.310485550     A.U. after    1 cycles

  1  N    Isotropic =   -15.5834   Anisotropy =   389.9324

  2  C    Isotropic =    82.4668   Anisotropy =   309.4386

  3  C    Isotropic =    84.7860   Anisotropy =   132.7145

  4  C    Isotropic =    62.0969   Anisotropy =   168.0661

  5  C    Isotropic =    73.0656   Anisotropy =   157.5671

  6  C    Isotropic =    42.3771   Anisotropy =   118.0573

  7  C    Isotropic =    75.7563   Anisotropy =   142.8382

  8  C    Isotropic =    62.1116   Anisotropy =   168.4885

  9  O    Isotropic =   106.1142   Anisotropy =   177.2811

 10  C    Isotropic =    22.8813   Anisotropy =    78.3818

 11  O    Isotropic =   -65.8422   Anisotropy =   577.8661

 12  C    Isotropic =   148.6964   Anisotropy =    24.5455

 13  C    Isotropic =   162.5600   Anisotropy =    37.2450

 14  C    Isotropic =   163.0266   Anisotropy =    31.3716

 15  C    Isotropic =   162.3820   Anisotropy =    38.0542

 16  H    Isotropic =    24.7369   Anisotropy =     5.8876

 17  H    Isotropic =    24.6621   Anisotropy =     9.2408

 18  H    Isotropic =    25.3809   Anisotropy =     6.9884

 19  H    Isotropic =    24.7313   Anisotropy =     5.7816

 20  H    Isotropic =    30.8580   Anisotropy =     8.1098

 21  H    Isotropic =    30.4978   Anisotropy =     6.4129

 22  H    Isotropic =    31.0741   Anisotropy =     7.8457

 23  H    Isotropic =    30.6409   Anisotropy =     8.1920

 24  H    Isotropic =    31.4504   Anisotropy =     7.7966

 25  H    Isotropic =    30.6636   Anisotropy =     7.9854

 26  H    Isotropic =    30.4229   Anisotropy =     7.5064

 27  H    Isotropic =    30.8682   Anisotropy =     8.0185

 28  H    Isotropic =    31.0768   Anisotropy =     7.8899

  Exact polarizability: 208.649   1.530 120.917   2.482  -5.296  78.439
 Approx polarizability: 288.716   5.877 205.487   6.982  -6.659 117.162

                     1                      2                      3
                     A                      A                      A
 Frequencies --    20.1038                38.2832                44.0982
 Red. masses --     3.4299                 5.8230                 5.2519
 Frc consts  --     0.0008                 0.0050                 0.0060
 IR Inten    --     0.1086                 0.4680                 0.8698

                     4                      5                      6
                     A                      A                      A
 Frequencies --    82.8311               124.7873               158.0343
 Red. masses --     6.8888                 6.4784                 6.1059
 Frc consts  --     0.0278                 0.0594                 0.0898
 IR Inten    --     1.5721                 4.0302                 5.1185

                     7                      8                      9
                     A                      A                      A
 Frequencies --   202.2457               207.9667               236.5117
 Red. masses --     5.1481                 1.2631                 1.5998
 Frc consts  --     0.1241                 0.0322                 0.0527
 IR Inten    --     1.2293                 0.7957                 1.3520

                    10                     11                     12
                     A                      A                      A
 Frequencies --   265.0105               275.3171               283.8996
 Red. masses --     1.4584                 1.6225                 1.4315
 Frc consts  --     0.0603                 0.0725                 0.0680
 IR Inten    --     0.7906                 0.5894                 0.6714

                    13                     14                     15
                     A                      A                      A
 Frequencies --   315.1034               357.8386               368.4218
 Red. masses --     3.5648                 3.1693                 2.9841
 Frc consts  --     0.2085                 0.2391                 0.2386
 IR Inten    --     2.4756                 6.1235                 0.9002

                    16                     17                     18
                     A                      A                      A
 Frequencies --   384.8011               417.1591               427.4368
 Red. masses --     3.4089                 3.0920                 4.3510
 Frc consts  --     0.2974                 0.3170                 0.4684
 IR Inten    --     1.5962                 0.3102                 3.2578

                    19                     20                     21
                     A                      A                      A
 Frequencies --   483.8616               504.6181               558.1811
 Red. masses --     5.3517                 5.2615                 7.3438
 Frc consts  --     0.7382                 0.7894                 1.3481
 IR Inten    --     0.3519                 0.9757                 0.5499

                    22                     23                     24
                     A                      A                      A
 Frequencies --   567.6770               594.3222               657.7124
 Red. masses --     3.3500                 3.4654                 7.2093
 Frc consts  --     0.6361                 0.7212                 1.8374
 IR Inten    --    15.6593                 5.7959                 1.0387

                    25                     26                     27
                     A                      A                      A
 Frequencies --   717.1686               733.0084               755.6103
 Red. masses --     5.2719                 5.3997                 6.7437
 Frc consts  --     1.5976                 1.7094                 2.2685
 IR Inten    --     1.2260                 2.0795                 4.4613

                    28                     29                     30
                     A                      A                      A
 Frequencies --   806.6054               836.4120               841.0083
 Red. masses --     3.3939                 1.3001                 3.1368
 Frc consts  --     1.3010                 0.5359                 1.3072
 IR Inten    --     4.3117                 1.6826                 7.7456

                    31                     32                     33
                     A                      A                      A
 Frequencies --   863.7683               905.7545               949.9739
 Red. masses --     2.4021                 3.5607                 1.7710
 Frc consts  --     1.0559                 1.7211                 0.9417
 IR Inten    --    26.3318                19.4492                 1.5864

                    34                     35                     36
                     A                      A                      A
 Frequencies --   956.6522               965.3843               966.9347
 Red. masses --     1.6351                 1.3309                 1.2986
 Frc consts  --     0.8816                 0.7308                 0.7153
 IR Inten    --     3.5149                 0.2794                 0.1793

                    37                     38                     39
                     A                      A                      A
 Frequencies --   982.4176              1038.1165              1058.3649
 Red. masses --     1.1982                 2.7351                 1.5035
 Frc consts  --     0.6813                 1.7367                 0.9922
 IR Inten    --     0.0159                 2.7061                64.9323

                    40                     41                     42
                     A                      A                      A
 Frequencies --  1060.4194              1131.8824              1142.3672
 Red. masses --     1.4282                 3.9773                 1.3112
 Frc consts  --     0.9463                 3.0022                 1.0082
 IR Inten    --     5.6756               633.7527                10.8791

                    43                     44                     45
                     A                      A                      A
 Frequencies --  1200.8559              1227.1914              1240.4015
 Red. masses --     1.2857                 3.2211                 2.6468
 Frc consts  --     1.0924                 2.8581                 2.3994
 IR Inten    --    88.2806                10.3436                 3.3087

                    46                     47                     48
                     A                      A                      A
 Frequencies --  1248.9925              1265.8665              1306.1156
 Red. masses --     3.7101                 3.0246                 3.0839
 Frc consts  --     3.4100                 2.8555                 3.0996
 IR Inten    --   241.1314                81.0466                31.8091

                    49                     50                     51
                     A                      A                      A
 Frequencies --  1338.9823              1345.0074              1424.3156
 Red. masses --     1.5373                 4.5796                 1.2059
 Frc consts  --     1.6239                 4.8812                 1.4414
 IR Inten    --     3.4695                 7.9079                 3.9763

                    52                     53                     54
                     A                      A                      A
 Frequencies --  1430.8124              1456.4716              1460.1202
 Red. masses --     1.2279                 3.0021                 1.2261
 Frc consts  --     1.4811                 3.7521                 1.5402
 IR Inten    --     4.5319                 4.9310                15.5431

                    55                     56                     57
                     A                      A                      A
 Frequencies --  1508.7311              1515.6141              1520.6664
 Red. masses --     1.0482                 1.0449                 1.0455
 Frc consts  --     1.4057                 1.4142                 1.4244
 IR Inten    --     0.0323                 0.2157                 0.0192

                    58                     59                     60
                     A                      A                      A
 Frequencies --  1530.4775              1533.3297              1549.3315
 Red. masses --     1.0484                 1.0545                 1.4394
 Frc consts  --     1.4468                 1.4607                 2.0357
 IR Inten    --     6.2674                 8.7803               114.8195

                    61                     62                     63
                     A                      A                      A
 Frequencies --  1552.6384              1624.4023              1661.9262
 Red. masses --     1.5249                 6.9491                 5.7402
 Frc consts  --     2.1659                10.8035                 9.3412
 IR Inten    --    14.4921                 3.9797                60.7420

                    64                     65                     66
                     A                      A                      A
 Frequencies --  1836.5050              2347.7428              3052.9210
 Red. masses --    12.6768                12.6805                 1.0353
 Frc consts  --    25.1909                41.1802                 5.6852
 IR Inten    --   176.7992                41.4279                26.7325

                    67                     68                     69
                     A                      A                      A
 Frequencies --  3054.5946              3063.5450              3117.7132
 Red. masses --     1.0359                 1.0362                 1.1031
 Frc consts  --     5.6946                 5.7298                 6.3172
 IR Inten    --    10.3130                23.5202                11.4821

                    70                     71                     72
                     A                      A                      A
 Frequencies --  3119.2055              3132.1391              3139.5817
 Red. masses --     1.1026                 1.1022                 1.1027
 Frc consts  --     6.3205                 6.3709                 6.4038
 IR Inten    --    20.4117                37.2245                 1.9520

                    73                     74                     75
                     A                      A                      A
 Frequencies --  3140.8759              3143.8006              3215.8213
 Red. masses --     1.1025                 1.1014                 1.0886
 Frc consts  --     6.4081                 6.4136                 6.6332
 IR Inten    --    21.3285                44.3060                 3.2305

                    76                     77                     78
                     A                      A                      A
 Frequencies --  3220.1667              3229.8728              3265.1818
 Red. masses --     1.0912                 1.0957                 1.0933
 Frc consts  --     6.6666                 6.7344                 6.8673
 IR Inten    --     2.5463                 2.6740                 0.6320

 - Thermochemistry -
 -------------------
 Temperature   298.150 Kelvin.  Pressure   1.00000 Atm.
 Atom     1 has atomic number  7 and mass  14.00307

 Molecular mass:   203.09463 amu.
 Principal axes and moments of inertia in atomic units:
                           1         2         3
     Eigenvalues --   901.527517142.378617531.70130
           X            1.00000   0.00250   0.00145
           Y           -0.00244   0.99935  -0.03586
           Z           -0.00154   0.03586   0.99936
 This molecule is an asymmetric top.
 Rotational symmetry number  1.
 Warning -- assumption of classical behavior for rotation
           may cause significant error
 Rotational temperatures (Kelvin)      0.09607     0.01213     0.01150
 Rotational constants (GHZ):           2.00187     0.25268     0.23962
 Zero-point vibrational energy     594005.6 (Joules/Mol)
                                  141.97075 (Kcal/Mol)
 Warning -- explicit consideration of  23 degrees of freedom as
           vibrations may cause significant error
 Vibrational temperatures:     28.92    55.08    63.45   119.18   179.54
          (Kelvin)            227.38   290.99   299.22   340.29   381.29
                              396.12   408.47   453.36   514.85   530.08
                              553.64   600.20   614.99   696.17   726.03
                              803.10   816.76   855.10   946.30  1031.84
                             1054.63  1087.15  1160.52  1203.41  1210.02
                             1242.77  1303.18  1366.80  1376.41  1388.97
                             1391.20  1413.48  1493.62  1522.75  1525.71
                             1628.52  1643.61  1727.76  1765.65  1784.66
                             1797.02  1821.30  1879.21  1926.49  1935.16
                             2049.27  2058.62  2095.54  2100.78  2170.72
                             2180.63  2187.90  2202.01  2206.12  2229.14
                             2233.90  2337.15  2391.14  2642.32  3377.87
                             4392.47  4394.87  4407.75  4485.69  4487.84
                             4506.44  4517.15  4519.01  4523.22  4626.84
                             4633.10  4647.06  4697.86

 Zero-point correction=                           0.226245 (Hartree/Particle)
 Thermal correction to Energy=                    0.240984
 Thermal correction to Enthalpy=                  0.241929
 Thermal correction to Gibbs Free Energy=         0.183146
 Sum of electronic and zero-point Energies=           -670.084241
 Sum of electronic and thermal Energies=              -670.069501
 Sum of electronic and thermal Enthalpies=            -670.068557
 Sum of electronic and thermal Free Energies=         -670.127339

                     E (Thermal)             CV                S
                      KCal/Mol        Cal/Mol-Kelvin    Cal/Mol-Kelvin
 Total                  151.220             55.077            123.718
 Electronic               0.000              0.000              0.000
 Translational            0.889              2.981             41.830
 Rotational               0.889              2.981             32.250
 Vibrational            149.443             49.115             49.638
 Vibration     1          0.593              1.986              6.624
 Vibration     2          0.594              1.982              5.346
 Vibration     3          0.595              1.980              5.066
 Vibration     4          0.600              1.961              3.823
 Vibration     5          0.610              1.928              3.025
 Vibration     6          0.621              1.894              2.573
 Vibration     7          0.639              1.837              2.113
 Vibration     8          0.641              1.828              2.061
 Vibration     9          0.655              1.785              1.829
 Vibration    10          0.671              1.737              1.629
 Vibration    11          0.677              1.719              1.563
 Vibration    12          0.682              1.704              1.510
 Vibration    13          0.702              1.645              1.335
 Vibration    14          0.733              1.559              1.131
 Vibration    15          0.741              1.537              1.086
 Vibration    16          0.754              1.503              1.020
 Vibration    17          0.780              1.433              0.902
 Vibration    18          0.789              1.411              0.867
 Vibration    19          0.840              1.286              0.700
 Vibration    20          0.860              1.240              0.647
 Vibration    21          0.914              1.122              0.527
 Vibration    22          0.924              1.101              0.509
 Vibration    23          0.952              1.044              0.460

 Optimization completed.
    -- Stationary point found.
 Normal termination of Gaussian 09 at Fri Oct  1 02:40:48 2021.
 Gaussian 09:  AM64L-G09RevA.02 11-Jun-2009

 ----------------------------------------------------------------------
 #p TD(NStates=10, Root=1) b3lyp/6-31G* volume pop=NPA density=current
 Geom=AllCheck Guess=Read
 ----------------------------------------------------------------------

 N#Cc1ccc(cc1)OC(=O)C(C)(C)C_conf_0
 ----------------------------------
 Redundant internal coordinates taken from checkpoint file:
 C12H13NO2_b9f2_conf_0.chk
 Charge =  0 Multiplicity = 1

                         Standard orientation:
 ---------------------------------------------------------------------
 Center     Atomic      Atomic             Coordinates (Angstroms)
 Number     Number       Type             X           Y           Z
 ---------------------------------------------------------------------
      1          7           0       -5.904526   -0.198939   -0.097118
      2          6           0       -4.745909   -0.104624   -0.047416
      3          6           0       -3.318990    0.013726    0.014819
      4          6           0       -2.527689   -1.113156    0.293263
      5          6           0       -1.142029   -1.007594    0.357861
      6          6           0       -0.545927    0.237060    0.136263
      7          6           0       -1.319937    1.366793   -0.138214
      8          6           0       -2.703694    1.258730   -0.198734
      9          8           0        0.817766    0.462841    0.251458
     10          6           0        1.750916   -0.428468   -0.240540
     11          8           0        1.454603   -1.450604   -0.806640
     12          6           0        3.168457    0.078744    0.033480
     13          6           0        3.360654    0.237723    1.558918
     14          6           0        4.167976   -0.947251   -0.524239
     15          6           0        3.361937    1.444555   -0.664234
     16          1           0       -3.004197   -2.073418    0.461198
     17          1           0       -0.535555   -1.878296    0.566074
     18          1           0       -0.825097    2.319003   -0.297891
     19          1           0       -3.312124    2.131609   -0.410944
     20          1           0        3.217288   -0.716155    2.079502
     21          1           0        2.662061    0.967244    1.977885
     22          1           0        4.381024    0.580782    1.763982
     23          1           0        4.040510   -1.924960   -0.049857
     24          1           0        5.191309   -0.603227   -0.338354
     25          1           0        4.038587   -1.082589   -1.602130
     26          1           0        2.664772    2.193855   -0.279213
     27          1           0        3.216851    1.361169   -1.747409
     28          1           0        4.382703    1.802238   -0.488925
 ---------------------------------------------------------------------

 SCF Done:  E(RB3LYP) =  -670.310485550     A.U. after    3 cycles

 Excitation energies and oscillator strengths:

 Excited State   1:      Singlet-A      5.0471 eV  245.65 nm  f=0.0049  <S**2>=0.000
      53 -> 55         0.53324
      54 -> 56        -0.44723
 This state for optimization and/or second-order correction.
 Total Energy, E(TD-HF/TD-KS) =  -670.125007387
 Copying the excited state density for this state as the 1-particle RhoCI density.

 Excited State   2:      Singlet-A      5.2379 eV  236.71 nm  f=0.4265  <S**2>=0.000
      52 -> 55        -0.11170
      53 -> 56         0.14611
      54 -> 55         0.65858
      54 -> 57        -0.11167

 Excited State   3:      Singlet-A      5.3202 eV  233.04 nm  f=0.0152  <S**2>=0.000
      52 -> 55         0.53894
      52 -> 57        -0.26065
      53 -> 55         0.16872
      53 -> 57        -0.21230
      54 -> 55         0.12849
      54 -> 56         0.20759

 Excited State   4:      Singlet-A      6.0469 eV  205.04 nm  f=0.0011  <S**2>=0.000
      52 -> 55         0.26605
      52 -> 57         0.37820
      53 -> 55         0.15237
      53 -> 56        -0.12271
      53 -> 57         0.31521
      54 -> 57        -0.35598

 Excited State   5:      Singlet-A      6.1715 eV  200.90 nm  f=0.0043  <S**2>=0.000
      51 -> 55         0.10689
      52 -> 55         0.19349
      52 -> 56        -0.14350
      52 -> 57         0.18620
      53 -> 57         0.24321
      54 -> 57         0.55678

 Excited State   6:      Singlet-A      6.2771 eV  197.52 nm  f=0.0082  <S**2>=0.000
      50 -> 55         0.53160
      51 -> 55         0.37328
      52 -> 56         0.16653
      53 -> 56         0.11549

 Excited State   7:      Singlet-A      6.2863 eV  197.23 nm  f=0.0947  <S**2>=0.000
      50 -> 55        -0.19327
      52 -> 56         0.49610
      53 -> 56         0.41614
      53 -> 57         0.11684

 Excited State   8:      Singlet-A      6.3878 eV  194.10 nm  f=0.1876  <S**2>=0.000
      52 -> 55        -0.25267
      52 -> 57         0.19296
      53 -> 55         0.37681
      53 -> 57        -0.12456
      54 -> 56         0.44389
      54 -> 57         0.14142

 Excited State   9:      Singlet-A      6.7264 eV  184.33 nm  f=0.0084  <S**2>=0.000
      50 -> 55         0.16125
      50 -> 58         0.14373
      51 -> 55        -0.36919
      54 -> 58         0.53673

 Excited State  10:      Singlet-A      6.7337 eV  184.12 nm  f=0.0077  <S**2>=0.000
      50 -> 55        -0.34382
      51 -> 55         0.40316
      51 -> 58        -0.13572
      54 -> 58         0.41187

 The electronic state is 1-A.
 Alpha  occ. eigenvalues --  -19.21990 -19.15902 -14.33475 -10.33433 -10.27983
 Alpha  occ. eigenvalues --  -10.24169 -10.22822 -10.22742 -10.22521 -10.22427
 Alpha  occ. eigenvalues --  -10.21756 -10.21615 -10.19402 -10.19395 -10.18522
 Alpha  occ. eigenvalues --   -1.12584  -1.04391  -0.90696  -0.88150  -0.83802
 Alpha  occ. eigenvalues --   -0.78871  -0.77815  -0.70366  -0.70322  -0.69095
 Alpha  occ. eigenvalues --   -0.64446  -0.62308  -0.57497  -0.56837  -0.51169
 Alpha  occ. eigenvalues --   -0.49896  -0.49474  -0.47161  -0.46673  -0.45231
 Alpha  occ. eigenvalues --   -0.44767  -0.44579  -0.43293  -0.41360  -0.40489
 Alpha  occ. eigenvalues --   -0.40062  -0.39628  -0.38446  -0.37984  -0.37076
 Alpha  occ. eigenvalues --   -0.35779  -0.35634  -0.34659  -0.34486  -0.33044
 Alpha  occ. eigenvalues --   -0.32892  -0.29004  -0.27716  -0.25670
 Alpha virt. eigenvalues --   -0.05359  -0.02746  -0.00645   0.03683   0.07175
 Alpha virt. eigenvalues --    0.07328   0.08029   0.11562   0.11961   0.13581
 Alpha virt. eigenvalues --    0.13980   0.14104   0.14655   0.15158   0.16375

 Mulliken atomic charges:
              1
     1  N   -0.480917
     2  C    0.224653
     3  C    0.136938
     4  C   -0.150835
     5  C   -0.156244
     6  C    0.342813
     7  C   -0.171569
     8  C   -0.151144
     9  O   -0.513942
    10  C    0.628113
    11  O   -0.430773
    12  C   -0.011937
    13  C   -0.452091
    14  C   -0.438226
    15  C   -0.451094
    16  H    0.168391
    17  H    0.172273
    18  H    0.158295
    19  H    0.165046
    20  H    0.154121
    21  H    0.166717
    22  H    0.154520
    23  H    0.158231
    24  H    0.144178
    25  H    0.160428
    26  H    0.163022
    27  H    0.156230
    28  H    0.154802
 Sum of Mulliken atomic charges =  -0.00000

 Dipole moment (field-independent basis, Debye):
    X=              6.2032    Y=              1.5956    Z=              0.9457  Tot=              6.4746
 Quadrupole moment (field-independent basis, Debye-Ang):
   XX=           -115.8644   YY=            -83.4370   ZZ=            -88.7210
   XY=              0.1628   XZ=              0.4534   YZ=             -3.9754

 Summary of Natural Population Analysis:

                                       Natural Population
                Natural  -----------------------------------------------
    Atom  No    Charge         Core      Valence    Rydberg      Total
 -----------------------------------------------------------------------
      N    1   -0.30959      1.99966     5.28814    0.02180     7.30959
      C    2    0.25554      1.99939     3.71084    0.03423     5.74446
      C    3   -0.17012      1.99888     4.15635    0.01489     6.17012
      C    4   -0.16194      1.99909     4.14639    0.01646     6.16194
      C    5   -0.26631      1.99904     4.25041    0.01686     6.26631
      C    6    0.27944      1.99877     3.69842    0.02336     5.72056
      C    7   -0.23326      1.99905     4.21681    0.01741     6.23326
      C    8   -0.18643      1.99909     4.17063    0.01671     6.18643
      O    9   -0.51749      1.99970     6.50649    0.01130     8.51749
      C   10    0.81874      1.99926     3.13376    0.04824     5.18126
      O   11   -0.52671      1.99977     6.50670    0.02024     8.52671
      C   12   -0.14715      1.99905     4.13575    0.01235     6.14715
      C   13   -0.67021      1.99938     4.66096    0.00987     6.67021
      C   14   -0.67193      1.99939     4.66149    0.01105     6.67193
      C   15   -0.66942      1.99938     4.66015    0.00989     6.66942
      H   16    0.25116      0.00000     0.74810    0.00073     0.74884
      H   17    0.26041      0.00000     0.73847    0.00112     0.73959
      H   18    0.24923      0.00000     0.74964    0.00113     0.75077
      H   19    0.25058      0.00000     0.74870    0.00072     0.74942
      H   20    0.23778      0.00000     0.76132    0.00090     0.76222
      H   21    0.24537      0.00000     0.75361    0.00102     0.75463
      H   22    0.23889      0.00000     0.75999    0.00112     0.76111
      H   23    0.24345      0.00000     0.75556    0.00099     0.75655
      H   24    0.23430      0.00000     0.76484    0.00086     0.76570
      H   25    0.24465      0.00000     0.75436    0.00099     0.75535
      H   26    0.24321      0.00000     0.75569    0.00111     0.75679
      H   27    0.23883      0.00000     0.76028    0.00089     0.76117
      H   28    0.23898      0.00000     0.76000    0.00102     0.76102
 =======================================================================
   * Total *    0.00000     29.98890    77.71385    0.29725   108.00000

 Normal termination of Gaussian 09 at Fri Oct  1 05:12:05 2021.
