 Gaussian 09, Revision A.02,

 -----------------------------------
 #p opt b3lyp/6-31G* scf=(xqc,tight)
 -----------------------------------

 ----------------------
 CCCCP(CCCC)CCCC_conf_0
 ----------------------
 Symbolic Z-matrix:
 Charge =  0 Multiplicity = 1

 SCF Done:  E(RB3LYP) =  -814.898610657     A.U. after   13 cycles
 SCF Done:  E(RB3LYP) =  -814.904928374     A.U. after   14 cycles
 SCF Done:  E(RB3LYP) =  -814.906846023     A.U. after   11 cycles
 SCF Done:  E(RB3LYP) =  -814.907722319     A.U. after   10 cycles
 SCF Done:  E(RB3LYP) =  -814.907907662     A.U. after   11 cycles
 SCF Done:  E(RB3LYP) =  -814.907970332     A.U. after   10 cycles
 SCF Done:  E(RB3LYP) =  -814.907992602     A.U. after   10 cycles
 SCF Done:  E(RB3LYP) =  -814.907998635     A.U. after    9 cycles
 SCF Done:  E(RB3LYP) =  -814.907999013     A.U. after    9 cycles
 SCF Done:  E(RB3LYP) =  -814.907996566     A.U. after    9 cycles
 SCF Done:  E(RB3LYP) =  -814.907994371     A.U. after    9 cycles
 SCF Done:  E(RB3LYP) =  -814.907994910     A.U. after    7 cycles
 SCF Done:  E(RB3LYP) =  -814.907994291     A.U. after    6 cycles
 Optimization completed.
    -- Stationary point found.
 Normal termination of Gaussian 09 at Fri Oct  1 21:29:31 2021.

 ----------------------------------------------------------------------
 #p freq b3lyp/6-31G* volume NMR pop=NPA density=current Geom=AllCheck
 Guess=Read
 ----------------------------------------------------------------------

 CCCCP(CCCC)CCCC_conf_0
 ----------------------
 Redundant internal coordinates taken from checkpoint file:
 C12H27P_a852_conf_0.chk
 Charge =  0 Multiplicity = 1

 SCF Done:  E(RB3LYP) =  -814.907994291     A.U. after    1 cycles

  1  C    Isotropic =   173.2747   Anisotropy =    25.5277

  2  C    Isotropic =   163.3675   Anisotropy =    16.8495

  3  C    Isotropic =   159.9160   Anisotropy =    26.9746

  4  C    Isotropic =   159.1391   Anisotropy =    15.1625

  5  P    Isotropic =   395.6808   Anisotropy =    40.1877

  6  C    Isotropic =   152.5025   Anisotropy =    28.8569

  7  C    Isotropic =   153.2952   Anisotropy =    38.1369

  8  C    Isotropic =   161.5868   Anisotropy =    23.7614

  9  C    Isotropic =   173.6237   Anisotropy =    24.3143

 10  C    Isotropic =   158.3302   Anisotropy =    10.4032

 11  C    Isotropic =   159.2665   Anisotropy =    23.6300

 12  C    Isotropic =   165.1013   Anisotropy =    16.3372

 13  C    Isotropic =   173.6269   Anisotropy =    24.3914

 14  H    Isotropic =    31.0692   Anisotropy =     9.9335

 15  H    Isotropic =    31.3002   Anisotropy =     7.6480

 16  H    Isotropic =    31.3536   Anisotropy =     8.9058

 17  H    Isotropic =    30.5268   Anisotropy =     8.5610

 18  H    Isotropic =    30.9055   Anisotropy =     5.4195

 19  H    Isotropic =    30.6653   Anisotropy =     8.3910

 20  H    Isotropic =    30.4382   Anisotropy =     3.4284

 21  H    Isotropic =    30.8559   Anisotropy =     7.0601

 22  H    Isotropic =    30.4895   Anisotropy =     8.8011

 23  H    Isotropic =    30.4412   Anisotropy =     3.8663

 24  H    Isotropic =    30.7128   Anisotropy =     4.6741

 25  H    Isotropic =    30.5009   Anisotropy =     4.6428

 26  H    Isotropic =    30.6742   Anisotropy =     6.0386

 27  H    Isotropic =    30.6834   Anisotropy =     5.3088

 28  H    Isotropic =    30.7452   Anisotropy =     6.0009

 29  H    Isotropic =    31.2405   Anisotropy =     7.4514

 30  H    Isotropic =    31.0690   Anisotropy =    10.3664

 31  H    Isotropic =    31.2092   Anisotropy =     7.9671

 32  H    Isotropic =    30.7897   Anisotropy =     6.4906

 33  H    Isotropic =    30.2184   Anisotropy =     7.0064

 34  H    Isotropic =    30.4146   Anisotropy =     7.3976

 35  H    Isotropic =    30.6402   Anisotropy =     4.8005

 36  H    Isotropic =    30.0470   Anisotropy =     5.6449

 37  H    Isotropic =    30.9448   Anisotropy =     6.8778

 38  H    Isotropic =    31.3365   Anisotropy =     7.4397

 39  H    Isotropic =    31.0680   Anisotropy =    10.2339

 40  H    Isotropic =    31.2996   Anisotropy =     8.5245

  Exact polarizability: 171.912  -0.911 156.941   3.644  -0.308 131.402
 Approx polarizability: 209.834  -2.087 211.998   7.850   2.461 200.653

                     1                      2                      3
                     A                      A                      A
 Frequencies --    19.2432                30.1251                43.1053
 Red. masses --     2.9563                 3.1376                 2.3030
 Frc consts  --     0.0006                 0.0017                 0.0025
 IR Inten    --     0.0166                 0.0231                 0.0606

                     4                      5                      6
                     A                      A                      A
 Frequencies --    61.4773                66.5955                71.1452
 Red. masses --     3.2100                 1.6352                 1.7701
 Frc consts  --     0.0071                 0.0043                 0.0053
 IR Inten    --     0.0550                 0.0182                 0.0637

                     7                      8                      9
                     A                      A                      A
 Frequencies --    83.4081               106.7784               130.9130
 Red. masses --     1.9137                 2.7638                 2.2993
 Frc consts  --     0.0078                 0.0186                 0.0232
 IR Inten    --     0.0122                 0.3017                 0.1205

                    10                     11                     12
                     A                      A                      A
 Frequencies --   139.2609               153.8772               188.5455
 Red. masses --     3.0462                 2.9293                 2.3579
 Frc consts  --     0.0348                 0.0409                 0.0494
 IR Inten    --     0.2128                 0.0223                 0.0323

                    13                     14                     15
                     A                      A                      A
 Frequencies --   204.4954               242.2225               245.5077
 Red. masses --     3.1969                 1.1640                 1.1400
 Frc consts  --     0.0788                 0.0402                 0.0405
 IR Inten    --     0.1850                 0.0037                 0.0104

                    16                     17                     18
                     A                      A                      A
 Frequencies --   249.9735               272.1508               273.4636
 Red. masses --     1.1454                 2.5097                 1.7108
 Frc consts  --     0.0422                 0.1095                 0.0754
 IR Inten    --     0.0042                 0.0170                 0.0735

                    19                     20                     21
                     A                      A                      A
 Frequencies --   292.9308               305.1231               335.1402
 Red. masses --     3.2715                 2.3709                 3.2817
 Frc consts  --     0.1654                 0.1301                 0.2172
 IR Inten    --     0.0744                 0.0271                 0.5603

                    22                     23                     24
                     A                      A                      A
 Frequencies --   414.0818               463.2870               507.1788
 Red. masses --     2.9868                 2.6035                 2.6653
 Frc consts  --     0.3017                 0.3292                 0.4039
 IR Inten    --     1.0141                 0.3435                 0.9367

                    25                     26                     27
                     A                      A                      A
 Frequencies --   616.5950               642.4739               700.6571
 Red. masses --     4.3201                 3.2648                 2.2476
 Frc consts  --     0.9677                 0.7940                 0.6501
 IR Inten    --     6.9327                 5.8452                 3.1287

                    28                     29                     30
                     A                      A                      A
 Frequencies --   727.1019               749.6790               756.2658
 Red. masses --     1.2871                 1.2499                 1.1867
 Frc consts  --     0.4009                 0.4139                 0.3999
 IR Inten    --     3.8954                 6.7655                 3.6047

                    31                     32                     33
                     A                      A                      A
 Frequencies --   767.4130               788.7673               807.7666
 Red. masses --     1.1827                 1.8260                 1.6344
 Frc consts  --     0.4104                 0.6693                 0.6283
 IR Inten    --     2.0014                 9.1366                 3.5054

                    34                     35                     36
                     A                      A                      A
 Frequencies --   885.4584               889.4361               895.8331
 Red. masses --     1.3344                 1.4153                 1.3729
 Frc consts  --     0.6164                 0.6597                 0.6492
 IR Inten    --     0.0920                 3.3113                 0.7498

                    37                     38                     39
                     A                      A                      A
 Frequencies --   904.1748               916.4597               930.3668
 Red. masses --     1.7267                 1.5588                 1.3921
 Frc consts  --     0.8317                 0.7714                 0.7100
 IR Inten    --     0.8234                13.8542                11.1656

                    40                     41                     42
                     A                      A                      A
 Frequencies --  1010.3897              1015.2218              1022.8870
 Red. masses --     3.0007                 2.7982                 3.7657
 Frc consts  --     1.8049                 1.6992                 2.3214
 IR Inten    --     0.4023                 1.9819                 0.8454

                    43                     44                     45
                     A                      A                      A
 Frequencies --  1054.3643              1068.2049              1069.1037
 Red. masses --     1.1307                 2.2960                 2.1931
 Frc consts  --     0.7406                 1.5436                 1.4769
 IR Inten    --     1.6016                 0.5282                 0.2755

                    46                     47                     48
                     A                      A                      A
 Frequencies --  1071.5135              1086.1975              1091.3869
 Red. masses --     1.9685                 1.4060                 1.3418
 Frc consts  --     1.3316                 0.9774                 0.9417
 IR Inten    --     0.5364                 1.7955                 4.8275

                    49                     50                     51
                     A                      A                      A
 Frequencies --  1107.4685              1119.9948              1124.0254
 Red. masses --     1.7093                 1.7868                 1.8480
 Frc consts  --     1.2352                 1.3205                 1.3756
 IR Inten    --     0.8766                 0.0581                 5.7473

                    52                     53                     54
                     A                      A                      A
 Frequencies --  1230.2286              1239.2354              1244.9139
 Red. masses --     1.4543                 1.4165                 1.3825
 Frc consts  --     1.2968                 1.2817                 1.2624
 IR Inten    --     1.4115                 1.0465                 6.4627

                    55                     56                     57
                     A                      A                      A
 Frequencies --  1248.0001              1261.2270              1277.6368
 Red. masses --     1.4462                 1.4205                 1.3091
 Frc consts  --     1.3271                 1.3313                 1.2591
 IR Inten    --     1.3356                 0.5911                 0.7573

                    58                     59                     60
                     A                      A                      A
 Frequencies --  1320.1257              1324.0326              1325.5657
 Red. masses --     1.2685                 1.2200                 1.2327
 Frc consts  --     1.3025                 1.2601                 1.2761
 IR Inten    --     3.2470                 1.2575                 1.0572

                    61                     62                     63
                     A                      A                      A
 Frequencies --  1343.8371              1345.8748              1349.6285
 Red. masses --     1.2599                 1.2875                 1.0801
 Frc consts  --     1.3405                 1.3741                 1.1591
 IR Inten    --     9.9659                 3.8347                 1.5222

                    64                     65                     66
                     A                      A                      A
 Frequencies --  1350.6655              1352.4390              1355.6883
 Red. masses --     1.2637                 1.1572                 1.1396
 Frc consts  --     1.3583                 1.2471                 1.2340
 IR Inten    --     5.0067                 4.4089                 1.2547

                    67                     68                     69
                     A                      A                      A
 Frequencies --  1412.6556              1417.8210              1420.7201
 Red. masses --     1.5211                 1.5315                 1.5226
 Frc consts  --     1.7884                 1.8138                 1.8107
 IR Inten    --     0.8544                 2.9380                 3.4800

                    70                     71                     72
                     A                      A                      A
 Frequencies --  1438.5840              1439.8379              1440.2000
 Red. masses --     1.2366                 1.2423                 1.2423
 Frc consts  --     1.5078                 1.5174                 1.5182
 IR Inten    --     1.1691                 0.7567                 1.7164

                    73                     74                     75
                     A                      A                      A
 Frequencies --  1484.0510              1485.4376              1492.6203
 Red. masses --     1.0870                 1.0833                 1.0843
 Frc consts  --     1.4105                 1.4084                 1.4233
 IR Inten    --     1.0719                 4.6829                 9.8730

                    76                     77                     78
                     A                      A                      A
 Frequencies --  1514.9209              1516.3824              1519.8432
 Red. masses --     1.0713                 1.0702                 1.0632
 Frc consts  --     1.4486                 1.4499                 1.4470
 IR Inten    --     0.2346                 0.6577                 0.0582

                    79                     80                     81
                     A                      A                      A
 Frequencies --  1523.9615              1525.2334              1528.1672
 Red. masses --     1.0657                 1.0653                 1.0698
 Frc consts  --     1.4583                 1.4601                 1.4719
 IR Inten    --     1.1112                 0.9711                 0.8566

                    82                     83                     84
                     A                      A                      A
 Frequencies --  1529.3200              1529.6148              1529.7563
 Red. masses --     1.0417                 1.0412                 1.0411
 Frc consts  --     1.4354                 1.4354                 1.4355
 IR Inten    --     5.9505                 9.1364                 2.6355

                    85                     86                     87
                     A                      A                      A
 Frequencies --  1539.8098              1540.2594              1542.2783
 Red. masses --     1.0804                 1.0825                 1.0864
 Frc consts  --     1.5093                 1.5131                 1.5225
 IR Inten    --     1.7234                 6.5976                 1.7789

                    88                     89                     90
                     A                      A                      A
 Frequencies --  3010.4334              3016.6995              3021.8996
 Red. masses --     1.0665                 1.0613                 1.0594
 Frc consts  --     5.6949                 5.6905                 5.6999
 IR Inten    --    27.4222                20.9480                 1.3917

                    91                     92                     93
                     A                      A                      A
 Frequencies --  3023.5386              3026.5429              3029.1179
 Red. masses --     1.0589                 1.0607                 1.0703
 Frc consts  --     5.7036                 5.7244                 5.7859
 IR Inten    --     9.5987                39.5517                22.4629

                    94                     95                     96
                     A                      A                      A
 Frequencies --  3030.4218              3031.6526              3033.7606
 Red. masses --     1.0680                 1.0615                 1.0631
 Frc consts  --     5.7788                 5.7479                 5.7650
 IR Inten    --    19.0982                18.5496                55.4460

                    97                     98                     99
                     A                      A                      A
 Frequencies --  3039.6164              3040.8959              3042.1798
 Red. masses --     1.0370                 1.0366                 1.0381
 Frc consts  --     5.6451                 5.6476                 5.6608
 IR Inten    --    39.0725                40.7922                32.8986

                   100                    101                    102
                     A                      A                      A
 Frequencies --  3046.2844              3051.7983              3055.2106
 Red. masses --     1.0972                 1.0929                 1.0898
 Frc consts  --     5.9991                 5.9972                 5.9933
 IR Inten    --     9.0757                24.8748                29.4672

                   103                    104                    105
                     A                      A                      A
 Frequencies --  3062.5153              3070.4723              3071.8775
 Red. masses --     1.1032                 1.0988                 1.1013
 Frc consts  --     6.0962                 6.1035                 6.1232
 IR Inten    --     6.2578                15.2786                30.5973

                   106                    107                    108
                     A                      A                      A
 Frequencies --  3077.6935              3080.7216              3084.8751
 Red. masses --     1.1004                 1.1002                 1.1022
 Frc consts  --     6.1413                 6.1524                 6.1802
 IR Inten    --    27.2269                 6.2550                38.1838

                   109                    110                    111
                     A                      A                      A
 Frequencies --  3105.2935              3106.9547              3107.9190
 Red. masses --     1.1028                 1.1028                 1.1027
 Frc consts  --     6.2654                 6.2722                 6.2752
 IR Inten    --    81.1949                34.6164                90.1474

                   112                    113                    114
                     A                      A                      A
 Frequencies --  3110.8342              3111.3059              3112.1555
 Red. masses --     1.1014                 1.1020                 1.1014
 Frc consts  --     6.2796                 6.2851                 6.2853
 IR Inten    --    41.1095                36.6867                52.0900

 - Thermochemistry -
 -------------------
 Temperature   298.150 Kelvin.  Pressure   1.00000 Atm.
 Atom     1 has atomic number  6 and mass  12.00000

 Molecular mass:   202.18504 amu.
 Principal axes and moments of inertia in atomic units:
                           1         2         3
     Eigenvalues --  3336.219904753.885637051.15526
           X            1.00000  -0.00020  -0.00272
           Y            0.00021   0.99999   0.00330
           Z            0.00272  -0.00330   0.99999
 This molecule is an asymmetric top.
 Rotational symmetry number  1.
 Warning -- assumption of classical behavior for rotation
           may cause significant error
 Rotational temperatures (Kelvin)      0.02596     0.01822     0.01228
 Rotational constants (GHZ):           0.54095     0.37963     0.25595
 Zero-point vibrational energy     976526.5 (Joules/Mol)
                                  233.39543 (Kcal/Mol)
 Warning -- explicit consideration of  25 degrees of freedom as
           vibrations may cause significant error
 Vibrational temperatures:     27.69    43.34    62.02    88.45    95.82
          (Kelvin)            102.36   120.01   153.63   188.35   200.37
                              221.39   271.27   294.22   348.50   353.23
                              359.66   391.56   393.45   421.46   439.00
                              482.19   595.77   666.57   729.72   887.14
                              924.38  1008.09  1046.14  1078.62  1088.10
                             1104.13  1134.86  1162.19  1273.98  1279.70
                             1288.90  1300.90  1318.58  1338.59  1453.72
                             1460.68  1471.70  1516.99  1536.91  1538.20
                             1541.67  1562.79  1570.26  1593.40  1611.42
                             1617.22  1770.02  1782.98  1791.15  1795.59
                             1814.62  1838.23  1899.36  1904.99  1907.19
                             1933.48  1936.41  1941.81  1943.30  1945.86
                             1950.53  2032.49  2039.93  2044.10  2069.80
                             2071.60  2072.12  2135.22  2137.21  2147.55
                             2179.63  2181.73  2186.71  2192.64  2194.47
                             2198.69  2200.35  2200.77  2200.98  2215.44
                             2216.09  2218.99  4331.34  4340.35  4347.83
                             4350.19  4354.51  4358.22  4360.10  4361.87
                             4364.90  4373.32  4375.17  4377.01  4382.92
                             4390.85  4395.76  4406.27  4417.72  4419.74
                             4428.11  4432.47  4438.44  4467.82  4470.21
                             4471.60  4475.79  4476.47  4477.69

 Zero-point correction=                           0.371939 (Hartree/Particle)
 Thermal correction to Energy=                    0.390647
 Thermal correction to Enthalpy=                  0.391591
 Thermal correction to Gibbs Free Energy=         0.322756
 Sum of electronic and zero-point Energies=           -814.536055
 Sum of electronic and thermal Energies=              -814.517347
 Sum of electronic and thermal Enthalpies=            -814.516403
 Sum of electronic and thermal Free Energies=         -814.585238

                     E (Thermal)             CV                S
                      KCal/Mol        Cal/Mol-Kelvin    Cal/Mol-Kelvin
 Total                  245.135             66.402            144.876
 Electronic               0.000              0.000              0.000
 Translational            0.889              2.981             41.817
 Rotational               0.889              2.981             33.080
 Vibrational            243.357             60.441             69.979
 Vibration     1          0.593              1.986              6.711
 Vibration     2          0.594              1.984              5.821
 Vibration     3          0.595              1.980              5.111
 Vibration     4          0.597              1.973              4.409
 Vibration     5          0.598              1.970              4.252
 Vibration     6          0.598              1.968              4.121
 Vibration     7          0.600              1.961              3.809
 Vibration     8          0.606              1.944              3.327
 Vibration     9          0.612              1.922              2.933
 Vibration    10          0.615              1.914              2.814
 Vibration    11          0.619              1.898              2.624
 Vibration    12          0.633              1.856              2.242
 Vibration    13          0.640              1.833              2.092
 Vibration    14          0.658              1.776              1.786
 Vibration    15          0.660              1.770              1.763
 Vibration    16          0.663              1.763              1.731
 Vibration    17          0.675              1.725              1.583
 Vibration    18          0.676              1.722              1.574
 Vibration    19          0.688              1.687              1.457
 Vibration    20          0.696              1.664              1.389
 Vibration    21          0.716              1.605              1.235
 Vibration    22          0.778              1.440              0.912
 Vibration    23          0.821              1.331              0.757
 Vibration    24          0.862              1.234              0.640
 Vibration    25          0.976              0.997              0.422

 Normal termination of Gaussian 09 at Fri Oct  1 23:14:00 2021.
 Gaussian 09:  AM64L-G09RevA.02 11-Jun-2009

 ----------------------------------------------------------------------
 #p TD(NStates=10, Root=1) b3lyp/6-31G* volume pop=NPA density=current
 Geom=AllCheck Guess=Read
 ----------------------------------------------------------------------

 CCCCP(CCCC)CCCC_conf_0
 ----------------------
 Redundant internal coordinates taken from checkpoint file:
 C12H27P_a852_conf_0.chk
 Charge =  0 Multiplicity = 1

                         Standard orientation:
 ---------------------------------------------------------------------
 Center     Atomic      Atomic             Coordinates (Angstroms)
 Number     Number       Type             X           Y           Z
 ---------------------------------------------------------------------
      1          6           0        4.566143    0.289573   -1.381537
      2          6           0        3.364639    0.491861   -0.451538
      3          6           0        3.080145   -0.739491    0.418687
      4          6           0        1.988008   -0.577055    1.493061
      5         15           0        0.153620   -0.441135    1.073688
      6          6           0        0.018043    1.238540    0.226969
      7          6           0       -1.392047    1.843098    0.330998
      8          6           0       -1.504767    3.229637   -0.318668
      9          6           0       -2.908826    3.832879   -0.207372
     10          6           0        0.034471   -1.616078   -0.392407
     11          6           0       -1.394829   -1.859894   -0.911939
     12          6           0       -2.308326   -2.616010    0.062235
     13          6           0       -3.710108   -2.861053   -0.505111
     14          1           0        4.749852    1.177295   -1.997474
     15          1           0        4.404611   -0.557920   -2.059338
     16          1           0        5.480098    0.084904   -0.810323
     17          1           0        2.481772    0.741049   -1.052213
     18          1           0        3.546729    1.360517    0.197419
     19          1           0        4.012218   -1.014332    0.936122
     20          1           0        2.843058   -1.594184   -0.228968
     21          1           0        2.211469    0.295528    2.123323
     22          1           0        2.040481   -1.440636    2.169854
     23          1           0        0.323579    1.179513   -0.826595
     24          1           0        0.732944    1.909323    0.722348
     25          1           0       -1.679568    1.909666    1.389243
     26          1           0       -2.123988    1.168748   -0.135840
     27          1           0       -1.218651    3.159180   -1.377874
     28          1           0       -0.775541    3.907248    0.148152
     29          1           0       -3.654494    3.194469   -0.697228
     30          1           0       -2.958173    4.822210   -0.676475
     31          1           0       -3.209421    3.945414    0.841553
     32          1           0        0.464521   -2.572903   -0.064129
     33          1           0        0.666885   -1.252955   -1.213206
     34          1           0       -1.328540   -2.431238   -1.849666
     35          1           0       -1.862582   -0.902336   -1.181934
     36          1           0       -2.382257   -2.058733    1.004329
     37          1           0       -1.841110   -3.578998    0.314450
     38          1           0       -4.216736   -1.914833   -0.732849
     39          1           0       -4.338134   -3.410578    0.205349
     40          1           0       -3.668599   -3.444428   -1.433613
 ---------------------------------------------------------------------

 SCF Done:  E(RB3LYP) =  -814.907994291     A.U. after    1 cycles

 Excitation energies and oscillator strengths:

 Excited State   1:      Singlet-A      6.3472 eV  195.34 nm  f=0.1048  <S**2>=0.000
      57 -> 58         0.69312
 This state for optimization and/or second-order correction.
 Total Energy, E(TD-HF/TD-KS) =  -814.674740414
 Copying the excited state density for this state as the 1-particle RhoCI density.

 Excited State   2:      Singlet-A      6.6177 eV  187.35 nm  f=0.1006  <S**2>=0.000
      57 -> 59         0.68850

 Excited State   3:      Singlet-A      6.9982 eV  177.17 nm  f=0.0202  <S**2>=0.000
      57 -> 60         0.69636

 Excited State   4:      Singlet-A      7.4956 eV  165.41 nm  f=0.0222  <S**2>=0.000
      57 -> 61         0.22529
      57 -> 62         0.65665

 Excited State   5:      Singlet-A      7.5859 eV  163.44 nm  f=0.0110  <S**2>=0.000
      57 -> 61         0.65454
      57 -> 62        -0.22260

 Excited State   6:      Singlet-A      7.7866 eV  159.23 nm  f=0.0085  <S**2>=0.000
      57 -> 63         0.65663
      57 -> 65        -0.20955

 Excited State   7:      Singlet-A      8.0256 eV  154.49 nm  f=0.0110  <S**2>=0.000
      57 -> 64         0.60365
      57 -> 66        -0.32178

 Excited State   8:      Singlet-A      8.1123 eV  152.84 nm  f=0.0093  <S**2>=0.000
      57 -> 63         0.19548
      57 -> 64         0.13647
      57 -> 65         0.64131

 Excited State   9:      Singlet-A      8.2542 eV  150.21 nm  f=0.0140  <S**2>=0.000
      55 -> 58         0.20038
      55 -> 59        -0.19452
      56 -> 58         0.55690
      56 -> 59         0.14257
      57 -> 64        -0.12871
      57 -> 66        -0.23535

 Excited State  10:      Singlet-A      8.2865 eV  149.62 nm  f=0.0114  <S**2>=0.000
      55 -> 59        -0.11426
      56 -> 58         0.21776
      57 -> 64         0.29297
      57 -> 65        -0.15719
      57 -> 66         0.53415
      57 -> 67         0.12388

 The electronic state is 1-A.
 Alpha  occ. eigenvalues --  -77.06314 -10.18236 -10.18117 -10.18111 -10.18010
 Alpha  occ. eigenvalues --  -10.17931 -10.17917 -10.17777 -10.17744 -10.17327
 Alpha  occ. eigenvalues --  -10.17309 -10.17097 -10.16894  -6.53080  -4.69338
 Alpha  occ. eigenvalues --   -4.69330  -4.68825  -0.79889  -0.78846  -0.78659
 Alpha  occ. eigenvalues --   -0.74074  -0.71798  -0.71484  -0.65278  -0.62700
 Alpha  occ. eigenvalues --   -0.62164  -0.58296  -0.57312  -0.57053  -0.51369
 Alpha  occ. eigenvalues --   -0.47000  -0.46469  -0.45305  -0.43439  -0.42649
 Alpha  occ. eigenvalues --   -0.42382  -0.41845  -0.41606  -0.41193  -0.39670
 Alpha  occ. eigenvalues --   -0.38915  -0.38036  -0.37002  -0.36601  -0.35394
 Alpha  occ. eigenvalues --   -0.34995  -0.33975  -0.33559  -0.33252  -0.32691
 Alpha  occ. eigenvalues --   -0.32519  -0.32356  -0.32190  -0.31695  -0.28978
 Alpha  occ. eigenvalues --   -0.28625  -0.20881
 Alpha virt. eigenvalues --    0.05479   0.06312   0.08014   0.09576   0.09953
 Alpha virt. eigenvalues --    0.10612   0.11511   0.11913   0.12256   0.14000
 Alpha virt. eigenvalues --    0.14255   0.14507   0.14865   0.15192   0.15403

 Mulliken atomic charges:
              1
     1  C   -0.441303
     2  C   -0.243391
     3  C   -0.248112
     4  C   -0.462762
     5  P    0.372949
     6  C   -0.411210
     7  C   -0.235821
     8  C   -0.255569
     9  C   -0.440590
    10  C   -0.408490
    11  C   -0.209683
    12  C   -0.224891
    13  C   -0.437988
    14  H    0.141180
    15  H    0.141685
    16  H    0.142195
    17  H    0.127152
    18  H    0.127956
    19  H    0.136097
    20  H    0.138878
    21  H    0.155928
    22  H    0.161443
    23  H    0.186292
    24  H    0.130724
    25  H    0.135872
    26  H    0.122664
    27  H    0.125774
    28  H    0.128500
    29  H    0.145093
    30  H    0.141477
    31  H    0.141798
    32  H    0.124498
    33  H    0.165250
    34  H    0.094554
    35  H    0.101001
    36  H    0.117048
    37  H    0.106692
    38  H    0.135345
    39  H    0.135325
    40  H    0.136439
 Sum of Mulliken atomic charges =  -0.00000

 Dipole moment (field-independent basis, Debye):
    X=              1.8355    Y=              0.6782    Z=              0.2364  Tot=              1.9710
 Quadrupole moment (field-independent basis, Debye-Ang):
   XX=            -97.8957   YY=            -96.9715   ZZ=            -94.7432
   XY=             -2.1529   XZ=              0.4807   YZ=             -0.8971

 Summary of Natural Population Analysis:

                                       Natural Population
                Natural  -----------------------------------------------
    Atom  No    Charge         Core      Valence    Rydberg      Total
 -----------------------------------------------------------------------
      C    1   -0.67324      1.99946     4.66580    0.00797     6.67324
      C    2   -0.45318      1.99934     4.44330    0.01054     6.45318
      C    3   -0.45677      1.99929     4.44438    0.01310     6.45677
      C    4   -0.85870      1.99933     4.83679    0.02258     6.85870
      P    5    1.05829      9.99770     3.84432    0.09969    13.94171
      C    6   -0.75159      1.99929     4.73501    0.01729     6.75159
      C    7   -0.46345      1.99932     4.44845    0.01568     6.46345
      C    8   -0.45796      1.99935     4.44707    0.01154     6.45796
      C    9   -0.67221      1.99946     4.66522    0.00752     6.67221
      C   10   -0.79511      1.99931     4.77543    0.02037     6.79511
      C   11   -0.46638      1.99932     4.45110    0.01596     6.46638
      C   12   -0.45871      1.99934     4.44752    0.01185     6.45871
      C   13   -0.67326      1.99946     4.66588    0.00792     6.67326
      H   14    0.23066      0.00000     0.76747    0.00186     0.76934
      H   15    0.22440      0.00000     0.77395    0.00166     0.77560
      H   16    0.22476      0.00000     0.77338    0.00185     0.77524
      H   17    0.21529      0.00000     0.78076    0.00395     0.78471
      H   18    0.22339      0.00000     0.77275    0.00386     0.77661
      H   19    0.23336      0.00000     0.76238    0.00426     0.76664
      H   20    0.22911      0.00000     0.76725    0.00364     0.77089
      H   21    0.24733      0.00000     0.75104    0.00163     0.75267
      H   22    0.25482      0.00000     0.74371    0.00147     0.74518
      H   23    0.26178      0.00000     0.73622    0.00200     0.73822
      H   24    0.21409      0.00000     0.77340    0.01251     0.78591
      H   25    0.22902      0.00000     0.76937    0.00161     0.77098
      H   26    0.21523      0.00000     0.76927    0.01551     0.78477
      H   27    0.22236      0.00000     0.77556    0.00208     0.77764
      H   28    0.22477      0.00000     0.77320    0.00203     0.77523
      H   29    0.22625      0.00000     0.77268    0.00107     0.77375
      H   30    0.23128      0.00000     0.76790    0.00083     0.76872
      H   31    0.22447      0.00000     0.77444    0.00109     0.77553
      H   32    0.22156      0.00000     0.76824    0.01020     0.77844
      H   33    0.25861      0.00000     0.73682    0.00456     0.74139
      H   34    0.21208      0.00000     0.77704    0.01088     0.78792
      H   35    0.20335      0.00000     0.78122    0.01543     0.79665
      H   36    0.21237      0.00000     0.77872    0.00890     0.78763
      H   37    0.21256      0.00000     0.78052    0.00691     0.78744
      H   38    0.21978      0.00000     0.77639    0.00383     0.78022
      H   39    0.22775      0.00000     0.77096    0.00129     0.77225
      H   40    0.22184      0.00000     0.77613    0.00203     0.77816
 =======================================================================
   * Total *   -0.00000     33.98997    79.62106    0.38897   114.00000

 Normal termination of Gaussian 09 at Sat Oct  2 07:30:38 2021.
