 Gaussian 09, Revision A.02,

 -----------------------------------
 #p opt b3lyp/6-31G* scf=(xqc,tight)
 -----------------------------------

 ----------------------------
 CC(CP(CC(C)C)CC(C)C)C_conf_0
 ----------------------------
 Symbolic Z-matrix:
 Charge =  0 Multiplicity = 1

 SCF Done:  E(RB3LYP) =  -814.905338834     A.U. after   14 cycles
 SCF Done:  E(RB3LYP) =  -814.909076632     A.U. after   12 cycles
 SCF Done:  E(RB3LYP) =  -814.911588480     A.U. after   12 cycles
 SCF Done:  E(RB3LYP) =  -814.912731209     A.U. after   12 cycles
 SCF Done:  E(RB3LYP) =  -814.913031154     A.U. after   10 cycles
 SCF Done:  E(RB3LYP) =  -814.913104145     A.U. after   10 cycles
 SCF Done:  E(RB3LYP) =  -814.913115148     A.U. after   10 cycles
 SCF Done:  E(RB3LYP) =  -814.913143056     A.U. after   11 cycles
 SCF Done:  E(RB3LYP) =  -814.913156921     A.U. after   11 cycles
 SCF Done:  E(RB3LYP) =  -814.913173068     A.U. after   10 cycles
 SCF Done:  E(RB3LYP) =  -814.913178127     A.U. after   10 cycles
 SCF Done:  E(RB3LYP) =  -814.913178957     A.U. after   10 cycles
 SCF Done:  E(RB3LYP) =  -814.913178761     A.U. after    9 cycles
 SCF Done:  E(RB3LYP) =  -814.913177615     A.U. after    7 cycles
 SCF Done:  E(RB3LYP) =  -814.913176325     A.U. after    8 cycles
 SCF Done:  E(RB3LYP) =  -814.913176006     A.U. after    7 cycles
 SCF Done:  E(RB3LYP) =  -814.913175709     A.U. after    6 cycles
 SCF Done:  E(RB3LYP) =  -814.913175627     A.U. after    5 cycles
 Optimization completed.
    -- Stationary point found.
 Normal termination of Gaussian 09 at Fri Oct  1 22:46:05 2021.

 ----------------------------------------------------------------------
 #p freq b3lyp/6-31G* volume NMR pop=NPA density=current Geom=AllCheck
 Guess=Read
 ----------------------------------------------------------------------

 CC(CP(CC(C)C)CC(C)C)C_conf_0
 ----------------------------
 Redundant internal coordinates taken from checkpoint file:
 C12H27P_6999_conf_0.chk
 Charge =  0 Multiplicity = 1

 SCF Done:  E(RB3LYP) =  -814.913175627     A.U. after    1 cycles

  1  C    Isotropic =   163.7495   Anisotropy =    37.8412

  2  C    Isotropic =   161.5752   Anisotropy =     9.1318

  3  C    Isotropic =   148.7632   Anisotropy =    33.8871

  4  P    Isotropic =   409.3780   Anisotropy =    23.6088

  5  C    Isotropic =   145.3324   Anisotropy =    33.8486

  6  C    Isotropic =   158.8606   Anisotropy =    12.1956

  7  C    Isotropic =   167.1226   Anisotropy =    29.7974

  8  C    Isotropic =   163.7146   Anisotropy =    37.6841

  9  C    Isotropic =   143.6098   Anisotropy =    32.5744

 10  C    Isotropic =   160.5483   Anisotropy =     9.4786

 11  C    Isotropic =   163.2332   Anisotropy =    38.7625

 12  C    Isotropic =   167.5817   Anisotropy =    28.3640

 13  C    Isotropic =   167.1362   Anisotropy =    30.2341

 14  H    Isotropic =    31.1923   Anisotropy =     8.5303

 15  H    Isotropic =    31.3460   Anisotropy =     7.5771

 16  H    Isotropic =    30.9912   Anisotropy =     9.9440

 17  H    Isotropic =    30.4591   Anisotropy =     5.5777

 18  H    Isotropic =    31.1946   Anisotropy =     4.8521

 19  H    Isotropic =    30.7202   Anisotropy =     4.4141

 20  H    Isotropic =    30.7614   Anisotropy =     3.5271

 21  H    Isotropic =    30.8898   Anisotropy =     4.2981

 22  H    Isotropic =    30.2332   Anisotropy =     6.8677

 23  H    Isotropic =    31.6202   Anisotropy =     7.1595

 24  H    Isotropic =    30.3233   Anisotropy =     6.1031

 25  H    Isotropic =    31.1764   Anisotropy =     9.7706

 26  H    Isotropic =    31.3614   Anisotropy =     7.3704

 27  H    Isotropic =    30.9806   Anisotropy =    10.0404

 28  H    Isotropic =    31.0849   Anisotropy =     8.3194

 29  H    Isotropic =    30.9628   Anisotropy =     5.1324

 30  H    Isotropic =    30.6487   Anisotropy =     3.9331

 31  H    Isotropic =    30.2168   Anisotropy =     6.8892

 32  H    Isotropic =    31.3588   Anisotropy =     7.5610

 33  H    Isotropic =    31.1191   Anisotropy =     8.4411

 34  H    Isotropic =    30.9614   Anisotropy =     9.9151

 35  H    Isotropic =    31.1924   Anisotropy =     9.4335

 36  H    Isotropic =    30.3348   Anisotropy =     6.2832

 37  H    Isotropic =    31.5572   Anisotropy =     7.7103

 38  H    Isotropic =    31.6103   Anisotropy =     7.6395

 39  H    Isotropic =    30.3808   Anisotropy =     6.5578

 40  H    Isotropic =    31.2154   Anisotropy =     9.6260

  Exact polarizability: 174.442   0.140 154.531   0.436   0.282 132.764
 Approx polarizability: 219.353  -0.017 215.134  -0.092  -0.589 196.541

                     1                      2                      3
                     A                      A                      A
 Frequencies --    15.5769                30.3936                37.8420
 Red. masses --     2.5524                 2.5911                 2.5988
 Frc consts  --     0.0004                 0.0014                 0.0022
 IR Inten    --     0.0255                 0.0326                 0.0106

                     4                      5                      6
                     A                      A                      A
 Frequencies --    51.0240                58.4512                79.1175
 Red. masses --     2.9445                 3.0915                 3.4838
 Frc consts  --     0.0045                 0.0062                 0.0128
 IR Inten    --     0.0173                 0.0041                 0.0112

                     7                      8                      9
                     A                      A                      A
 Frequencies --   106.6458               155.8209               183.7722
 Red. masses --     2.5059                 2.8923                 2.8252
 Frc consts  --     0.0168                 0.0414                 0.0562
 IR Inten    --     0.1762                 0.4502                 0.4725

                    10                     11                     12
                     A                      A                      A
 Frequencies --   210.3393               223.3118               229.0936
 Red. masses --     3.4163                 1.4509                 1.0846
 Frc consts  --     0.0891                 0.0426                 0.0335
 IR Inten    --     0.1465                 0.0912                 0.1382

                    13                     14                     15
                     A                      A                      A
 Frequencies --   230.6902               234.3230               239.7747
 Red. masses --     1.0688                 1.1368                 1.2628
 Frc consts  --     0.0335                 0.0368                 0.0428
 IR Inten    --     0.0968                 0.0627                 0.0748

                    16                     17                     18
                     A                      A                      A
 Frequencies --   260.7681               274.5219               293.9908
 Red. masses --     1.1540                 1.3658                 1.6714
 Frc consts  --     0.0462                 0.0606                 0.0851
 IR Inten    --     0.0231                 0.0418                 0.0228

                    19                     20                     21
                     A                      A                      A
 Frequencies --   333.6137               341.2877               358.7218
 Red. masses --     3.0430                 2.5962                 2.4850
 Frc consts  --     0.1995                 0.1782                 0.1884
 IR Inten    --     0.0365                 0.4722                 0.6585

                    22                     23                     24
                     A                      A                      A
 Frequencies --   394.6434               404.8224               408.4070
 Red. masses --     2.1387                 2.2400                 2.2527
 Frc consts  --     0.1963                 0.2163                 0.2214
 IR Inten    --     0.1352                 0.2070                 0.2470

                    25                     26                     27
                     A                      A                      A
 Frequencies --   424.8512               433.6408               441.8031
 Red. masses --     1.9363                 2.2223                 2.4290
 Frc consts  --     0.2059                 0.2462                 0.2793
 IR Inten    --     0.3224                 1.9100                 1.9316

                    28                     29                     30
                     A                      A                      A
 Frequencies --   690.9339               701.7377               747.4064
 Red. masses --     3.1347                 3.1694                 3.8052
 Frc consts  --     0.8817                 0.9195                 1.2524
 IR Inten    --     0.5942                 4.0327                10.5198

                    31                     32                     33
                     A                      A                      A
 Frequencies --   779.5381               799.6791               827.7752
 Red. masses --     1.7383                 2.4285                 2.7067
 Frc consts  --     0.6224                 0.9150                 1.0928
 IR Inten    --     1.3291                 1.5222                 5.5500

                    34                     35                     36
                     A                      A                      A
 Frequencies --   837.5097               861.8001               877.2993
 Red. masses --     2.2650                 1.7275                 1.6071
 Frc consts  --     0.9361                 0.7559                 0.7288
 IR Inten    --     1.7619                 3.3804                 9.0531

                    37                     38                     39
                     A                      A                      A
 Frequencies --   939.7000               939.8336               940.6978
 Red. masses --     1.1967                 1.1924                 1.2021
 Frc consts  --     0.6226                 0.6205                 0.6268
 IR Inten    --     1.0583                 0.8457                 1.3441

                    40                     41                     42
                     A                      A                      A
 Frequencies --   961.7099               965.2718               970.9402
 Red. masses --     1.9485                 1.9136                 1.9455
 Frc consts  --     1.0618                 1.0505                 1.0806
 IR Inten    --     1.5841                 1.3339                 0.0685

                    43                     44                     45
                     A                      A                      A
 Frequencies --   974.1157               974.3362               975.4994
 Red. masses --     1.4922                 1.5001                 1.4912
 Frc consts  --     0.8343                 0.8390                 0.8361
 IR Inten    --     0.1102                 0.0662                 0.1476

                    46                     47                     48
                     A                      A                      A
 Frequencies --  1060.9038              1076.5753              1098.8242
 Red. masses --     1.2249                 1.3199                 1.3736
 Frc consts  --     0.8123                 0.9013                 0.9772
 IR Inten    --     3.1530                 8.2343                13.9210

                    49                     50                     51
                     A                      A                      A
 Frequencies --  1119.9986              1132.4755              1139.9209
 Red. masses --     1.9000                 1.9358                 2.0155
 Frc consts  --     1.4042                 1.4627                 1.5430
 IR Inten    --     1.9671                 4.7900                 4.2520

                    52                     53                     54
                     A                      A                      A
 Frequencies --  1199.8899              1202.9524              1205.2650
 Red. masses --     1.7224                 1.7552                 1.7640
 Frc consts  --     1.4611                 1.4965                 1.5097
 IR Inten    --    13.0564                13.6238                 3.1089

                    55                     56                     57
                     A                      A                      A
 Frequencies --  1250.4713              1250.8319              1262.1165
 Red. masses --     1.4960                 1.4419                 1.3389
 Frc consts  --     1.3782                 1.3292                 1.2566
 IR Inten    --     0.3470                 0.3540                 3.3577

                    58                     59                     60
                     A                      A                      A
 Frequencies --  1266.5331              1268.5746              1292.3397
 Red. masses --     1.3515                 1.3311                 1.2937
 Frc consts  --     1.2774                 1.2621                 1.2730
 IR Inten    --     2.3712                 4.1405                 2.4283

                    61                     62                     63
                     A                      A                      A
 Frequencies --  1368.7081              1373.4835              1375.2765
 Red. masses --     1.4039                 1.4006                 1.4133
 Frc consts  --     1.5496                 1.5567                 1.5749
 IR Inten    --     0.9730                 0.1908                 6.8522

                    64                     65                     66
                     A                      A                      A
 Frequencies --  1379.0837              1385.1245              1388.3586
 Red. masses --     1.3843                 1.3433                 1.3463
 Frc consts  --     1.5511                 1.5185                 1.5289
 IR Inten    --     4.5070                 7.5476                 2.8434

                    67                     68                     69
                     A                      A                      A
 Frequencies --  1426.9685              1427.2654              1428.7318
 Red. masses --     1.2501                 1.2528                 1.2576
 Frc consts  --     1.4998                 1.5037                 1.5125
 IR Inten    --     1.3469                 1.9630                17.4654

                    70                     71                     72
                     A                      A                      A
 Frequencies --  1445.2806              1445.6360              1447.0897
 Red. masses --     1.2257                 1.2277                 1.2277
 Frc consts  --     1.5084                 1.5117                 1.5147
 IR Inten    --     6.7081                 4.8251                 2.8394

                    73                     74                     75
                     A                      A                      A
 Frequencies --  1478.9479              1488.3132              1491.5354
 Red. masses --     1.0915                 1.0881                 1.0884
 Frc consts  --     1.4066                 1.4200                 1.4267
 IR Inten    --     0.4482                 3.7005                 2.6335

                    76                     77                     78
                     A                      A                      A
 Frequencies --  1518.2361              1519.2419              1519.5589
 Red. masses --     1.0438                 1.0447                 1.0440
 Frc consts  --     1.4176                 1.4207                 1.4203
 IR Inten    --     0.3067                 0.8020                 0.4807

                    79                     80                     81
                     A                      A                      A
 Frequencies --  1521.9812              1522.7650              1523.8049
 Red. masses --     1.0537                 1.0542                 1.0539
 Frc consts  --     1.4381                 1.4402                 1.4419
 IR Inten    --     0.8230                 4.9007                 5.9654

                    82                     83                     84
                     A                      A                      A
 Frequencies --  1532.3360              1533.1224              1533.9364
 Red. masses --     1.0485                 1.0490                 1.0503
 Frc consts  --     1.4506                 1.4527                 1.4561
 IR Inten    --     5.1695                 2.5390                 4.6282

                    85                     86                     87
                     A                      A                      A
 Frequencies --  1538.8555              1540.1017              1540.7748
 Red. masses --     1.0496                 1.0484                 1.0492
 Frc consts  --     1.4645                 1.4651                 1.4675
 IR Inten    --     3.2849                 7.5886                10.7187

                    88                     89                     90
                     A                      A                      A
 Frequencies --  3006.2319              3007.9359              3012.6231
 Red. masses --     1.0773                 1.0621                 1.0626
 Frc consts  --     5.7361                 5.6619                 5.6821
 IR Inten    --    16.0896                 9.9661                 5.3944

                    91                     92                     93
                     A                      A                      A
 Frequencies --  3015.4654              3016.8075              3025.6789
 Red. masses --     1.0598                 1.0808                 1.0817
 Frc consts  --     5.6776                 5.7955                 5.8345
 IR Inten    --    38.5354                24.5421                 9.9190

                    94                     95                     96
                     A                      A                      A
 Frequencies --  3033.9182              3034.4031              3035.0467
 Red. masses --     1.0360                 1.0359                 1.0358
 Frc consts  --     5.6187                 5.6198                 5.6218
 IR Inten    --    23.2198                29.3022                36.3121

                    97                     98                     99
                     A                      A                      A
 Frequencies --  3039.8307              3040.6618              3041.2422
 Red. masses --     1.0391                 1.0384                 1.0391
 Frc consts  --     5.6573                 5.6564                 5.6624
 IR Inten    --    50.5377                37.4852                14.7028

                   100                    101                    102
                     A                      A                      A
 Frequencies --  3055.1196              3060.8614              3063.3576
 Red. masses --     1.1026                 1.1019                 1.1024
 Frc consts  --     6.0634                 6.0824                 6.0950
 IR Inten    --    10.5334                23.3637                29.9422

                   103                    104                    105
                     A                      A                      A
 Frequencies --  3096.5441              3097.1768              3097.3673
 Red. masses --     1.1009                 1.1013                 1.1013
 Frc consts  --     6.2194                 6.2242                 6.2252
 IR Inten    --     4.5342                 3.0740                 4.5752

                   106                    107                    108
                     A                      A                      A
 Frequencies --  3102.8891              3104.0658              3104.6034
 Red. masses --     1.1006                 1.1007                 1.1007
 Frc consts  --     6.2432                 6.2485                 6.2507
 IR Inten    --    26.6440                81.8859                85.7612

                   109                    110                    111
                     A                      A                      A
 Frequencies --  3106.9032              3107.4909              3107.7716
 Red. masses --     1.1021                 1.1023                 1.1021
 Frc consts  --     6.2682                 6.2714                 6.2715
 IR Inten    --    29.8713                50.6449                65.0363

                   112                    113                    114
                     A                      A                      A
 Frequencies --  3123.8222              3124.2304              3124.7731
 Red. masses --     1.1009                 1.1009                 1.1010
 Frc consts  --     6.3298                 6.3310                 6.3340
 IR Inten    --    41.2125                36.3868                15.8268

 - Thermochemistry -
 -------------------
 Temperature   298.150 Kelvin.  Pressure   1.00000 Atm.
 Atom     1 has atomic number  6 and mass  12.00000

 Molecular mass:   202.18504 amu.
 Principal axes and moments of inertia in atomic units:
                           1         2         3
     Eigenvalues --  2805.889184409.071425997.46767
           X            1.00000   0.00139  -0.00016
           Y           -0.00139   1.00000   0.00181
           Z            0.00016  -0.00181   1.00000
 This molecule is an asymmetric top.
 Rotational symmetry number  1.
 Warning -- assumption of classical behavior for rotation
           may cause significant error
 Rotational temperatures (Kelvin)      0.03087     0.01964     0.01444
 Rotational constants (GHZ):           0.64320     0.40932     0.30092
 Zero-point vibrational energy     972157.5 (Joules/Mol)
                                  232.35122 (Kcal/Mol)
 Warning -- explicit consideration of  27 degrees of freedom as
           vibrations may cause significant error
 Vibrational temperatures:     22.41    43.73    54.45    73.41    84.10
          (Kelvin)            113.83   153.44   224.19   264.41   302.63
                              321.30   329.61   331.91   337.14   344.98
                              375.19   394.98   422.99   480.00   491.04
                              516.12   567.80   582.45   587.61   611.27
                              623.91   635.66   994.10  1009.64  1075.35
                             1121.58  1150.56  1190.98  1204.99  1239.94
                             1262.24  1352.02  1352.21  1353.45  1383.68
                             1388.81  1396.96  1401.53  1401.85  1403.52
                             1526.40  1548.95  1580.96  1611.43  1629.38
                             1640.09  1726.37  1730.78  1734.11  1799.15
                             1799.67  1815.90  1822.26  1825.19  1859.39
                             1969.26  1976.13  1978.71  1984.19  1992.88
                             1997.54  2053.09  2053.51  2055.62  2079.43
                             2079.95  2082.04  2127.87  2141.35  2145.98
                             2184.40  2185.85  2186.30  2189.79  2190.92
                             2192.41  2204.69  2205.82  2206.99  2214.07
                             2215.86  2216.83  4325.29  4327.74  4334.49
                             4338.58  4340.51  4353.27  4365.13  4365.82
                             4366.75  4373.63  4374.83  4375.66  4395.63
                             4403.89  4407.48  4455.23  4456.14  4456.42
                             4464.36  4466.05  4466.83  4470.14  4470.98
                             4471.38  4494.48  4495.07  4495.85

 Zero-point correction=                           0.370275 (Hartree/Particle)
 Thermal correction to Energy=                    0.389006
 Thermal correction to Enthalpy=                  0.389950
 Thermal correction to Gibbs Free Energy=         0.321873
 Sum of electronic and zero-point Energies=           -814.542900
 Sum of electronic and thermal Energies=              -814.524170
 Sum of electronic and thermal Enthalpies=            -814.523226
 Sum of electronic and thermal Free Energies=         -814.591303

                     E (Thermal)             CV                S
                      KCal/Mol        Cal/Mol-Kelvin    Cal/Mol-Kelvin
 Total                  244.105             68.218            143.280
 Electronic               0.000              0.000              0.000
 Translational            0.889              2.981             41.817
 Rotational               0.889              2.981             32.673
 Vibrational            242.327             62.257             68.790
 Vibration     1          0.593              1.986              7.131
 Vibration     2          0.594              1.984              5.804
 Vibration     3          0.594              1.982              5.369
 Vibration     4          0.595              1.977              4.777
 Vibration     5          0.596              1.974              4.509
 Vibration     6          0.600              1.963              3.913
 Vibration     7          0.606              1.944              3.329
 Vibration     8          0.620              1.896              2.600
 Vibration     9          0.631              1.862              2.290
 Vibration    10          0.643              1.825              2.041
 Vibration    11          0.649              1.806              1.932
 Vibration    12          0.652              1.797              1.886
 Vibration    13          0.652              1.794              1.874
 Vibration    14          0.654              1.788              1.846
 Vibration    15          0.657              1.780              1.805
 Vibration    16          0.669              1.745              1.657
 Vibration    17          0.677              1.720              1.568
 Vibration    18          0.689              1.685              1.451
 Vibration    19          0.715              1.608              1.243
 Vibration    20          0.721              1.593              1.206
 Vibration    21          0.734              1.557              1.128
 Vibration    22          0.762              1.482              0.983
 Vibration    23          0.770              1.460              0.945
 Vibration    24          0.773              1.452              0.932
 Vibration    25          0.787              1.416              0.876
 Vibration    26          0.794              1.397              0.847
 Vibration    27          0.802              1.379              0.821

 Optimization completed.
    -- Stationary point found.
 Normal termination of Gaussian 09 at Sat Oct  2 00:41:25 2021.
 Gaussian 09:  AM64L-G09RevA.02 11-Jun-2009

 ----------------------------------------------------------------------
 #p TD(NStates=10, Root=1) b3lyp/6-31G* volume pop=NPA density=current
 Geom=AllCheck Guess=Read
 ----------------------------------------------------------------------

 CC(CP(CC(C)C)CC(C)C)C_conf_0
 ----------------------------
 Redundant internal coordinates taken from checkpoint file:
 C12H27P_6999_conf_0.chk
 Charge =  0 Multiplicity = 1

                         Standard orientation:
 ---------------------------------------------------------------------
 Center     Atomic      Atomic             Coordinates (Angstroms)
 Number     Number       Type             X           Y           Z
 ---------------------------------------------------------------------
      1          6           0        4.184777   -0.685788   -1.034873
      2          6           0        3.050399   -0.340030   -0.057175
      3          6           0        1.716705   -0.945309   -0.545799
      4         15           0        0.184659   -0.318813    0.351581
      5          6           0       -0.093007    1.265310   -0.634689
      6          6           0       -1.033368    2.306669    0.010511
      7          6           0       -0.433944    2.904402    1.291539
      8          6           0       -1.373682    3.415099   -0.998397
      9          6           0       -1.060757   -1.470102   -0.467354
     10          6           0       -2.535274   -1.295430   -0.046215
     11          6           0       -3.441595   -2.181728   -0.915844
     12          6           0       -2.754466   -1.594815    1.444002
     13          6           0        3.401352   -0.797117    1.366421
     14          1           0        3.970153   -0.317511   -2.045251
     15          1           0        4.327353   -1.772504   -1.099214
     16          1           0        5.135249   -0.245067   -0.710488
     17          1           0        2.949269    0.756192   -0.044385
     18          1           0        1.747553   -2.035496   -0.407994
     19          1           0        1.599242   -0.770853   -1.625296
     20          1           0       -0.455640    1.000139   -1.638614
     21          1           0        0.894243    1.728615   -0.775711
     22          1           0       -1.974348    1.805769    0.281691
     23          1           0        0.495426    3.445772    1.068495
     24          1           0       -0.200381    2.127045    2.026286
     25          1           0       -1.128495    3.614711    1.755529
     26          1           0       -0.466619    3.945675   -1.316917
     27          1           0       -2.053833    4.155246   -0.559696
     28          1           0       -1.853752    3.007877   -1.896392
     29          1           0       -0.743031   -2.493812   -0.219845
     30          1           0       -0.975174   -1.372120   -1.559741
     31          1           0       -2.824954   -0.250264   -0.229436
     32          1           0       -3.197430   -3.243341   -0.778194
     33          1           0       -3.328291   -1.949193   -1.981509
     34          1           0       -4.497620   -2.047071   -0.652229
     35          1           0       -3.802713   -1.437868    1.725055
     36          1           0       -2.131164   -0.958822    2.080755
     37          1           0       -2.502204   -2.639406    1.669909
     38          1           0        3.550556   -1.884730    1.397075
     39          1           0        2.605789   -0.548936    2.076312
     40          1           0        4.328091   -0.324810    1.713337
 ---------------------------------------------------------------------

 SCF Done:  E(RB3LYP) =  -814.913175627     A.U. after    2 cycles

 Excitation energies and oscillator strengths:

 Excited State   1:      Singlet-A      6.3428 eV  195.47 nm  f=0.1530  <S**2>=0.000
      57 -> 58         0.69761
 This state for optimization and/or second-order correction.
 Total Energy, E(TD-HF/TD-KS) =  -814.680080262
 Copying the excited state density for this state as the 1-particle RhoCI density.

 Excited State   2:      Singlet-A      6.6724 eV  185.82 nm  f=0.1412  <S**2>=0.000
      57 -> 59         0.69461

 Excited State   3:      Singlet-A      7.1460 eV  173.50 nm  f=0.0125  <S**2>=0.000
      57 -> 60         0.69644

 Excited State   4:      Singlet-A      7.6871 eV  161.29 nm  f=0.0156  <S**2>=0.000
      57 -> 61         0.69597

 Excited State   5:      Singlet-A      7.8153 eV  158.64 nm  f=0.0026  <S**2>=0.000
      57 -> 62         0.68998

 Excited State   6:      Singlet-A      8.0109 eV  154.77 nm  f=0.0050  <S**2>=0.000
      57 -> 63         0.68408

 Excited State   7:      Singlet-A      8.1831 eV  151.51 nm  f=0.0027  <S**2>=0.000
      55 -> 58         0.59690
      56 -> 58         0.14989
      56 -> 59        -0.29887

 Excited State   8:      Singlet-A      8.2678 eV  149.96 nm  f=0.0217  <S**2>=0.000
      55 -> 59         0.10270
      56 -> 58        -0.22079
      56 -> 59         0.10184
      57 -> 63        -0.11357
      57 -> 64         0.60104
      57 -> 65         0.11915
      57 -> 66        -0.16413

 Excited State   9:      Singlet-A      8.3410 eV  148.65 nm  f=0.0833  <S**2>=0.000
      55 -> 58        -0.11018
      55 -> 59        -0.14874
      56 -> 58         0.48571
      56 -> 59         0.11222
      57 -> 64         0.11327
      57 -> 65        -0.15115
      57 -> 66        -0.40701

 Excited State  10:      Singlet-A      8.3703 eV  148.12 nm  f=0.0194  <S**2>=0.000
      56 -> 58         0.13460
      56 -> 59        -0.25765
      57 -> 65         0.59506
      57 -> 66        -0.14481

 The electronic state is 1-A.
 Alpha  occ. eigenvalues --  -77.06416 -10.18943 -10.18916 -10.18829 -10.17980
 Alpha  occ. eigenvalues --  -10.17977 -10.17909 -10.17129 -10.17106 -10.17085
 Alpha  occ. eigenvalues --  -10.16657 -10.16602 -10.16598  -6.53175  -4.69429
 Alpha  occ. eigenvalues --   -4.69419  -4.68938  -0.80704  -0.79629  -0.79472
 Alpha  occ. eigenvalues --   -0.72026  -0.67704  -0.67655  -0.67629  -0.66963
 Alpha  occ. eigenvalues --   -0.66727  -0.57571  -0.55829  -0.55142  -0.52150
 Alpha  occ. eigenvalues --   -0.46337  -0.45587  -0.44839  -0.43386  -0.42775
 Alpha  occ. eigenvalues --   -0.42534  -0.42120  -0.41688  -0.40450  -0.38645
 Alpha  occ. eigenvalues --   -0.38269  -0.37910  -0.37705  -0.37383  -0.36372
 Alpha  occ. eigenvalues --   -0.34971  -0.34570  -0.34073  -0.33309  -0.33008
 Alpha  occ. eigenvalues --   -0.32367  -0.32342  -0.32086  -0.31586  -0.29020
 Alpha  occ. eigenvalues --   -0.28648  -0.21327
 Alpha virt. eigenvalues --    0.04901   0.05886   0.07910   0.10171   0.10730
 Alpha virt. eigenvalues --    0.11139   0.11991   0.12351   0.12944   0.13973
 Alpha virt. eigenvalues --    0.14654   0.15034   0.15301   0.15585   0.15821

 Mulliken atomic charges:
              1
     1  C   -0.432661
     2  C   -0.062627
     3  C   -0.419578
     4  P    0.349919
     5  C   -0.424597
     6  C   -0.036144
     7  C   -0.445388
     8  C   -0.450731
     9  C   -0.424622
    10  C   -0.038047
    11  C   -0.445257
    12  C   -0.425576
    13  C   -0.432440
    14  H    0.131897
    15  H    0.136582
    16  H    0.130998
    17  H    0.118839
    18  H    0.136315
    19  H    0.141574
    20  H    0.178708
    21  H    0.155138
    22  H    0.099521
    23  H    0.132451
    24  H    0.149876
    25  H    0.144307
    26  H    0.135958
    27  H    0.143914
    28  H    0.132958
    29  H    0.147697
    30  H    0.170879
    31  H    0.105261
    32  H    0.135322
    33  H    0.126057
    34  H    0.138947
    35  H    0.134128
    36  H    0.126526
    37  H    0.119842
    38  H    0.132082
    39  H    0.145820
    40  H    0.136153
 Sum of Mulliken atomic charges =  -0.00000

 Dipole moment (field-independent basis, Debye):
    X=              0.6240    Y=              0.0200    Z=             -1.1349  Tot=              1.2953
 Quadrupole moment (field-independent basis, Debye-Ang):
   XX=            -99.8712   YY=            -95.7564   ZZ=            -95.9379
   XY=             -0.2395   XZ=              1.0287   YZ=              0.1325

 Summary of Natural Population Analysis:

                                       Natural Population
                Natural  -----------------------------------------------
    Atom  No    Charge         Core      Valence    Rydberg      Total
 -----------------------------------------------------------------------
      C    1   -0.67007      1.99942     4.66101    0.00964     6.67007
      C    2   -0.25409      1.99925     4.24249    0.01235     6.25409
      C    3   -0.85155      1.99929     4.82725    0.02501     6.85155
      P    4    1.01998      9.99764     3.88648    0.09590    13.98002
      C    5   -0.75895      1.99925     4.73917    0.02052     6.75895
      C    6   -0.25746      1.99923     4.24398    0.01425     6.25746
      C    7   -0.67500      1.99942     4.66523    0.01036     6.67500
      C    8   -0.67526      1.99941     4.66556    0.01029     6.67526
      C    9   -0.78067      1.99926     4.76082    0.02058     6.78067
      C   10   -0.25843      1.99923     4.24413    0.01507     6.25843
      C   11   -0.67395      1.99941     4.66402    0.01052     6.67395
      C   12   -0.67788      1.99941     4.66788    0.01058     6.67788
      C   13   -0.67459      1.99942     4.66570    0.00948     6.67459
      H   14    0.22465      0.00000     0.77276    0.00260     0.77535
      H   15    0.22353      0.00000     0.77396    0.00251     0.77647
      H   16    0.22296      0.00000     0.77333    0.00372     0.77704
      H   17    0.22888      0.00000     0.76760    0.00351     0.77112
      H   18    0.24050      0.00000     0.75586    0.00364     0.75950
      H   19    0.24680      0.00000     0.74830    0.00490     0.75320
      H   20    0.26621      0.00000     0.73140    0.00239     0.73379
      H   21    0.23493      0.00000     0.76003    0.00504     0.76507
      H   22    0.21486      0.00000     0.76624    0.01890     0.78514
      H   23    0.21933      0.00000     0.77849    0.00218     0.78067
      H   24    0.22850      0.00000     0.76970    0.00180     0.77150
      H   25    0.23439      0.00000     0.76478    0.00083     0.76561
      H   26    0.22212      0.00000     0.77590    0.00199     0.77788
      H   27    0.23352      0.00000     0.76522    0.00126     0.76648
      H   28    0.22337      0.00000     0.77463    0.00201     0.77663
      H   29    0.23993      0.00000     0.75566    0.00442     0.76007
      H   30    0.26473      0.00000     0.73321    0.00207     0.73527
      H   31    0.21770      0.00000     0.76911    0.01319     0.78230
      H   32    0.22257      0.00000     0.77494    0.00249     0.77743
      H   33    0.21932      0.00000     0.77810    0.00258     0.78068
      H   34    0.22992      0.00000     0.76758    0.00250     0.77008
      H   35    0.22851      0.00000     0.76920    0.00228     0.77149
      H   36    0.21417      0.00000     0.77730    0.00853     0.78583
      H   37    0.21241      0.00000     0.78341    0.00419     0.78759
      H   38    0.22011      0.00000     0.77644    0.00345     0.77989
      H   39    0.22675      0.00000     0.77136    0.00190     0.77325
      H   40    0.22728      0.00000     0.77000    0.00272     0.77272
 =======================================================================
   * Total *   -0.00000     33.98964    79.63821    0.37215   114.00000

 Normal termination of Gaussian 09 at Sat Oct  2 09:30:39 2021.
