 Gaussian 09, Revision A.02,

 -----------------------------------
 #p opt b3lyp/6-31G* scf=(xqc,tight)
 -----------------------------------

 ---------------------------------
 COc1cccc(c1)OC(=O)C(C)(C)C_conf_0
 ---------------------------------
 Symbolic Z-matrix:
 Charge =  0 Multiplicity = 1

 SCF Done:  E(RB3LYP) =  -692.584723987     A.U. after   15 cycles
 SCF Done:  E(RB3LYP) =  -692.588870145     A.U. after   12 cycles
 SCF Done:  E(RB3LYP) =  -692.588285078     A.U. after   16 cycles
 SCF Done:  E(RB3LYP) =  -692.589035500     A.U. after   12 cycles
 SCF Done:  E(RB3LYP) =  -692.589288698     A.U. after   12 cycles
 SCF Done:  E(RB3LYP) =  -692.589473788     A.U. after   11 cycles
 SCF Done:  E(RB3LYP) =  -692.589575461     A.U. after   11 cycles
 SCF Done:  E(RB3LYP) =  -692.589623619     A.U. after   11 cycles
 SCF Done:  E(RB3LYP) =  -692.589640464     A.U. after   10 cycles
 SCF Done:  E(RB3LYP) =  -692.589651389     A.U. after   11 cycles
 SCF Done:  E(RB3LYP) =  -692.589659020     A.U. after   11 cycles
 SCF Done:  E(RB3LYP) =  -692.589670892     A.U. after   11 cycles
 SCF Done:  E(RB3LYP) =  -692.589675900     A.U. after   11 cycles
 SCF Done:  E(RB3LYP) =  -692.589677823     A.U. after    9 cycles
 SCF Done:  E(RB3LYP) =  -692.589678970     A.U. after    9 cycles
 SCF Done:  E(RB3LYP) =  -692.589679906     A.U. after    9 cycles
 SCF Done:  E(RB3LYP) =  -692.589679604     A.U. after    8 cycles
 SCF Done:  E(RB3LYP) =  -692.589679807     A.U. after    7 cycles
 Optimization completed.
    -- Stationary point found.
 Normal termination of Gaussian 09 at Wed Sep 29 07:23:29 2021.

 ----------------------------------------------------------------------
 #p freq b3lyp/6-31G* volume NMR pop=NPA density=current Geom=AllCheck
 Guess=Read
 ----------------------------------------------------------------------

 COc1cccc(c1)OC(=O)C(C)(C)C_conf_0
 ---------------------------------
 Redundant internal coordinates taken from checkpoint file:
 C12H16O3_f69c_conf_0.chk
 Charge =  0 Multiplicity = 1

 SCF Done:  E(RB3LYP) =  -692.589679807     A.U. after    1 cycles

  1  C    Isotropic =   137.3766   Anisotropy =    65.1263

  2  O    Isotropic =   236.8356   Anisotropy =    80.5932

  3  C    Isotropic =    38.2049   Anisotropy =   125.2369

  4  C    Isotropic =    81.8674   Anisotropy =   132.8548

  5  C    Isotropic =    67.1576   Anisotropy =   164.3754

  6  C    Isotropic =    81.1211   Anisotropy =   141.9490

  7  C    Isotropic =    44.0066   Anisotropy =   107.7016

  8  C    Isotropic =    93.1540   Anisotropy =   119.5547

  9  O    Isotropic =   106.8941   Anisotropy =   156.6799

 10  C    Isotropic =    23.0255   Anisotropy =    76.9323

 11  O    Isotropic =   -64.1600   Anisotropy =   576.6366

 12  C    Isotropic =   148.9418   Anisotropy =    24.2124

 13  C    Isotropic =   162.1606   Anisotropy =    37.9258

 14  C    Isotropic =   162.8190   Anisotropy =    31.4327

 15  C    Isotropic =   162.1584   Anisotropy =    37.4271

 16  H    Isotropic =    28.2990   Anisotropy =     8.0833

 17  H    Isotropic =    28.6622   Anisotropy =     7.5981

 18  H    Isotropic =    28.6723   Anisotropy =     7.4433

 19  H    Isotropic =    25.6555   Anisotropy =     5.1487

 20  H    Isotropic =    25.0736   Anisotropy =     4.2799

 21  H    Isotropic =    25.4601   Anisotropy =     8.0999

 22  H    Isotropic =    26.2263   Anisotropy =     9.7427

 23  H    Isotropic =    30.8815   Anisotropy =     7.9344

 24  H    Isotropic =    30.4040   Anisotropy =     7.3501

 25  H    Isotropic =    31.1267   Anisotropy =     7.8132

 26  H    Isotropic =    30.6953   Anisotropy =     7.9297

 27  H    Isotropic =    31.4970   Anisotropy =     7.8059

 28  H    Isotropic =    30.6462   Anisotropy =     8.1960

 29  H    Isotropic =    30.4641   Anisotropy =     6.1636

 30  H    Isotropic =    30.8564   Anisotropy =     8.1725

 31  H    Isotropic =    31.1187   Anisotropy =     7.8589

  Exact polarizability: 173.078   2.780 141.316  -1.931  -0.556  85.110
 Approx polarizability: 232.006   5.388 220.845  -4.901   5.432 128.974

                     1                      2                      3
                     A                      A                      A
 Frequencies --    13.7442                42.9989                46.7711
 Red. masses --     3.3619                 4.3236                 6.2857
 Frc consts  --     0.0004                 0.0047                 0.0081
 IR Inten    --     0.1603                 0.6260                 0.1528

                     4                      5                      6
                     A                      A                      A
 Frequencies --    83.6275               100.4303               187.5984
 Red. masses --     3.7066                 3.5803                 2.3061
 Frc consts  --     0.0153                 0.0213                 0.0478
 IR Inten    --     1.0653                 4.6131                 0.7637

                     7                      8                      9
                     A                      A                      A
 Frequencies --   199.3858               205.0150               211.9801
 Red. masses --     2.4725                 1.5926                 1.8998
 Frc consts  --     0.0579                 0.0394                 0.0503
 IR Inten    --     0.0840                 1.3528                 0.3031

                    10                     11                     12
                     A                      A                      A
 Frequencies --   233.9267               262.3030               265.6266
 Red. masses --     1.7462                 1.2415                 1.5219
 Frc consts  --     0.0563                 0.0503                 0.0633
 IR Inten    --     1.3776                 0.5849                 0.1823

                    13                     14                     15
                     A                      A                      A
 Frequencies --   279.8672               287.3915               315.4768
 Red. masses --     1.6199                 2.0776                 2.9821
 Frc consts  --     0.0748                 0.1011                 0.1749
 IR Inten    --     0.2992                 2.2733                 5.1839

                    16                     17                     18
                     A                      A                      A
 Frequencies --   355.0536               371.4594               398.4653
 Red. masses --     3.1681                 2.4206                 4.2136
 Frc consts  --     0.2353                 0.1968                 0.3942
 IR Inten    --     6.1351                 0.3182                 0.6291

                    19                     20                     21
                     A                      A                      A
 Frequencies --   449.4021               464.2825               471.4471
 Red. masses --     3.3843                 3.6899                 3.8606
 Frc consts  --     0.4027                 0.4686                 0.5056
 IR Inten    --     2.5957                 0.6210                 1.0896

                    22                     23                     24
                     A                      A                      A
 Frequencies --   561.8512               572.0541               601.6334
 Red. masses --     4.8132                 4.5790                 5.2440
 Frc consts  --     0.8952                 0.8829                 1.1183
 IR Inten    --     7.7124                 5.6973                 1.2276

                    25                     26                     27
                     A                      A                      A
 Frequencies --   638.6406               693.3594               747.3784
 Red. masses --     4.8529                 2.4386                 6.5380
 Frc consts  --     1.1662                 0.6907                 2.1517
 IR Inten    --     0.2145                 6.2190                 0.8188

                    28                     29                     30
                     A                      A                      A
 Frequencies --   758.7051               779.6554               816.1810
 Red. masses --     6.2504                 1.4809                 2.7286
 Frc consts  --     2.1199                 0.5304                 1.0709
 IR Inten    --     3.4443                28.9889                 1.0356

                    31                     32                     33
                     A                      A                      A
 Frequencies --   854.4226               877.0681               898.6737
 Red. masses --     1.7679                 1.7250                 2.6254
 Frc consts  --     0.7604                 0.7818                 1.2492
 IR Inten    --    15.7966                15.1598                18.4685

                    34                     35                     36
                     A                      A                      A
 Frequencies --   947.6787               955.1839               966.9795
 Red. masses --     1.7581                 1.6978                 1.2774
 Frc consts  --     0.9303                 0.9127                 0.7037
 IR Inten    --     1.2978                 7.0647                 0.7202

                    37                     38                     39
                     A                      A                      A
 Frequencies --   971.7982               980.0394              1016.0804
 Red. masses --     3.1831                 1.2001                 6.0854
 Frc consts  --     1.7711                 0.6791                 3.7016
 IR Inten    --    12.5977                 0.0258                12.2672

                    40                     41                     42
                     A                      A                      A
 Frequencies --  1058.7714              1060.1677              1080.2590
 Red. masses --     1.4331                 1.4682                 3.8687
 Frc consts  --     0.9465                 0.9723                 2.6599
 IR Inten    --     1.8859                36.4784                44.2360

                    43                     44                     45
                     A                      A                      A
 Frequencies --  1112.7621              1147.9020              1180.4058
 Red. masses --     1.5550                 3.4159                 1.6634
 Frc consts  --     1.1345                 2.6520                 1.3655
 IR Inten    --     8.1625               426.7679               321.6819

                    46                     47                     48
                     A                      A                      A
 Frequencies --  1184.8781              1198.5333              1226.7712
 Red. masses --     1.2706                 1.3346                 1.5983
 Frc consts  --     1.0510                 1.1295                 1.4172
 IR Inten    --     0.7450                71.6746                96.1913

                    49                     50                     51
                     A                      A                      A
 Frequencies --  1242.2370              1264.2132              1305.6312
 Red. masses --     2.6620                 2.7978                 3.5358
 Frc consts  --     2.4203                 2.6345                 3.5512
 IR Inten    --     2.3711                14.9744                77.5160

                    52                     53                     54
                     A                      A                      A
 Frequencies --  1313.7863              1322.6237              1377.8257
 Red. masses --     3.8494                 1.6671                 4.4268
 Frc consts  --     3.9146                 1.7182                 4.9514
 IR Inten    --    99.6446                16.0053                44.9658

                    55                     56                     57
                     A                      A                      A
 Frequencies --  1421.4885              1429.8997              1458.5976
 Red. masses --     1.2116                 1.2329                 1.2223
 Frc consts  --     1.4425                 1.4852                 1.5321
 IR Inten    --     3.8357                 4.2149                15.9687

                    58                     59                     60
                     A                      A                      A
 Frequencies --  1482.3411              1507.6061              1508.6372
 Red. masses --     1.8673                 1.0626                 1.6216
 Frc consts  --     2.4174                 1.4230                 2.1746
 IR Inten    --    23.3617                 1.2591                28.6928

                    61                     62                     63
                     A                      A                      A
 Frequencies --  1515.3098              1520.3518              1521.3752
 Red. masses --     1.0453                 1.0461                 1.0480
 Frc consts  --     1.4142                 1.4247                 1.4291
 IR Inten    --     0.1982                 0.1723                 5.6370

                    64                     65                     66
                     A                      A                      A
 Frequencies --  1528.8785              1532.8185              1533.2413
 Red. masses --     1.0490                 1.1154                 1.1219
 Frc consts  --     1.4447                 1.5440                 1.5540
 IR Inten    --     6.0770                25.3261                57.4042

                    67                     68                     69
                     A                      A                      A
 Frequencies --  1545.0363              1550.2279              1643.9664
 Red. masses --     1.8640                 1.0870                 6.3825
 Frc consts  --     2.6216                 1.5390                10.1632
 IR Inten    --    60.5076                15.8915                81.9971

                    70                     71                     72
                     A                      A                      A
 Frequencies --  1669.3640              1833.2414              3025.7783
 Red. masses --     6.2661                12.6896                 1.0347
 Frc consts  --    10.2885                25.1267                 5.5816
 IR Inten    --   127.4563               187.4793                46.9946

                    73                     74                     75
                     A                      A                      A
 Frequencies --  3050.0332              3051.9711              3061.0533
 Red. masses --     1.0356                 1.0362                 1.0367
 Frc consts  --     5.6759                 5.6866                 5.7234
 IR Inten    --    28.0771                10.7121                27.1377

                    76                     77                     78
                     A                      A                      A
 Frequencies --  3084.6244              3113.3987              3114.9506
 Red. masses --     1.1067                 1.1031                 1.1023
 Frc consts  --     6.2042                 6.3002                 6.3017
 IR Inten    --    42.1607                11.0451                23.8822

                    79                     80                     81
                     A                      A                      A
 Frequencies --  3128.5420              3138.4868              3139.8190
 Red. masses --     1.1016                 1.1026                 1.1020
 Frc consts  --     6.3528                 6.3990                 6.4011
 IR Inten    --    40.8213                 6.9854                17.3233

                    82                     83                     84
                     A                      A                      A
 Frequencies --  3143.3789              3158.5704              3197.6809
 Red. masses --     1.1009                 1.0998                 1.0883
 Frc consts  --     6.4092                 6.4644                 6.5562
 IR Inten    --    44.2095                26.4819                12.2264

                    85                     86                     87
                     A                      A                      A
 Frequencies --  3222.2626              3241.9774              3250.9541
 Red. masses --     1.0935                 1.0903                 1.0934
 Frc consts  --     6.6893                 6.7515                 6.8082
 IR Inten    --     8.7843                 2.4051                 2.0945

 - Thermochemistry -
 -------------------
 Temperature   298.150 Kelvin.  Pressure   1.00000 Atm.
 Atom     1 has atomic number  6 and mass  12.00000

 Molecular mass:   208.10994 amu.
 Principal axes and moments of inertia in atomic units:
                           1         2         3
     Eigenvalues --  1489.768675990.802616872.93983
           X            0.99999  -0.00045  -0.00408
           Y            0.00040   0.99992  -0.01245
           Z            0.00408   0.01245   0.99991
 This molecule is an asymmetric top.
 Rotational symmetry number  1.
 Warning -- assumption of classical behavior for rotation
           may cause significant error
 Rotational temperatures (Kelvin)      0.05814     0.01446     0.01260
 Rotational constants (GHZ):           1.21142     0.30125     0.26259
 Zero-point vibrational energy     683583.7 (Joules/Mol)
                                  163.38042 (Kcal/Mol)
 Warning -- explicit consideration of  24 degrees of freedom as
           vibrations may cause significant error
 Vibrational temperatures:     19.77    61.87    67.29   120.32   144.50
          (Kelvin)            269.91   286.87   294.97   304.99   336.57
                              377.39   382.18   402.67   413.49   453.90
                              510.84   534.45   573.30   646.59   668.00
                              678.31   808.38   823.06   865.62   918.86
                              997.59  1075.31  1091.61  1121.75  1174.30
                             1229.32  1261.90  1292.99  1363.50  1374.29
                             1391.27  1398.20  1410.06  1461.91  1523.33
                             1525.34  1554.25  1601.01  1651.57  1698.34
                             1704.77  1724.42  1765.05  1787.30  1818.92
                             1878.51  1890.24  1902.96  1982.38  2045.20
                             2057.30  2098.59  2132.76  2169.11  2170.59
                             2180.19  2187.44  2188.92  2199.71  2205.38
                             2205.99  2222.96  2230.43  2365.30  2401.84
                             2637.62  4353.41  4388.31  4391.10  4404.17
                             4438.08  4479.48  4481.71  4501.27  4515.58
                             4517.49  4522.62  4544.47  4600.74  4636.11
                             4664.48  4677.39

 Zero-point correction=                           0.260363 (Hartree/Particle)
 Thermal correction to Energy=                    0.275912
 Thermal correction to Enthalpy=                  0.276856
 Thermal correction to Gibbs Free Energy=         0.216256
 Sum of electronic and zero-point Energies=           -692.329317
 Sum of electronic and thermal Energies=              -692.313768
 Sum of electronic and thermal Enthalpies=            -692.312824
 Sum of electronic and thermal Free Energies=         -692.373424

                     E (Thermal)             CV                S
                      KCal/Mol        Cal/Mol-Kelvin    Cal/Mol-Kelvin
 Total                  173.137             58.216            127.543
 Electronic               0.000              0.000              0.000
 Translational            0.889              2.981             41.903
 Rotational               0.889              2.981             32.484
 Vibrational            171.360             52.254             53.157
 Vibration     1          0.593              1.986              7.379
 Vibration     2          0.595              1.980              5.116
 Vibration     3          0.595              1.979              4.949
 Vibration     4          0.601              1.960              3.804
 Vibration     5          0.604              1.949              3.446
 Vibration     6          0.632              1.857              2.251
 Vibration     7          0.638              1.841              2.139
 Vibration     8          0.640              1.833              2.088
 Vibration     9          0.643              1.823              2.027
 Vibration    10          0.654              1.789              1.849
 Vibration    11          0.670              1.742              1.646
 Vibration    12          0.671              1.736              1.625
 Vibration    13          0.680              1.711              1.534
 Vibration    14          0.685              1.697              1.489
 Vibration    15          0.703              1.644              1.333
 Vibration    16          0.731              1.565              1.144
 Vibration    17          0.743              1.531              1.074
 Vibration    18          0.765              1.473              0.968
 Vibration    19          0.808              1.362              0.798
 Vibration    20          0.822              1.329              0.754
 Vibration    21          0.828              1.313              0.734
 Vibration    22          0.918              1.114              0.520
 Vibration    23          0.928              1.092              0.500
 Vibration    24          0.960              1.028              0.447

 Optimization completed.
    -- Stationary point found.
 Normal termination of Gaussian 09 at Wed Sep 29 08:25:30 2021.
 Gaussian 09:  AM64L-G09RevA.02 11-Jun-2009

 ----------------------------------------------------------------------
 #p TD(NStates=10, Root=1) b3lyp/6-31G* volume pop=NPA density=current
 Geom=AllCheck Guess=Read
 ----------------------------------------------------------------------

 COc1cccc(c1)OC(=O)C(C)(C)C_conf_0
 ---------------------------------
 Redundant internal coordinates taken from checkpoint file:
 C12H16O3_f69c_conf_0.chk
 Charge =  0 Multiplicity = 1

                         Standard orientation:
 ---------------------------------------------------------------------
 Center     Atomic      Atomic             Coordinates (Angstroms)
 Number     Number       Type             X           Y           Z
 ---------------------------------------------------------------------
      1          6           0        3.803574    2.260605   -0.185731
      2          8           0        4.018052    0.859546   -0.129907
      3          6           0        2.931997    0.043565   -0.000873
      4          6           0        3.201446   -1.332555    0.037770
      5          6           0        2.153823   -2.235872    0.170495
      6          6           0        0.827578   -1.803112    0.268972
      7          6           0        0.582931   -0.435234    0.224265
      8          6           0        1.612755    0.498305    0.091738
      9          8           0       -0.694245    0.105237    0.397427
     10          6           0       -1.760026   -0.348570   -0.340928
     11          8           0       -1.674071   -1.212011   -1.179306
     12          6           0       -3.040550    0.394602    0.056412
     13          6           0       -2.847712    1.908180   -0.187630
     14          6           0       -4.199871   -0.135368   -0.801924
     15          6           0       -3.324310    0.138505    1.553744
     16          1           0        4.792211    2.710703   -0.292382
     17          1           0        3.332600    2.634222    0.733274
     18          1           0        3.183016    2.539898   -1.047590
     19          1           0        4.232104   -1.663349   -0.037246
     20          1           0        2.368275   -3.300513    0.199302
     21          1           0        0.012051   -2.507986    0.365621
     22          1           0        1.359108    1.550695    0.070007
     23          1           0       -2.631326    2.115177   -1.242178
     24          1           0       -2.029536    2.308987    0.416998
     25          1           0       -3.766813    2.443351    0.077340
     26          1           0       -4.009399    0.023966   -1.867540
     27          1           0       -5.126549    0.384333   -0.533520
     28          1           0       -4.348099   -1.208696   -0.650159
     29          1           0       -2.511530    0.510352    2.183719
     30          1           0       -3.454631   -0.931102    1.755380
     31          1           0       -4.249187    0.649479    1.845406
 ---------------------------------------------------------------------

 SCF Done:  E(RB3LYP) =  -692.589679807     A.U. after    2 cycles

 Excitation energies and oscillator strengths:

 Excited State   1:      Singlet-A      5.0163 eV  247.16 nm  f=0.0464  <S**2>=0.000
      55 -> 57        -0.14272
      55 -> 58        -0.19780
      55 -> 59        -0.13117
      56 -> 57         0.62852
      56 -> 58        -0.14604
 This state for optimization and/or second-order correction.
 Total Energy, E(TD-HF/TD-KS) =  -692.405333736
 Copying the excited state density for this state as the 1-particle RhoCI density.

 Excited State   2:      Singlet-A      5.4612 eV  227.03 nm  f=0.0210  <S**2>=0.000
      55 -> 57         0.32936
      55 -> 58         0.12301
      56 -> 57         0.23266
      56 -> 58         0.50642
      56 -> 59        -0.23595

 Excited State   3:      Singlet-A      5.5062 eV  225.17 nm  f=0.0218  <S**2>=0.000
      54 -> 57         0.52365
      54 -> 58         0.18517
      54 -> 59        -0.25063
      55 -> 57        -0.23290
      55 -> 59         0.18742
      56 -> 58         0.14316
      56 -> 59        -0.10057

 Excited State   4:      Singlet-A      5.9781 eV  207.40 nm  f=0.0287  <S**2>=0.000
      54 -> 57         0.22554
      55 -> 57         0.38154
      55 -> 58        -0.12259
      55 -> 59        -0.10918
      56 -> 59         0.50582

 Excited State   5:      Singlet-A      6.1727 eV  200.86 nm  f=0.2062  <S**2>=0.000
      54 -> 57         0.21454
      55 -> 57         0.26046
      55 -> 58         0.32678
      55 -> 59        -0.28828
      56 -> 58        -0.32040
      56 -> 59        -0.27783

 Excited State   6:      Singlet-A      6.6392 eV  186.75 nm  f=0.1019  <S**2>=0.000
      54 -> 57        -0.25937
      54 -> 58         0.39242
      54 -> 59        -0.29410
      55 -> 57         0.18945
      55 -> 58        -0.28462
      55 -> 59         0.11111
      56 -> 58        -0.10876
      56 -> 59        -0.17396

 Excited State   7:      Singlet-A      6.8077 eV  182.12 nm  f=0.2582  <S**2>=0.000
      53 -> 57         0.12305
      53 -> 58        -0.11758
      54 -> 57        -0.16747
      54 -> 59        -0.28992
      55 -> 58         0.40503
      55 -> 59         0.32170
      56 -> 57         0.16753
      56 -> 58        -0.11072
      56 -> 59         0.18414

 Excited State   8:      Singlet-A      6.8839 eV  180.11 nm  f=0.3236  <S**2>=0.000
      53 -> 57         0.20197
      54 -> 57        -0.12458
      54 -> 58         0.42547
      55 -> 57        -0.20664
      55 -> 58         0.17392
      55 -> 59        -0.35749
      56 -> 58         0.17632
      56 -> 59         0.11488

 Excited State   9:      Singlet-A      7.0245 eV  176.50 nm  f=0.1127  <S**2>=0.000
      52 -> 57         0.14652
      53 -> 57        -0.22924
      54 -> 58         0.33670
      54 -> 59         0.44795
      55 -> 59         0.24369
      56 -> 58        -0.12335

 Excited State  10:      Singlet-A      7.3126 eV  169.55 nm  f=0.0008  <S**2>=0.000
      56 -> 60         0.30136
      56 -> 61         0.62379
      56 -> 62        -0.12224

 The electronic state is 1-A.
 Alpha  occ. eigenvalues --  -19.19856 -19.18006 -19.13949 -10.31579 -10.25172
 Alpha  occ. eigenvalues --  -10.25087 -10.24331 -10.21446 -10.19281 -10.18982
 Alpha  occ. eigenvalues --  -10.18399 -10.18350 -10.18334 -10.18305 -10.17470
 Alpha  occ. eigenvalues --   -1.10501  -1.06612  -1.02285  -0.85325  -0.82338
 Alpha  occ. eigenvalues --   -0.75922  -0.75100  -0.70076  -0.69280  -0.68754
 Alpha  occ. eigenvalues --   -0.66049  -0.60496  -0.59254  -0.55588  -0.50898
 Alpha  occ. eigenvalues --   -0.49920  -0.48683  -0.48550  -0.47163  -0.47007
 Alpha  occ. eigenvalues --   -0.45803  -0.44136  -0.43343  -0.42908  -0.41889
 Alpha  occ. eigenvalues --   -0.40739  -0.39203  -0.38561  -0.37830  -0.37565
 Alpha  occ. eigenvalues --   -0.36930  -0.36628  -0.35495  -0.33805  -0.33493
 Alpha  occ. eigenvalues --   -0.33449  -0.32556  -0.30563  -0.27035  -0.24392
 Alpha  occ. eigenvalues --   -0.21836
 Alpha virt. eigenvalues --   -0.00809   0.00922   0.02245   0.08156   0.08941
 Alpha virt. eigenvalues --    0.10527   0.12499   0.12679   0.14560   0.14995
 Alpha virt. eigenvalues --    0.15102   0.15322   0.15504   0.16294   0.16412

 Mulliken atomic charges:
              1
     1  C   -0.235591
     2  O   -0.443570
     3  C    0.364509
     4  C   -0.164889
     5  C   -0.165602
     6  C   -0.105599
     7  C    0.346087
     8  C   -0.241032
     9  O   -0.536050
    10  C    0.556715
    11  O   -0.510643
    12  C    0.013139
    13  C   -0.445480
    14  C   -0.430929
    15  C   -0.446489
    16  H    0.187474
    17  H    0.180760
    18  H    0.183651
    19  H    0.145148
    20  H    0.144279
    21  H    0.181145
    22  H    0.148478
    23  H    0.142046
    24  H    0.146449
    25  H    0.133989
    26  H    0.150656
    27  H    0.126109
    28  H    0.149722
    29  H    0.151321
    30  H    0.141245
    31  H    0.132951
 Sum of Mulliken atomic charges =  -0.00000

 Dipole moment (field-independent basis, Debye):
    X=              4.2402    Y=              2.7540    Z=              1.4394  Tot=              5.2570
 Quadrupole moment (field-independent basis, Debye-Ang):
   XX=            -80.8466   YY=            -79.6102   ZZ=            -93.9223
   XY=              4.6904   XZ=             -3.4215   YZ=             -4.3696

 Summary of Natural Population Analysis:

                                       Natural Population
                Natural  -----------------------------------------------
    Atom  No    Charge         Core      Valence    Rydberg      Total
 -----------------------------------------------------------------------
      C    1   -0.32896      1.99942     4.31540    0.01415     6.32896
      O    2   -0.42006      1.99975     6.40863    0.01168     8.42006
      C    3    0.35676      1.99881     3.62175    0.02268     5.64324
      C    4   -0.29321      1.99906     4.27590    0.01825     6.29321
      C    5   -0.26179      1.99915     4.24548    0.01716     6.26179
      C    6   -0.16147      1.99900     4.14722    0.01525     6.16147
      C    7    0.29275      1.99877     3.68287    0.02561     5.70725
      C    8   -0.36103      1.99896     4.34555    0.01653     6.36103
      O    9   -0.54968      1.99970     6.53881    0.01118     8.54968
      C   10    0.72536      1.99929     3.22555    0.04981     5.27464
      O   11   -0.62449      1.99978     6.60435    0.02036     8.62449
      C   12   -0.14342      1.99906     4.13114    0.01321     6.14342
      C   13   -0.66759      1.99938     4.65839    0.00981     6.66759
      C   14   -0.66573      1.99939     4.65538    0.01096     6.66573
      C   15   -0.66802      1.99938     4.65895    0.00969     6.66802
      H   16    0.23726      0.00000     0.76227    0.00047     0.76274
      H   17    0.22237      0.00000     0.77603    0.00160     0.77763
      H   18    0.22420      0.00000     0.77422    0.00158     0.77580
      H   19    0.24677      0.00000     0.75206    0.00117     0.75323
      H   20    0.24311      0.00000     0.75614    0.00075     0.75689
      H   21    0.26317      0.00000     0.73564    0.00119     0.73683
      H   22    0.24830      0.00000     0.75035    0.00135     0.75170
      H   23    0.23156      0.00000     0.76739    0.00105     0.76844
      H   24    0.23409      0.00000     0.76465    0.00127     0.76591
      H   25    0.22497      0.00000     0.77355    0.00148     0.77503
      H   26    0.24021      0.00000     0.75869    0.00110     0.75979
      H   27    0.22261      0.00000     0.77638    0.00102     0.77739
      H   28    0.23988      0.00000     0.75901    0.00111     0.76012
      H   29    0.23688      0.00000     0.76202    0.00110     0.76312
      H   30    0.23116      0.00000     0.76780    0.00104     0.76884
      H   31    0.22405      0.00000     0.77426    0.00169     0.77595
 =======================================================================
   * Total *    0.00000     29.98889    81.72579    0.28531   112.00000

 Normal termination of Gaussian 09 at Wed Sep 29 13:34:21 2021.
