 Gaussian 09, Revision A.02,

 -----------------------------------
 #p opt b3lyp/6-31G* scf=(xqc,tight)
 -----------------------------------

 ---------------------------------
 COc1ccc(cc1)B1OCC(CO1)(C)C_conf_0
 ---------------------------------
 Symbolic Z-matrix:
 Charge =  0 Multiplicity = 1

 SCF Done:  E(RB3LYP) =  -718.101004948     A.U. after   14 cycles
 SCF Done:  E(RB3LYP) =  -718.118834280     A.U. after   12 cycles
 SCF Done:  E(RB3LYP) =  -718.132940495     A.U. after   15 cycles
 SCF Done:  E(RB3LYP) =  -718.139066561     A.U. after   13 cycles
 SCF Done:  E(RB3LYP) =  -718.141147670     A.U. after   14 cycles
 SCF Done:  E(RB3LYP) =  -718.142140430     A.U. after   12 cycles
 SCF Done:  E(RB3LYP) =  -718.142529412     A.U. after   11 cycles
 SCF Done:  E(RB3LYP) =  -718.142545569     A.U. after    9 cycles
 SCF Done:  E(RB3LYP) =  -718.142547098     A.U. after    8 cycles
 SCF Done:  E(RB3LYP) =  -718.142547110     A.U. after    7 cycles
 Optimization completed.
    -- Stationary point found.
 Normal termination of Gaussian 09 at Tue Oct  5 17:00:35 2021.

 ----------------------------------------------------------------------
 #p freq b3lyp/6-31G* volume NMR pop=NPA density=current Geom=AllCheck
 Guess=Read
 ----------------------------------------------------------------------

 COc1ccc(cc1)B1OCC(CO1)(C)C_conf_0
 ---------------------------------
 Redundant internal coordinates taken from checkpoint file:
 C12H17BO3_988c_conf_0.chk
 Charge =  0 Multiplicity = 1

 SCF Done:  E(RB3LYP) =  -718.142547110     A.U. after    1 cycles

  1  C    Isotropic =   137.6166   Anisotropy =    64.6767

  2  O    Isotropic =   233.4870   Anisotropy =    83.6523

  3  C    Isotropic =    36.7494   Anisotropy =   129.5937

  4  C    Isotropic =    87.5714   Anisotropy =   140.7757

  5  C    Isotropic =    59.3861   Anisotropy =   177.0233

  6  C    Isotropic =    72.9829   Anisotropy =   181.5162

  7  C    Isotropic =    60.0382   Anisotropy =   176.4050

  8  C    Isotropic =    79.5066   Anisotropy =   132.7589

  9  B    Isotropic =    86.2286   Anisotropy =    15.6650

 10  O    Isotropic =   236.5350   Anisotropy =   153.7509

 11  C    Isotropic =   119.0860   Anisotropy =    42.1805

 12  C    Isotropic =   156.9975   Anisotropy =    13.8444

 13  C    Isotropic =   119.0799   Anisotropy =    42.1533

 14  O    Isotropic =   236.1120   Anisotropy =   154.9630

 15  C    Isotropic =   166.8906   Anisotropy =    32.5116

 16  C    Isotropic =   166.2886   Anisotropy =    37.8474

 17  H    Isotropic =    28.3398   Anisotropy =     8.0802

 18  H    Isotropic =    28.6413   Anisotropy =     7.9894

 19  H    Isotropic =    28.6467   Anisotropy =     7.9342

 20  H    Isotropic =    25.8548   Anisotropy =     7.6897

 21  H    Isotropic =    24.4257   Anisotropy =     9.7591

 22  H    Isotropic =    24.4523   Anisotropy =     9.2799

 23  H    Isotropic =    25.5762   Anisotropy =     6.0865

 24  H    Isotropic =    28.4179   Anisotropy =     5.2086

 25  H    Isotropic =    28.2022   Anisotropy =     5.8638

 26  H    Isotropic =    28.4025   Anisotropy =     5.2845

 27  H    Isotropic =    28.1988   Anisotropy =     5.8640

 28  H    Isotropic =    30.2314   Anisotropy =     5.7266

 29  H    Isotropic =    31.4095   Anisotropy =     8.7993

 30  H    Isotropic =    31.4072   Anisotropy =     8.8658

 31  H    Isotropic =    31.5594   Anisotropy =     9.2696

 32  H    Isotropic =    31.3191   Anisotropy =     8.7376

 33  H    Isotropic =    31.3308   Anisotropy =     8.6995

  Exact polarizability: 219.301  -3.175 135.356   6.358   1.027  89.998
 Approx polarizability: 272.817  -0.516 224.890  10.985   2.731 132.181

                     1                      2                      3
                     A                      A                      A
 Frequencies --    35.8156                46.2181                78.7462
 Red. masses --     3.8575                 3.6778                 4.3133
 Frc consts  --     0.0029                 0.0046                 0.0158
 IR Inten    --     1.8183                 0.0118                 1.0597

                     4                      5                      6
                     A                      A                      A
 Frequencies --    82.7721               129.1434               138.9729
 Red. masses --     3.5612                 4.4136                 3.9118
 Frc consts  --     0.0144                 0.0434                 0.0445
 IR Inten    --     0.8843                 1.9648                 0.2442

                     7                      8                      9
                     A                      A                      A
 Frequencies --   191.7223               207.8436               218.3560
 Red. masses --     1.1051                 3.4099                 1.9309
 Frc consts  --     0.0239                 0.0868                 0.0542
 IR Inten    --     0.1980                 2.4664                 2.0201

                    10                     11                     12
                     A                      A                      A
 Frequencies --   226.7755               249.6477               253.1280
 Red. masses --     1.5839                 1.4704                 2.4181
 Frc consts  --     0.0480                 0.0540                 0.0913
 IR Inten    --     0.4776                 2.6936                 1.2706

                    13                     14                     15
                     A                      A                      A
 Frequencies --   281.0510               318.2450               350.5453
 Red. masses --     2.0109                 4.2403                 2.6217
 Frc consts  --     0.0936                 0.2530                 0.1898
 IR Inten    --     0.9755                 0.2960                 0.2701

                    16                     17                     18
                     A                      A                      A
 Frequencies --   359.8957               410.3813               416.2710
 Red. masses --     3.1658                 2.0311                 2.8716
 Frc consts  --     0.2416                 0.2015                 0.2932
 IR Inten    --     2.2470                 0.6200                 0.9884

                    19                     20                     21
                     A                      A                      A
 Frequencies --   424.4629               476.6801               505.1808
 Red. masses --     3.0998                 4.1347                 5.3908
 Frc consts  --     0.3290                 0.5535                 0.8106
 IR Inten    --     0.0189                 1.0796                 3.5272

                    22                     23                     24
                     A                      A                      A
 Frequencies --   524.3668               542.6318               625.6318
 Red. masses --     3.1151                 4.1263                 4.9208
 Frc consts  --     0.5047                 0.7159                 1.1348
 IR Inten    --     0.9548                 6.5644                20.5294

                    25                     26                     27
                     A                      A                      A
 Frequencies --   646.4234               649.4580               706.3561
 Red. masses --     5.0476                 6.8754                 6.6535
 Frc consts  --     1.2427                 1.7086                 1.9559
 IR Inten    --    36.1165                 5.8588                 5.0917

                    28                     29                     30
                     A                      A                      A
 Frequencies --   747.3576               813.0136               818.9700
 Red. masses --     4.6986                 4.5470                 4.2974
 Frc consts  --     1.5462                 1.7708                 1.6982
 IR Inten    --     8.0844                 3.3991                 9.8470

                    31                     32                     33
                     A                      A                      A
 Frequencies --   833.3920               853.3413               922.5859
 Red. masses --     1.3180                 1.5486                 1.8940
 Frc consts  --     0.5393                 0.6644                 0.9498
 IR Inten    --     9.5549                29.0335                 2.5925

                    34                     35                     36
                     A                      A                      A
 Frequencies --   938.6675               961.3228               966.8601
 Red. masses --     2.2118                 1.3319                 1.4538
 Frc consts  --     1.1482                 0.7252                 0.8007
 IR Inten    --     3.5473                 0.4260                 1.1022

                    37                     38                     39
                     A                      A                      A
 Frequencies --   971.7351               983.6375               990.0316
 Red. masses --     1.3064                 1.3027                 4.6191
 Frc consts  --     0.7268                 0.7426                 2.6675
 IR Inten    --     0.0182                 0.0040                 0.6155

                    40                     41                     42
                     A                      A                      A
 Frequencies --  1033.9453              1035.9621              1061.8141
 Red. masses --     2.9220                 2.6432                 2.0402
 Frc consts  --     1.8404                 1.6713                 1.3552
 IR Inten    --     0.9691                 6.8528                13.9796

                    43                     44                     45
                     A                      A                      A
 Frequencies --  1068.6616              1080.0066              1141.0873
 Red. masses --     1.9117                 4.9286                 1.3735
 Frc consts  --     1.2864                 3.3871                 1.0537
 IR Inten    --     0.2399                60.1561                13.4497

                    46                     47                     48
                     A                      A                      A
 Frequencies --  1178.9767              1185.0875              1212.3837
 Red. masses --     4.0648                 1.2711                 1.1820
 Frc consts  --     3.3289                 1.0518                 1.0237
 IR Inten    --   251.4579                 0.6803                96.6403

                    49                     50                     51
                     A                      A                      A
 Frequencies --  1218.1416              1221.4670              1252.1398
 Red. masses --     1.4004                 2.3561                 2.1011
 Frc consts  --     1.2244                 2.0712                 1.9409
 IR Inten    --    23.4343                 0.6961                 2.0719

                    52                     53                     54
                     A                      A                      A
 Frequencies --  1256.8090              1277.1750              1297.5721
 Red. masses --     1.5134                 2.4651                 4.7425
 Frc consts  --     1.4084                 2.3691                 4.7046
 IR Inten    --    10.3501               105.2742               446.9992

                    55                     56                     57
                     A                      A                      A
 Frequencies --  1322.4053              1341.9670              1346.7399
 Red. masses --     1.7234                 1.5590                 2.0032
 Frc consts  --     1.7756                 1.6542                 2.1406
 IR Inten    --    12.6153                76.7422               372.9704

                    58                     59                     60
                     A                      A                      A
 Frequencies --  1353.1426              1356.3689              1431.4874
 Red. masses --     2.7869                 3.0247                 1.2592
 Frc consts  --     3.0065                 3.2786                 1.5203
 IR Inten    --   338.7036               117.9280                 3.7502

                    61                     62                     63
                     A                      A                      A
 Frequencies --  1435.4195              1448.7773              1464.4520
 Red. masses --     1.3247                 2.4019                 1.2683
 Frc consts  --     1.6081                 2.9704                 1.6026
 IR Inten    --     5.8405                15.7707                 7.1378

                    64                     65                     66
                     A                      A                      A
 Frequencies --  1469.7494              1499.8518              1516.2991
 Red. masses --     2.1409                 1.1964                 1.0473
 Frc consts  --     2.7248                 1.5857                 1.4187
 IR Inten    --    61.8724                 6.5362                 0.1441

                    67                     68                     69
                     A                      A                      A
 Frequencies --  1518.4001              1520.7754              1535.0891
 Red. masses --     1.0533                 1.0487                 1.0597
 Frc consts  --     1.4308                 1.4290                 1.4713
 IR Inten    --     2.0044                 5.1259                24.5315

                    70                     71                     72
                     A                      A                      A
 Frequencies --  1535.2373              1537.5287              1544.4895
 Red. masses --     1.0573                 1.0778                 1.1241
 Frc consts  --     1.4683                 1.5012                 1.5798
 IR Inten    --    10.6650                 1.1741                25.8515

                    73                     74                     75
                     A                      A                      A
 Frequencies --  1551.4852              1567.2530              1619.6149
 Red. masses --     1.0978                 2.4909                 6.4034
 Frc consts  --     1.5570                 3.6049                 9.8965
 IR Inten    --     4.4113                13.5210                23.1207

                    76                     77                     78
                     A                      A                      A
 Frequencies --  1665.9784              3021.8873              3025.9352
 Red. masses --     5.5408                 1.0642                 1.0347
 Frc consts  --     9.0607                 5.7257                 5.5821
 IR Inten    --   210.5201                30.1433                68.3158

                    79                     80                     81
                     A                      A                      A
 Frequencies --  3029.0356              3042.4087              3050.9434
 Red. masses --     1.0612                 1.0369                 1.0389
 Frc consts  --     5.7365                 5.6546                 5.6977
 IR Inten    --    69.0505                53.2959                21.6547

                    82                     83                     84
                     A                      A                      A
 Frequencies --  3077.8565              3081.9923              3084.9001
 Red. masses --     1.1009                 1.1015                 1.1067
 Frc consts  --     6.1445                 6.1643                 6.2050
 IR Inten    --    31.9007                33.1032                44.7026

                    85                     86                     87
                     A                      A                      A
 Frequencies --  3108.1209              3109.1254              3113.3114
 Red. masses --     1.1027                 1.1022                 1.1018
 Frc consts  --     6.2764                 6.2776                 6.2921
 IR Inten    --     0.0319                40.4955                54.8754

                    88                     89                     90
                     A                      A                      A
 Frequencies --  3133.7421              3155.5004              3194.5681
 Red. masses --     1.1002                 1.0999                 1.0877
 Frc consts  --     6.3659                 6.4527                 6.5400
 IR Inten    --    26.5300                30.3336                 9.6902

                    91                     92                     93
                     A                      A                      A
 Frequencies --  3195.2061              3212.6411              3221.8435
 Red. masses --     1.0877                 1.0943                 1.0919
 Frc consts  --     6.5424                 6.6542                 6.6776
 IR Inten    --     5.3969                13.6558                16.1597

 - Thermochemistry -
 -------------------
 Temperature   298.150 Kelvin.  Pressure   1.00000 Atm.
 Atom     1 has atomic number  6 and mass  12.00000

 Molecular mass:   220.12707 amu.
 Principal axes and moments of inertia in atomic units:
                           1         2         3
     Eigenvalues --   966.564888682.829889169.23395
           X            0.99998  -0.00563  -0.00181
           Y            0.00563   0.99998  -0.00252
           Z            0.00182   0.00251   1.00000
 This molecule is an asymmetric top.
 Rotational symmetry number  1.
 Warning -- assumption of classical behavior for rotation
           may cause significant error
 Rotational temperatures (Kelvin)      0.08961     0.00998     0.00945
 Rotational constants (GHZ):           1.86717     0.20785     0.19683
 Zero-point vibrational energy     734868.4 (Joules/Mol)
                                  175.63775 (Kcal/Mol)
 Warning -- explicit consideration of  23 degrees of freedom as
           vibrations may cause significant error
 Vibrational temperatures:     51.53    66.50   113.30   119.09   185.81
          (Kelvin)            199.95   275.85   299.04   314.17   326.28
                              359.19   364.19   404.37   457.88   504.36
                              517.81   590.45   598.92   610.71   685.84
                              726.84   754.45   780.73   900.14   930.06
                              934.42  1016.29  1075.28  1169.74  1178.31
                             1199.06  1227.77  1327.39  1350.53  1383.13
                             1391.09  1398.11  1415.23  1424.43  1487.61
                             1490.52  1527.71  1537.56  1553.89  1641.77
                             1696.28  1705.07  1744.35  1752.63  1757.42
                             1801.55  1808.27  1837.57  1866.91  1902.64
                             1930.79  1937.66  1946.87  1951.51  2059.59
                             2065.25  2084.46  2107.02  2114.64  2157.95
                             2181.61  2184.64  2188.05  2208.65  2208.86
                             2212.16  2222.17  2232.24  2254.92  2330.26
                             2396.97  4347.82  4353.64  4358.10  4377.34
                             4389.62  4428.34  4434.29  4438.48  4471.89
                             4473.33  4479.36  4508.75  4540.06  4596.27
                             4597.18  4622.27  4635.51

 Zero-point correction=                           0.279897 (Hartree/Particle)
 Thermal correction to Energy=                    0.295396
 Thermal correction to Enthalpy=                  0.296341
 Thermal correction to Gibbs Free Energy=         0.236959
 Sum of electronic and zero-point Energies=           -717.862651
 Sum of electronic and thermal Energies=              -717.847151
 Sum of electronic and thermal Enthalpies=            -717.846207
 Sum of electronic and thermal Free Energies=         -717.905588

                     E (Thermal)             CV                S
                      KCal/Mol        Cal/Mol-Kelvin    Cal/Mol-Kelvin
 Total                  185.364             59.294            124.980
 Electronic               0.000              0.000              0.000
 Translational            0.889              2.981             42.070
 Rotational               0.889              2.981             32.709
 Vibrational            183.587             53.333             50.201
 Vibration     1          0.594              1.982              5.478
 Vibration     2          0.595              1.979              4.973
 Vibration     3          0.600              1.963              3.922
 Vibration     4          0.600              1.961              3.824
 Vibration     5          0.612              1.924              2.959
 Vibration     6          0.615              1.914              2.818
 Vibration     7          0.634              1.851              2.211
 Vibration     8          0.641              1.829              2.063
 Vibration     9          0.646              1.813              1.973
 Vibration    10          0.650              1.800              1.904
 Vibration    11          0.662              1.763              1.733
 Vibration    12          0.664              1.758              1.709
 Vibration    13          0.681              1.709              1.527
 Vibration    14          0.705              1.639              1.319
 Vibration    15          0.727              1.574              1.164
 Vibration    16          0.734              1.555              1.123
 Vibration    17          0.775              1.448              0.925
 Vibration    18          0.779              1.435              0.905
 Vibration    19          0.786              1.417              0.877
 Vibration    20          0.833              1.302              0.719
 Vibration    21          0.860              1.239              0.645
 Vibration    22          0.879              1.196              0.600
 Vibration    23          0.898              1.156              0.560

 Optimization completed.
    -- Stationary point found.
 Normal termination of Gaussian 09 at Tue Oct  5 17:12:15 2021.
 Gaussian 09:  AM64L-G09RevA.02 11-Jun-2009

 ----------------------------------------------------------------------
 #p TD(NStates=10, Root=1) b3lyp/6-31G* volume pop=NPA density=current
 Geom=AllCheck Guess=Read
 ----------------------------------------------------------------------

 COc1ccc(cc1)B1OCC(CO1)(C)C_conf_0
 ---------------------------------
 Redundant internal coordinates taken from checkpoint file:
 C12H17BO3_988c_conf_0.chk
 Charge =  0 Multiplicity = 1

                         Standard orientation:
 ---------------------------------------------------------------------
 Center     Atomic      Atomic             Coordinates (Angstroms)
 Number     Number       Type             X           Y           Z
 ---------------------------------------------------------------------
      1          6           0        5.696111   -0.744831    0.179784
      2          8           0        4.875481    0.411585    0.149113
      3          6           0        3.524815    0.244132    0.043330
      4          6           0        2.881411   -0.997262   -0.041109
      5          6           0        1.490209   -1.039990   -0.146975
      6          6           0        0.707353    0.124030   -0.170726
      7          6           0        1.384489    1.357742   -0.084448
      8          6           0        2.766170    1.425148    0.020873
      9          5           0       -0.843847    0.054036   -0.289253
     10          8           0       -1.450411   -1.176094   -0.365216
     11          6           0       -2.867697   -1.273375   -0.495552
     12          6           0       -3.609300   -0.090205    0.151562
     13          6           0       -2.985238    1.194303   -0.421924
     14          8           0       -1.564528    1.223014   -0.295282
     15          6           0       -3.454525   -0.128069    1.683522
     16          6           0       -5.096336   -0.150152   -0.228459
     17          1           0        6.722084   -0.381842    0.266217
     18          1           0        5.596992   -1.335593   -0.740500
     19          1           0        5.463569   -1.382906    1.042670
     20          1           0        3.447659   -1.921968   -0.026229
     21          1           0        0.998615   -2.007079   -0.212936
     22          1           0        0.807679    2.278602   -0.100843
     23          1           0        3.287282    2.375579    0.087260
     24          1           0       -3.171567   -2.218831   -0.030659
     25          1           0       -3.117512   -1.333596   -1.564676
     26          1           0       -3.374633    2.077276    0.098631
     27          1           0       -3.243873    1.295128   -1.485842
     28          1           0       -2.405453   -0.085520    1.990892
     29          1           0       -3.885884   -1.049059    2.093242
     30          1           0       -3.972880    0.720710    2.145101
     31          1           0       -5.237772   -0.123495   -1.315792
     32          1           0       -5.645002    0.695537    0.203028
     33          1           0       -5.559175   -1.069978    0.148510
 ---------------------------------------------------------------------

 SCF Done:  E(RB3LYP) =  -718.142547110     A.U. after    1 cycles

 Excitation energies and oscillator strengths:

 Excited State   1:      Singlet-A      5.0884 eV  243.66 nm  f=0.0049  <S**2>=0.000
      58 -> 60        -0.44487
      59 -> 61         0.54458
 This state for optimization and/or second-order correction.
 Total Energy, E(TD-HF/TD-KS) =  -717.955550561
 Copying the excited state density for this state as the 1-particle RhoCI density.

 Excited State   2:      Singlet-A      5.2908 eV  234.34 nm  f=0.4768  <S**2>=0.000
      58 -> 61         0.17054
      59 -> 60         0.68122

 Excited State   3:      Singlet-A      6.3123 eV  196.42 nm  f=0.1924  <S**2>=0.000
      58 -> 60         0.53040
      59 -> 61         0.42642

 Excited State   4:      Singlet-A      6.6415 eV  186.68 nm  f=0.0003  <S**2>=0.000
      56 -> 60         0.62567
      57 -> 60         0.30869

 Excited State   5:      Singlet-A      6.8043 eV  182.21 nm  f=0.0494  <S**2>=0.000
      56 -> 60        -0.30671
      57 -> 60         0.62205

 Excited State   6:      Singlet-A      6.8464 eV  181.09 nm  f=0.6669  <S**2>=0.000
      58 -> 61         0.64797
      59 -> 60        -0.14815
      59 -> 62        -0.13588
      59 -> 63         0.12817

 Excited State   7:      Singlet-A      7.1641 eV  173.06 nm  f=0.0377  <S**2>=0.000
      58 -> 61         0.11803
      59 -> 62         0.68403

 Excited State   8:      Singlet-A      7.2309 eV  171.46 nm  f=0.0025  <S**2>=0.000
      53 -> 60         0.22922
      54 -> 60         0.60734
      55 -> 60        -0.20371
      57 -> 61        -0.10516

 Excited State   9:      Singlet-A      7.2625 eV  170.72 nm  f=0.0015  <S**2>=0.000
      53 -> 60         0.20177
      55 -> 60         0.13287
      57 -> 61         0.65243

 Excited State  10:      Singlet-A      7.2883 eV  170.11 nm  f=0.0010  <S**2>=0.000
      51 -> 60         0.11243
      53 -> 60         0.60508
      54 -> 60        -0.20657
      55 -> 60         0.12031
      57 -> 61        -0.18702

 The electronic state is 1-A.
 Alpha  occ. eigenvalues --  -19.17253 -19.14758 -19.14753 -10.23974 -10.23735
 Alpha  occ. eigenvalues --  -10.23720 -10.23676 -10.20667 -10.18803 -10.17933
 Alpha  occ. eigenvalues --  -10.17804 -10.17617 -10.17616 -10.17162 -10.15066
 Alpha  occ. eigenvalues --   -6.76807  -1.05800  -1.03968  -0.99996  -0.83451
 Alpha  occ. eigenvalues --   -0.82251  -0.74487  -0.73123  -0.69540  -0.69333
 Alpha  occ. eigenvalues --   -0.68318  -0.67805  -0.59511  -0.58637  -0.56938
 Alpha  occ. eigenvalues --   -0.52520  -0.50382  -0.50164  -0.48728  -0.46615
 Alpha  occ. eigenvalues --   -0.46313  -0.45585  -0.45506  -0.44054  -0.42620
 Alpha  occ. eigenvalues --   -0.41628  -0.41136  -0.40688  -0.39907  -0.39025
 Alpha  occ. eigenvalues --   -0.38095  -0.37450  -0.36844  -0.35568  -0.34801
 Alpha  occ. eigenvalues --   -0.33589  -0.32192  -0.31444  -0.31032  -0.30006
 Alpha  occ. eigenvalues --   -0.28253  -0.27814  -0.23792  -0.20909
 Alpha virt. eigenvalues --   -0.00364   0.01388   0.07113   0.09650   0.10020
 Alpha virt. eigenvalues --    0.10918   0.12000   0.12782   0.12834   0.13371
 Alpha virt. eigenvalues --    0.14650   0.15414   0.15468   0.15912   0.16073

 Mulliken atomic charges:
              1
     1  C   -0.220504
     2  O   -0.467970
     3  C    0.345872
     4  C   -0.178775
     5  C   -0.229432
     6  C    0.098737
     7  C   -0.220467
     8  C   -0.166674
     9  B    0.404886
    10  O   -0.450962
    11  C   -0.021818
    12  C    0.015566
    13  C   -0.021904
    14  O   -0.449927
    15  C   -0.451786
    16  C   -0.459900
    17  H    0.173182
    18  H    0.162401
    19  H    0.162325
    20  H    0.127014
    21  H    0.137983
    22  H    0.138398
    23  H    0.131807
    24  H    0.138587
    25  H    0.132559
    26  H    0.139228
    27  H    0.132692
    28  H    0.170992
    29  H    0.141957
    30  H    0.142392
    31  H    0.144768
    32  H    0.149543
    33  H    0.149232
 Sum of Mulliken atomic charges =  -0.00000

 Dipole moment (field-independent basis, Debye):
    X=             -0.6050    Y=             -1.4183    Z=              0.0931  Tot=              1.5447
 Quadrupole moment (field-independent basis, Debye-Ang):
   XX=            -68.1948   YY=            -93.1730   ZZ=            -95.9217
   XY=             -7.0886   XZ=              1.3542   YZ=             -0.1439

 Summary of Natural Population Analysis:

                                       Natural Population
                Natural  -----------------------------------------------
    Atom  No    Charge         Core      Valence    Rydberg      Total
 -----------------------------------------------------------------------
      C    1   -0.32161      1.99943     4.30810    0.01409     6.32161
      O    2   -0.46382      1.99975     6.45222    0.01186     8.46382
      C    3    0.29943      1.99883     3.67828    0.02346     5.70057
      C    4   -0.30253      1.99905     4.28694    0.01654     6.30253
      C    5   -0.21060      1.99915     4.19305    0.01840     6.21060
      C    6   -0.35457      1.99897     4.33738    0.01821     6.35457
      C    7   -0.20645      1.99914     4.18968    0.01763     6.20645
      C    8   -0.27937      1.99907     4.26094    0.01936     6.27937
      B    9    1.07799      1.99903     1.89564    0.02734     3.92201
      O   10   -0.72537      1.99973     6.71680    0.00883     8.72537
      C   11   -0.09013      1.99910     4.07022    0.02081     6.09013
      C   12   -0.12570      1.99912     4.11534    0.01124     6.12570
      C   13   -0.09019      1.99910     4.07027    0.02081     6.09019
      O   14   -0.72447      1.99973     6.71590    0.00884     8.72447
      C   15   -0.67840      1.99938     4.66746    0.01155     6.67840
      C   16   -0.67537      1.99937     4.66614    0.00986     6.67537
      H   17    0.22948      0.00000     0.76998    0.00054     0.77052
      H   18    0.20998      0.00000     0.78784    0.00217     0.79002
      H   19    0.20999      0.00000     0.78783    0.00217     0.79001
      H   20    0.22722      0.00000     0.77179    0.00099     0.77278
      H   21    0.23569      0.00000     0.76301    0.00130     0.76431
      H   22    0.23632      0.00000     0.76242    0.00126     0.76368
      H   23    0.23656      0.00000     0.76217    0.00127     0.76344
      H   24    0.22290      0.00000     0.77572    0.00138     0.77710
      H   25    0.21126      0.00000     0.78673    0.00201     0.78874
      H   26    0.22326      0.00000     0.77536    0.00138     0.77674
      H   27    0.21135      0.00000     0.78664    0.00201     0.78865
      H   28    0.24566      0.00000     0.75352    0.00083     0.75434
      H   29    0.23188      0.00000     0.76716    0.00095     0.76812
      H   30    0.23214      0.00000     0.76691    0.00095     0.76786
      H   31    0.23257      0.00000     0.76628    0.00115     0.76743
      H   32    0.23756      0.00000     0.76138    0.00106     0.76244
      H   33    0.23736      0.00000     0.76158    0.00106     0.76264
 =======================================================================
   * Total *   -0.00000     31.98796    85.73070    0.28134   118.00000

 Normal termination of Gaussian 09 at Tue Oct  5 17:35:18 2021.
