 Gaussian 09, Revision A.02,

 -----------------------------------
 #p opt b3lyp/6-31G* scf=(xqc,tight)
 -----------------------------------

 --------------------------------
 O=C(N(C)C)Oc1cccc2c1ccnc2_conf_0
 --------------------------------
 Symbolic Z-matrix:
 Charge =  0 Multiplicity = 1

 SCF Done:  E(RB3LYP) =  -724.464343209     A.U. after   15 cycles
 SCF Done:  E(RB3LYP) =  -724.471888545     A.U. after   13 cycles
 SCF Done:  E(RB3LYP) =  -724.472483669     A.U. after   13 cycles
 SCF Done:  E(RB3LYP) =  -724.472877039     A.U. after   11 cycles
 SCF Done:  E(RB3LYP) =  -724.472983948     A.U. after   11 cycles
 SCF Done:  E(RB3LYP) =  -724.473197302     A.U. after   12 cycles
 SCF Done:  E(RB3LYP) =  -724.473301636     A.U. after   12 cycles
 SCF Done:  E(RB3LYP) =  -724.473353635     A.U. after   11 cycles
 SCF Done:  E(RB3LYP) =  -724.473411478     A.U. after   11 cycles
 SCF Done:  E(RB3LYP) =  -724.473442572     A.U. after   11 cycles
 SCF Done:  E(RB3LYP) =  -724.473602258     A.U. after   10 cycles
 SCF Done:  E(RB3LYP) =  -724.473615324     A.U. after   11 cycles
 SCF Done:  E(RB3LYP) =  -724.473602779     A.U. after   11 cycles
 SCF Done:  E(RB3LYP) =  -724.473600552     A.U. after   10 cycles
 SCF Done:  E(RB3LYP) =  -724.473636451     A.U. after   10 cycles
 SCF Done:  E(RB3LYP) =  -724.473648571     A.U. after   10 cycles
 SCF Done:  E(RB3LYP) =  -724.473649092     A.U. after    8 cycles
 SCF Done:  E(RB3LYP) =  -724.473649220     A.U. after    7 cycles
 Optimization completed.
    -- Stationary point found.
 Normal termination of Gaussian 09 at Thu Sep 30 08:22:47 2021.

 ----------------------------------------------------------------------
 #p freq b3lyp/6-31G* volume NMR pop=NPA density=current Geom=AllCheck
 Guess=Read
 ----------------------------------------------------------------------

 O=C(N(C)C)Oc1cccc2c1ccnc2_conf_0
 --------------------------------
 Redundant internal coordinates taken from checkpoint file:
 C12H12N2O2_afef_conf_0.chk
 Charge =  0 Multiplicity = 1

 SCF Done:  E(RB3LYP) =  -724.473649220     A.U. after    1 cycles

  1  O    Isotropic =    68.3772   Anisotropy =   387.4653

  2  C    Isotropic =    47.0040   Anisotropy =    81.0503

  3  N    Isotropic =   179.2737   Anisotropy =    82.7574

  4  C    Isotropic =   154.9663   Anisotropy =    51.8742

  5  C    Isotropic =   155.5494   Anisotropy =    49.4646

  6  O    Isotropic =   150.6867   Anisotropy =   156.8362

  7  C    Isotropic =    49.1683   Anisotropy =   100.9412

  8  C    Isotropic =    72.8660   Anisotropy =   153.8616

  9  C    Isotropic =    69.5186   Anisotropy =   161.2714

 10  C    Isotropic =    72.0196   Anisotropy =   149.8630

 11  C    Isotropic =    67.2846   Anisotropy =   190.1710

 12  C    Isotropic =    67.2472   Anisotropy =   187.2950

 13  C    Isotropic =    80.3232   Anisotropy =   152.6879

 14  C    Isotropic =    52.0472   Anisotropy =   146.5851

 15  N    Isotropic =   -56.7217   Anisotropy =   532.9893

 16  C    Isotropic =    44.0198   Anisotropy =   140.1203

 17  H    Isotropic =    28.1143   Anisotropy =     7.1362

 18  H    Isotropic =    29.7789   Anisotropy =     9.3858

 19  H    Isotropic =    29.8538   Anisotropy =     9.2673

 20  H    Isotropic =    28.1417   Anisotropy =     4.7483

 21  H    Isotropic =    29.7150   Anisotropy =     8.8272

 22  H    Isotropic =    29.4277   Anisotropy =     9.1911

 23  H    Isotropic =    24.6082   Anisotropy =     9.5913

 24  H    Isotropic =    24.7187   Anisotropy =     5.0678

 25  H    Isotropic =    24.6711   Anisotropy =     5.3490

 26  H    Isotropic =    24.5432   Anisotropy =     9.6732

 27  H    Isotropic =    23.5322   Anisotropy =     7.7265

 28  H    Isotropic =    23.0696   Anisotropy =     7.5861

  Exact polarizability: 192.099  -0.531 170.209   6.341   4.813  69.263
 Approx polarizability: 280.124   8.148 301.567  15.733   8.054 108.943

                     1                      2                      3
                     A                      A                      A
 Frequencies --    30.9855                40.4764                75.2517
 Red. masses --     4.3362                 3.5435                 1.5822
 Frc consts  --     0.0025                 0.0034                 0.0053
 IR Inten    --     2.0045                 1.3276                 0.1059

                     4                      5                      6
                     A                      A                      A
 Frequencies --    82.6297               117.1037               142.8261
 Red. masses --     3.3872                 2.7293                 1.3895
 Frc consts  --     0.0136                 0.0221                 0.0167
 IR Inten    --     1.2016                 1.2146                 0.7116

                     7                      8                      9
                     A                      A                      A
 Frequencies --   159.1714               178.7611               222.0341
 Red. masses --     3.1341                 5.3200                 2.4825
 Frc consts  --     0.0468                 0.1002                 0.0721
 IR Inten    --     2.7855                 0.2538                 4.2430

                    10                     11                     12
                     A                      A                      A
 Frequencies --   242.7982               255.2935               293.0712
 Red. masses --     3.7851                 4.5577                 4.9866
 Frc consts  --     0.1315                 0.1750                 0.2523
 IR Inten    --     1.7850                 0.2747                 0.1435

                    13                     14                     15
                     A                      A                      A
 Frequencies --   380.3881               419.5449               440.5790
 Red. masses --     3.3970                 3.1183                 3.8375
 Frc consts  --     0.2896                 0.3234                 0.4389
 IR Inten    --    19.1279                 2.9895                 3.9584

                    16                     17                     18
                     A                      A                      A
 Frequencies --   452.3336               484.4118               524.9344
 Red. masses --     4.2165                 4.0676                 7.8049
 Frc consts  --     0.5083                 0.5624                 1.2671
 IR Inten    --     3.7810                 4.2812                 3.1880

                    19                     20                     21
                     A                      A                      A
 Frequencies --   546.9289               578.1028               623.3246
 Red. masses --     6.3446                 4.4347                 6.0717
 Frc consts  --     1.1182                 0.8732                 1.3899
 IR Inten    --     1.0249                 0.7363                 6.4226

                    22                     23                     24
                     A                      A                      A
 Frequencies --   648.4387               673.4911               735.8196
 Red. masses --     4.4605                 4.6102                11.9562
 Frc consts  --     1.1050                 1.2321                 3.8141
 IR Inten    --     4.8965                 3.8287                20.5724

                    25                     26                     27
                     A                      A                      A
 Frequencies --   769.2269               771.9103               806.1751
 Red. masses --     1.9328                 3.4051                 5.5326
 Frc consts  --     0.6738                 1.1954                 2.1186
 IR Inten    --    18.5633                17.2567                 4.4164

                    28                     29                     30
                     A                      A                      A
 Frequencies --   810.7179               847.8694               856.0307
 Red. masses --     3.5492                 1.6926                 2.8881
 Frc consts  --     1.3744                 0.7169                 1.2469
 IR Inten    --     6.2699                35.5181                 7.7947

                    31                     32                     33
                     A                      A                      A
 Frequencies --   897.5753               911.7848               955.2949
 Red. masses --     4.8693                 1.5010                 1.4130
 Frc consts  --     2.3113                 0.7352                 0.7597
 IR Inten    --    20.4614                 2.3220                 1.1334

                    34                     35                     36
                     A                      A                      A
 Frequencies --   975.7879               983.8702              1019.5576
 Red. masses --     1.2949                 1.3948                 3.3520
 Frc consts  --     0.7265                 0.7955                 2.0529
 IR Inten    --     0.7052                 0.3627                10.6923

                    37                     38                     39
                     A                      A                      A
 Frequencies --  1070.4009              1082.7971              1094.8212
 Red. masses --     2.5729                 2.4082                 1.3704
 Frc consts  --     1.7369                 1.6636                 0.9678
 IR Inten    --    13.9577                 9.4934                 7.9464

                    40                     41                     42
                     A                      A                      A
 Frequencies --  1125.6278              1143.7771              1182.7156
 Red. masses --     2.3166                 1.2180                 2.1803
 Frc consts  --     1.7294                 0.9388                 1.7969
 IR Inten    --     8.1737                 0.6014               555.8415

                    43                     44                     45
                     A                      A                      A
 Frequencies --  1192.0079              1204.9231              1217.3591
 Red. masses --     1.4898                 1.4901                 1.7131
 Frc consts  --     1.2472                 1.2746                 1.4958
 IR Inten    --   128.1808               161.4999                 4.7419

                    46                     47                     48
                     A                      A                      A
 Frequencies --  1253.8450              1268.0257              1295.6348
 Red. masses --     2.0275                 2.2335                 3.1904
 Frc consts  --     1.8781                 2.1158                 3.1555
 IR Inten    --     5.6654               205.7690                46.2653

                    49                     50                     51
                     A                      A                      A
 Frequencies --  1305.6066              1375.8615              1417.6731
 Red. masses --     2.6195                 3.7835                 1.7648
 Frc consts  --     2.6309                 4.2199                 2.0898
 IR Inten    --    32.4565                 9.9344               162.0536

                    52                     53                     54
                     A                      A                      A
 Frequencies --  1423.3029              1439.2680              1461.1440
 Red. masses --     7.9922                 2.5093                 1.1720
 Frc consts  --     9.5391                 3.0625                 1.4742
 IR Inten    --     4.5307               192.0920                19.4615

                    55                     56                     57
                     A                      A                      A
 Frequencies --  1477.6541              1492.6740              1507.4462
 Red. masses --     2.0739                 1.2589                 2.3351
 Frc consts  --     2.6680                 1.6526                 3.1263
 IR Inten    --    14.5758                38.5856                 6.7234

                    58                     59                     60
                     A                      A                      A
 Frequencies --  1520.5316              1530.0652              1532.0839
 Red. masses --     1.0440                 1.0487                 1.0474
 Frc consts  --     1.4221                 1.4466                 1.4485
 IR Inten    --     4.0640                16.9886                14.5591

                    61                     62                     63
                     A                      A                      A
 Frequencies --  1544.5905              1564.9949              1624.8677
 Red. masses --     3.4621                 1.2356                 6.7974
 Frc consts  --     4.8665                 1.7831                10.5737
 IR Inten    --    28.2871                46.0972                 1.1648

                    64                     65                     66
                     A                      A                      A
 Frequencies --  1642.0405              1680.3467              1823.3413
 Red. masses --     5.2251                 6.5309                10.9518
 Frc consts  --     8.3007                10.8647                21.4522
 IR Inten    --    39.2952                16.1632               365.5332

                    67                     68                     69
                     A                      A                      A
 Frequencies --  3030.2009              3038.0591              3081.1664
 Red. masses --     1.0426                 1.0419                 1.1008
 Frc consts  --     5.6402                 5.6660                 6.1574
 IR Inten    --    28.4244               100.2039                61.8369

                    70                     71                     72
                     A                      A                      A
 Frequencies --  3084.5396              3149.0103              3185.0554
 Red. masses --     1.1041                 1.0895                 1.0897
 Frc consts  --     6.1893                 6.3654                 6.5131
 IR Inten    --     9.0103                28.7970                24.6522

                    73                     74                     75
                     A                      A                      A
 Frequencies --  3190.5054              3195.9627              3208.7696
 Red. masses --     1.0871                 1.0964                 1.0948
 Frc consts  --     6.5199                 6.5984                 6.6411
 IR Inten    --     2.8528                 0.7693                12.4317

                    76                     77                     78
                     A                      A                      A
 Frequencies --  3208.8550              3230.5806              3251.4216
 Red. masses --     1.0947                 1.0930                 1.0927
 Frc consts  --     6.6413                 6.7208                 6.8059
 IR Inten    --    15.4502                11.6892                 2.4274

 - Thermochemistry -
 -------------------
 Temperature   298.150 Kelvin.  Pressure   1.00000 Atm.
 Atom     1 has atomic number  8 and mass  15.99491

 Molecular mass:   216.08988 amu.
 Principal axes and moments of inertia in atomic units:
                           1         2         3
     Eigenvalues --  1704.335375481.310226817.46008
           X            0.99976  -0.02169   0.00208
           Y            0.02170   0.99976  -0.00287
           Z           -0.00201   0.00291   0.99999
 This molecule is an asymmetric top.
 Rotational symmetry number  1.
 Warning -- assumption of classical behavior for rotation
           may cause significant error
 Rotational temperatures (Kelvin)      0.05082     0.01580     0.01270
 Rotational constants (GHZ):           1.05891     0.32925     0.26472
 Zero-point vibrational energy     587988.8 (Joules/Mol)
                                  140.53270 (Kcal/Mol)
 Warning -- explicit consideration of  20 degrees of freedom as
           vibrations may cause significant error
 Vibrational temperatures:     44.58    58.24   108.27   118.89   168.49
          (Kelvin)            205.49   229.01   257.20   319.46   349.33
                              367.31   421.66   547.29   603.63   633.89
                              650.81   696.96   755.26   786.91   831.76
                              896.82   932.96   969.00  1058.68  1106.74
                             1110.61  1159.90  1166.44  1219.89  1231.64
                             1291.41  1311.85  1374.45  1403.94  1415.57
                             1466.91  1540.07  1557.90  1575.20  1619.53
                             1645.64  1701.66  1715.03  1733.61  1751.51
                             1804.00  1824.40  1864.13  1878.47  1979.56
                             2039.71  2047.81  2070.78  2102.26  2126.01
                             2147.62  2168.88  2187.70  2201.42  2204.32
                             2222.32  2251.68  2337.82  2362.53  2417.64
                             2623.38  4359.78  4371.08  4433.11  4437.96
                             4530.72  4582.58  4590.42  4598.27  4616.70
                             4616.82  4648.08  4678.06

 Zero-point correction=                           0.223953 (Hartree/Particle)
 Thermal correction to Energy=                    0.238084
 Thermal correction to Enthalpy=                  0.239028
 Thermal correction to Gibbs Free Energy=         0.181537
 Sum of electronic and zero-point Energies=           -724.249696
 Sum of electronic and thermal Energies=              -724.235565
 Sum of electronic and thermal Enthalpies=            -724.234621
 Sum of electronic and thermal Free Energies=         -724.292112

                     E (Thermal)             CV                S
                      KCal/Mol        Cal/Mol-Kelvin    Cal/Mol-Kelvin
 Total                  149.400             52.855            121.000
 Electronic               0.000              0.000              0.000
 Translational            0.889              2.981             42.015
 Rotational               0.889              2.981             32.521
 Vibrational            147.622             46.893             46.464
 Vibration     1          0.594              1.984              5.765
 Vibration     2          0.594              1.981              5.236
 Vibration     3          0.599              1.966              4.011
 Vibration     4          0.600              1.961              3.827
 Vibration     5          0.608              1.935              3.148
 Vibration     6          0.616              1.910              2.766
 Vibration     7          0.621              1.892              2.560
 Vibration     8          0.629              1.868              2.341
 Vibration     9          0.648              1.808              1.942
 Vibration    10          0.659              1.775              1.782
 Vibration    11          0.666              1.754              1.694
 Vibration    12          0.688              1.687              1.456
 Vibration    13          0.750              1.512              1.038
 Vibration    14          0.782              1.428              0.894
 Vibration    15          0.800              1.382              0.825
 Vibration    16          0.811              1.356              0.789
 Vibration    17          0.841              1.285              0.698
 Vibration    18          0.880              1.195              0.599
 Vibration    19          0.902              1.146              0.551
 Vibration    20          0.935              1.079              0.489

 Normal termination of Gaussian 09 at Thu Sep 30 09:40:26 2021.
 Gaussian 09:  AM64L-G09RevA.02 11-Jun-2009

 ----------------------------------------------------------------------
 #p TD(NStates=10, Root=1) b3lyp/6-31G* volume pop=NPA density=current
 Geom=AllCheck Guess=Read
 ----------------------------------------------------------------------

 O=C(N(C)C)Oc1cccc2c1ccnc2_conf_0
 --------------------------------
 Redundant internal coordinates taken from checkpoint file:
 C12H12N2O2_afef_conf_0.chk
 Charge =  0 Multiplicity = 1

                         Standard orientation:
 ---------------------------------------------------------------------
 Center     Atomic      Atomic             Coordinates (Angstroms)
 Number     Number       Type             X           Y           Z
 ---------------------------------------------------------------------
      1          8           0        2.194834    1.297002   -1.018377
      2          6           0        2.188107    0.350452   -0.256652
      3          7           0        3.269282   -0.410709    0.076347
      4          6           0        4.539651   -0.132504   -0.577001
      5          6           0        3.238062   -1.559024    0.970284
      6          8           0        1.055606   -0.101811    0.399507
      7          6           0       -0.145849    0.580746    0.266039
      8          6           0       -0.252323    1.946710    0.400784
      9          6           0       -1.523774    2.565282    0.333677
     10          6           0       -2.664169    1.818405    0.145729
     11          6           0       -2.571246    0.410495    0.010324
     12          6           0       -1.296557   -0.231235    0.064121
     13          6           0       -1.265010   -1.640901   -0.086226
     14          6           0       -2.445895   -2.321407   -0.272919
     15          7           0       -3.671009   -1.727975   -0.321420
     16          6           0       -3.710501   -0.419374   -0.184631
     17          1           0        4.426416    0.747132   -1.208528
     18          1           0        4.851216   -0.985606   -1.194524
     19          1           0        5.318242    0.053241    0.173617
     20          1           0        2.288146   -1.602891    1.497324
     21          1           0        4.047841   -1.472401    1.705415
     22          1           0        3.383457   -2.494283    0.411689
     23          1           0        0.638106    2.545564    0.543005
     24          1           0       -1.585958    3.644734    0.436492
     25          1           0       -3.640841    2.292839    0.097977
     26          1           0       -0.319174   -2.169893   -0.057167
     27          1           0       -2.446060   -3.402555   -0.393444
     28          1           0       -4.695786    0.047497   -0.226568
 ---------------------------------------------------------------------

 SCF Done:  E(RB3LYP) =  -724.473649220     A.U. after    3 cycles

 Excitation energies and oscillator strengths:

 Excited State   1:      Singlet-A      4.2322 eV  292.95 nm  f=0.1041  <S**2>=0.000
      54 -> 59         0.12998
      57 -> 58         0.67293
      57 -> 59        -0.11112
 This state for optimization and/or second-order correction.
 Total Energy, E(TD-HF/TD-KS) =  -724.318118113
 Copying the excited state density for this state as the 1-particle RhoCI density.

 Excited State   2:      Singlet-A      4.3453 eV  285.33 nm  f=0.0015  <S**2>=0.000
      55 -> 58         0.48844
      56 -> 58         0.49807

 Excited State   3:      Singlet-A      4.5768 eV  270.89 nm  f=0.0249  <S**2>=0.000
      54 -> 58        -0.42691
      57 -> 58         0.14797
      57 -> 59         0.53263

 Excited State   4:      Singlet-A      4.9626 eV  249.84 nm  f=0.0045  <S**2>=0.000
      55 -> 58         0.50090
      56 -> 58        -0.48950

 Excited State   5:      Singlet-A      5.1354 eV  241.43 nm  f=0.0014  <S**2>=0.000
      55 -> 59         0.49064
      56 -> 59         0.50173

 Excited State   6:      Singlet-A      5.5004 eV  225.41 nm  f=0.0437  <S**2>=0.000
      52 -> 58        -0.14247
      53 -> 58         0.64694
      54 -> 58         0.18127
      57 -> 59         0.11197

 Excited State   7:      Singlet-A      5.6571 eV  219.16 nm  f=0.1117  <S**2>=0.000
      52 -> 58         0.42886
      53 -> 58         0.18634
      54 -> 58        -0.28106
      55 -> 59         0.14580
      56 -> 59        -0.13410
      57 -> 59        -0.21184
      57 -> 60         0.32460

 Excited State   8:      Singlet-A      5.7237 eV  216.61 nm  f=0.0001  <S**2>=0.000
      52 -> 58        -0.20608
      55 -> 59         0.47130
      56 -> 59        -0.46012
      57 -> 60        -0.13876

 Excited State   9:      Singlet-A      6.0402 eV  205.26 nm  f=0.3420  <S**2>=0.000
      52 -> 58         0.12701
      52 -> 59         0.25244
      53 -> 58        -0.14407
      53 -> 59         0.12970
      54 -> 58         0.33550
      54 -> 59        -0.29214
      54 -> 60         0.11078
      57 -> 59         0.25739
      57 -> 60         0.26924

 Excited State  10:      Singlet-A      6.1645 eV  201.13 nm  f=0.2859  <S**2>=0.000
      51 -> 58        -0.14236
      52 -> 58         0.42970
      54 -> 58         0.14933
      54 -> 59         0.12592
      57 -> 59         0.19323
      57 -> 60        -0.39693
      57 -> 61         0.15330

 The electronic state is 1-A.
 Alpha  occ. eigenvalues --  -19.20442 -19.12425 -14.37834 -14.32705 -10.34163
 Alpha  occ. eigenvalues --  -10.26001 -10.22962 -10.22417 -10.22351 -10.21671
 Alpha  occ. eigenvalues --  -10.21217 -10.20562 -10.20113 -10.19989 -10.19900
 Alpha  occ. eigenvalues --  -10.19604  -1.11423  -1.02337  -0.94990  -0.93736
 Alpha  occ. eigenvalues --   -0.86164  -0.79133  -0.77207  -0.74517  -0.73230
 Alpha  occ. eigenvalues --   -0.70807  -0.65191  -0.63559  -0.62366  -0.56970
 Alpha  occ. eigenvalues --   -0.54367  -0.52930  -0.50605  -0.50189  -0.49295
 Alpha  occ. eigenvalues --   -0.48292  -0.45594  -0.44895  -0.44227  -0.43756
 Alpha  occ. eigenvalues --   -0.42938  -0.41478  -0.41321  -0.41262  -0.40345
 Alpha  occ. eigenvalues --   -0.39458  -0.38602  -0.37790  -0.35558  -0.34587
 Alpha  occ. eigenvalues --   -0.32345  -0.28911  -0.27863  -0.26034  -0.25206
 Alpha  occ. eigenvalues --   -0.25197  -0.22077
 Alpha virt. eigenvalues --   -0.04932  -0.02108   0.02511   0.04871   0.08039
 Alpha virt. eigenvalues --    0.09066   0.09741   0.11204   0.12668   0.13463
 Alpha virt. eigenvalues --    0.13846   0.14535   0.15475   0.16724   0.16991

 Mulliken atomic charges:
              1
     1  O   -0.499869
     2  C    0.784077
     3  N   -0.433336
     4  C   -0.321314
     5  C   -0.319898
     6  O   -0.539111
     7  C    0.302798
     8  C   -0.149472
     9  C   -0.131833
    10  C   -0.180595
    11  C    0.114416
    12  C    0.113681
    13  C   -0.214796
    14  C    0.055311
    15  N   -0.440585
    16  C   -0.050791
    17  H    0.209253
    18  H    0.161241
    19  H    0.159902
    20  H    0.201412
    21  H    0.162432
    22  H    0.162802
    23  H    0.157030
    24  H    0.150445
    25  H    0.149038
    26  H    0.131736
    27  H    0.141296
    28  H    0.124733
 Sum of Mulliken atomic charges =  -0.00000

 Dipole moment (field-independent basis, Debye):
    X=              4.5813    Y=              0.2597    Z=              1.8750  Tot=              4.9569
 Quadrupole moment (field-independent basis, Debye-Ang):
   XX=            -88.1027   YY=            -86.3290   ZZ=            -95.2314
   XY=            -17.4401   XZ=              1.7312   YZ=              2.1105

 Summary of Natural Population Analysis:

                                       Natural Population
                Natural  -----------------------------------------------
    Atom  No    Charge         Core      Valence    Rydberg      Total
 -----------------------------------------------------------------------
      O    1   -0.63565      1.99978     6.61661    0.01927     8.63565
      C    2    0.93706      1.99936     3.01869    0.04488     5.06294
      N    3   -0.47724      1.99932     5.46696    0.01097     7.47724
      C    4   -0.47038      1.99947     4.45900    0.01192     6.47038
      C    5   -0.47267      1.99946     4.46163    0.01158     6.47267
      O    6   -0.53373      1.99969     6.52381    0.01024     8.53373
      C    7    0.35667      1.99866     3.62213    0.02255     5.64333
      C    8   -0.29746      1.99902     4.28296    0.01547     6.29746
      C    9   -0.17751      1.99912     4.16358    0.01481     6.17751
      C   10   -0.17630      1.99905     4.16211    0.01514     6.17630
      C   11   -0.09111      1.99902     4.07747    0.01462     6.09111
      C   12   -0.06948      1.99896     4.05499    0.01552     6.06948
      C   13   -0.29299      1.99905     4.27824    0.01571     6.29299
      C   14    0.07808      1.99917     3.89959    0.02316     5.92192
      N   15   -0.50831      1.99947     5.48478    0.02406     7.50831
      C   16   -0.00153      1.99920     3.97586    0.02648     6.00153
      H   17    0.26491      0.00000     0.73364    0.00145     0.73509
      H   18    0.22319      0.00000     0.77546    0.00135     0.77681
      H   19    0.22394      0.00000     0.77481    0.00125     0.77606
      H   20    0.25683      0.00000     0.74222    0.00095     0.74317
      H   21    0.22745      0.00000     0.77118    0.00137     0.77255
      H   22    0.22366      0.00000     0.77476    0.00159     0.77634
      H   23    0.25896      0.00000     0.73991    0.00113     0.74104
      H   24    0.24340      0.00000     0.75581    0.00079     0.75660
      H   25    0.24020      0.00000     0.75858    0.00123     0.75980
      H   26    0.23962      0.00000     0.75890    0.00148     0.76038
      H   27    0.22010      0.00000     0.77881    0.00109     0.77990
      H   28    0.21033      0.00000     0.78833    0.00135     0.78967
 =======================================================================
   * Total *    0.00000     31.98779    81.70082    0.31139   114.00000

 Normal termination of Gaussian 09 at Thu Sep 30 14:15:15 2021.
