 Gaussian 09, Revision A.02,

 -----------------------------------
 #p opt b3lyp/6-31G* scf=(xqc,tight)
 -----------------------------------

 --------------------------------
 CCN(C(=O)Oc1ccc(cc1)OC)CC_conf_0
 --------------------------------
 Symbolic Z-matrix:
 Charge =  0 Multiplicity = 1

 SCF Done:  E(RB3LYP) =  -747.942108461     A.U. after   15 cycles
 SCF Done:  E(RB3LYP) =  -747.946065259     A.U. after   12 cycles
 SCF Done:  E(RB3LYP) =  -747.946550832     A.U. after   12 cycles
 SCF Done:  E(RB3LYP) =  -747.946833975     A.U. after   12 cycles
 SCF Done:  E(RB3LYP) =  -747.946788979     A.U. after   12 cycles
 SCF Done:  E(RB3LYP) =  -747.946962446     A.U. after   11 cycles
 SCF Done:  E(RB3LYP) =  -747.947021350     A.U. after   11 cycles
 SCF Done:  E(RB3LYP) =  -747.947090653     A.U. after   12 cycles
 SCF Done:  E(RB3LYP) =  -747.947115553     A.U. after   10 cycles
 SCF Done:  E(RB3LYP) =  -747.947192099     A.U. after   11 cycles
 SCF Done:  E(RB3LYP) =  -747.947306415     A.U. after   10 cycles
 SCF Done:  E(RB3LYP) =  -747.947240216     A.U. after   11 cycles
 SCF Done:  E(RB3LYP) =  -747.947304892     A.U. after   11 cycles
 SCF Done:  E(RB3LYP) =  -747.947314778     A.U. after   10 cycles
 SCF Done:  E(RB3LYP) =  -747.947315065     A.U. after    7 cycles
 SCF Done:  E(RB3LYP) =  -747.947315144     A.U. after    6 cycles
 SCF Done:  E(RB3LYP) =  -747.947315180     A.U. after    7 cycles
 SCF Done:  E(RB3LYP) =  -747.947315198     A.U. after    6 cycles
 Optimization completed.
    -- Stationary point found.
 Normal termination of Gaussian 09 at Wed Sep 29 23:49:42 2021.

 ----------------------------------------------------------------------
 #p freq b3lyp/6-31G* volume NMR pop=NPA density=current Geom=AllCheck
 Guess=Read
 ----------------------------------------------------------------------

 CCN(C(=O)Oc1ccc(cc1)OC)CC_conf_0
 --------------------------------
 Redundant internal coordinates taken from checkpoint file:
 C12H17NO3_0297_conf_0.chk
 Charge =  0 Multiplicity = 1

 SCF Done:  E(RB3LYP) =  -747.947315198     A.U. after    1 cycles

  1  C    Isotropic =   173.1435   Anisotropy =    23.4596

  2  C    Isotropic =   141.4711   Anisotropy =    49.3221

  3  N    Isotropic =   158.2632   Anisotropy =    68.2264

  4  C    Isotropic =    46.4966   Anisotropy =    75.5046

  5  O    Isotropic =    60.3550   Anisotropy =   385.3702

  6  O    Isotropic =   146.2921   Anisotropy =   141.4490

  7  C    Isotropic =    51.2284   Anisotropy =   102.3353

  8  C    Isotropic =    75.3411   Anisotropy =   138.0909

  9  C    Isotropic =    87.1334   Anisotropy =   141.3105

 10  C    Isotropic =    42.2930   Anisotropy =   124.2604

 11  C    Isotropic =    78.2257   Anisotropy =   133.7754

 12  C    Isotropic =    71.0285   Anisotropy =   152.8431

 13  O    Isotropic =   240.5055   Anisotropy =    75.4666

 14  C    Isotropic =   137.4513   Anisotropy =    65.0487

 15  C    Isotropic =   142.9159   Anisotropy =    47.2134

 16  C    Isotropic =   171.9824   Anisotropy =    24.6337

 17  H    Isotropic =    31.3834   Anisotropy =    10.4768

 18  H    Isotropic =    30.4224   Anisotropy =     5.5017

 19  H    Isotropic =    31.1029   Anisotropy =     6.4870

 20  H    Isotropic =    28.1568   Anisotropy =     6.6785

 21  H    Isotropic =    29.6372   Anisotropy =     6.4432

 22  H    Isotropic =    25.4923   Anisotropy =     7.2666

 23  H    Isotropic =    25.8687   Anisotropy =     7.2707

 24  H    Isotropic =    25.5085   Anisotropy =     5.7022

 25  H    Isotropic =    24.9771   Anisotropy =     8.6993

 26  H    Isotropic =    28.3109   Anisotropy =     8.2049

 27  H    Isotropic =    28.6796   Anisotropy =     8.0045

 28  H    Isotropic =    28.6637   Anisotropy =     7.9686

 29  H    Isotropic =    28.2315   Anisotropy =     4.6269

 30  H    Isotropic =    29.5104   Anisotropy =     6.5236

 31  H    Isotropic =    30.5002   Anisotropy =     6.3292

 32  H    Isotropic =    31.2595   Anisotropy =    10.1092

 33  H    Isotropic =    30.8564   Anisotropy =     6.5645

  Exact polarizability: 205.642   0.881 131.548  -7.463  11.122  93.855
 Approx polarizability: 258.424   9.903 212.089 -14.626  23.167 141.675

                     1                      2                      3
                     A                      A                      A
 Frequencies --    26.1659                35.7623                41.0662
 Red. masses --     3.4463                 4.3585                 2.6442
 Frc consts  --     0.0014                 0.0033                 0.0026
 IR Inten    --     0.6179                 1.3269                 0.0062

                     4                      5                      6
                     A                      A                      A
 Frequencies --    65.5723                81.8981                94.5763
 Red. masses --     3.5135                 2.8777                 3.5969
 Frc consts  --     0.0089                 0.0114                 0.0190
 IR Inten    --     1.3003                 0.7113                 1.9015

                     7                      8                      9
                     A                      A                      A
 Frequencies --   115.1349               132.6945               171.4765
 Red. masses --     5.6836                 3.9810                 2.7822
 Frc consts  --     0.0444                 0.0413                 0.0482
 IR Inten    --     1.2147                 0.2576                 2.6073

                    10                     11                     12
                     A                      A                      A
 Frequencies --   215.8326               221.9181               237.2334
 Red. masses --     2.0245                 1.9448                 1.3114
 Frc consts  --     0.0556                 0.0564                 0.0435
 IR Inten    --     1.9811                 0.9191                 3.3548

                    13                     14                     15
                     A                      A                      A
 Frequencies --   259.3906               265.0787               307.7072
 Red. masses --     1.2109                 2.1070                 2.6078
 Frc consts  --     0.0480                 0.0872                 0.1455
 IR Inten    --     0.8560                 0.0983                 5.6957

                    16                     17                     18
                     A                      A                      A
 Frequencies --   379.0345               391.1273               403.1616
 Red. masses --     4.7656                 5.7685                 3.1689
 Frc consts  --     0.4034                 0.5199                 0.3035
 IR Inten    --     0.6709                 2.2057                11.0228

                    19                     20                     21
                     A                      A                      A
 Frequencies --   432.1358               438.8011               454.5887
 Red. masses --     3.2312                 2.9572                 4.3597
 Frc consts  --     0.3555                 0.3355                 0.5308
 IR Inten    --     0.2254                 2.7149                 0.7397

                    22                     23                     24
                     A                      A                      A
 Frequencies --   507.5171               532.0738               576.8120
 Red. masses --     3.2684                 2.4886                 4.9116
 Frc consts  --     0.4960                 0.4151                 0.9628
 IR Inten    --     5.5904                 6.6942                17.6145

                    25                     26                     27
                     A                      A                      A
 Frequencies --   623.5703               654.6051               710.2868
 Red. masses --     3.9076                 5.9865                 4.3488
 Frc consts  --     0.8952                 1.5114                 1.2927
 IR Inten    --     0.5540                 0.9312                 0.2923

                    28                     29                     30
                     A                      A                      A
 Frequencies --   751.0707               764.3701               783.7880
 Red. masses --    10.6522                 3.6172                 1.5885
 Frc consts  --     3.5404                 1.2452                 0.5750
 IR Inten    --    18.4866                23.0703                10.6166

                    31                     32                     33
                     A                      A                      A
 Frequencies --   788.0622               812.2728               821.1096
 Red. masses --     1.2185                 1.2858                 1.8785
 Frc consts  --     0.4459                 0.4998                 0.7462
 IR Inten    --     4.5917                 5.1761                12.5140

                    34                     35                     36
                     A                      A                      A
 Frequencies --   853.9633               862.7430               929.7575
 Red. masses --     2.5628                 3.8087                 1.3214
 Frc consts  --     1.1012                 1.6703                 0.6730
 IR Inten    --    21.9792                15.3630                 0.4250

                    37                     38                     39
                     A                      A                      A
 Frequencies --   947.0898               949.2958               977.7250
 Red. masses --     2.2273                 1.3030                 2.8441
 Frc consts  --     1.1771                 0.6918                 1.6019
 IR Inten    --     5.7887                 0.9218                61.3864

                    40                     41                     42
                     A                      A                      A
 Frequencies --  1031.7346              1064.9954              1082.3477
 Red. masses --     2.6632                 3.1648                 5.8403
 Frc consts  --     1.6703                 2.1149                 4.0310
 IR Inten    --     5.7898                11.2719                78.8169

                    43                     44                     45
                     A                      A                      A
 Frequencies --  1103.7677              1121.4554              1123.9263
 Red. masses --     1.9502                 1.7850                 1.6435
 Frc consts  --     1.3999                 1.3227                 1.2232
 IR Inten    --     5.8109                30.3030                36.4999

                    46                     47                     48
                     A                      A                      A
 Frequencies --  1139.6208              1186.0639              1188.1913
 Red. masses --     1.2758                 1.2708                 1.8489
 Frc consts  --     0.9762                 1.0533                 1.5379
 IR Inten    --    13.3040                 0.7565               161.7844

                    49                     50                     51
                     A                      A                      A
 Frequencies --  1199.4261              1219.0838              1242.6108
 Red. masses --     1.3589                 1.3956                 3.5045
 Frc consts  --     1.1518                 1.2220                 3.1882
 IR Inten    --    59.6886                20.7776               742.1831

                    52                     53                     54
                     A                      A                      A
 Frequencies --  1264.3414              1302.1226              1317.9885
 Red. masses --     2.6277                 5.6836                 1.6928
 Frc consts  --     2.4749                 5.6778                 1.7326
 IR Inten    --    40.2848               103.2516               173.8593

                    55                     56                     57
                     A                      A                      A
 Frequencies --  1338.0616              1362.5589              1366.0904
 Red. masses --     1.3085                 8.6377                 1.3820
 Frc consts  --     1.3803                 9.4485                 1.5196
 IR Inten    --     0.4727                40.7379                38.6556

                    58                     59                     60
                     A                      A                      A
 Frequencies --  1402.3147              1419.6852              1433.7970
 Red. masses --     1.2335                 1.3260                 1.2609
 Frc consts  --     1.4291                 1.5747                 1.5273
 IR Inten    --     9.7717                42.4123                12.5464

                    61                     62                     63
                     A                      A                      A
 Frequencies --  1437.8435              1457.1994              1466.5510
 Red. masses --     1.3303                 1.8035                 3.2379
 Frc consts  --     1.6204                 2.2563                 4.1030
 IR Inten    --    81.5115               215.0083                 1.8382

                    64                     65                     66
                     A                      A                      A
 Frequencies --  1500.1864              1503.2941              1517.9335
 Red. masses --     1.2001                 1.0707                 1.0457
 Frc consts  --     1.5913                 1.4257                 1.4196
 IR Inten    --    25.5227                 5.8696                 1.1022

                    67                     68                     69
                     A                      A                      A
 Frequencies --  1520.9398              1521.9242              1526.0295
 Red. masses --     1.0488                 1.1079                 1.0495
 Frc consts  --     1.4294                 1.5120                 1.4400
 IR Inten    --     6.6647                69.9138                 0.7914

                    70                     71                     72
                     A                      A                      A
 Frequencies --  1532.0542              1535.9840              1539.8735
 Red. masses --     1.0601                 1.0714                 1.0790
 Frc consts  --     1.4660                 1.4893                 1.5075
 IR Inten    --    15.7031                41.8223                12.3809

                    73                     74                     75
                     A                      A                      A
 Frequencies --  1563.1874              1644.2339              1675.4092
 Red. masses --     2.3967                 6.8802                 6.0717
 Frc consts  --     3.4505                10.9592                10.0416
 IR Inten    --   150.4352                10.7667                14.6601

                    76                     77                     78
                     A                      A                      A
 Frequencies --  1806.7623              3022.1683              3055.2449
 Red. masses --    11.4317                 1.0350                 1.0363
 Frc consts  --    21.9869                 5.5697                 5.6994
 IR Inten    --   350.7669                59.4182                10.6294

                    79                     80                     81
                     A                      A                      A
 Frequencies --  3057.5146              3066.6659              3074.8433
 Red. masses --     1.0367                 1.0655                 1.0639
 Frc consts  --     5.7102                 5.9040                 5.9263
 IR Inten    --    33.3712                 2.9771                64.9752

                    82                     83                     84
                     A                      A                      A
 Frequencies --  3079.3262              3113.7115              3120.0539
 Red. masses --     1.1065                 1.1028                 1.1018
 Frc consts  --     6.1817                 6.2994                 6.3197
 IR Inten    --    46.2991                15.9807                14.3450

                    85                     86                     87
                     A                      A                      A
 Frequencies --  3127.2609              3130.0689              3145.5405
 Red. masses --     1.0995                 1.0977                 1.1034
 Frc consts  --     6.3355                 6.3364                 6.4324
 IR Inten    --    38.4580                21.2366                18.8873

                    88                     89                     90
                     A                      A                      A
 Frequencies --  3150.0759              3155.7257              3208.3417
 Red. masses --     1.1042                 1.0993                 1.0890
 Frc consts  --     6.4556                 6.4503                 6.6044
 IR Inten    --    46.3334                28.1784                13.0484

                    91                     92                     93
                     A                      A                      A
 Frequencies --  3215.0560              3230.5348              3247.2877
 Red. masses --     1.0899                 1.0923                 1.0935
 Frc consts  --     6.6377                 6.7166                 6.7936
 IR Inten    --     4.5916                 9.9472                 2.5326

 - Thermochemistry -
 -------------------
 Temperature   298.150 Kelvin.  Pressure   1.00000 Atm.
 Atom     1 has atomic number  6 and mass  12.00000

 Molecular mass:   223.12084 amu.
 Principal axes and moments of inertia in atomic units:
                           1         2         3
     Eigenvalues --  1287.840288340.856448979.71965
           X            1.00000  -0.00107  -0.00002
           Y            0.00107   0.99989   0.01512
           Z            0.00001  -0.01512   0.99989
 This molecule is an asymmetric top.
 Rotational symmetry number  1.
 Warning -- assumption of classical behavior for rotation
           may cause significant error
 Rotational temperatures (Kelvin)      0.06726     0.01038     0.00965
 Rotational constants (GHZ):           1.40137     0.21637     0.20098
 Zero-point vibrational energy     732566.0 (Joules/Mol)
                                  175.08749 (Kcal/Mol)
 Warning -- explicit consideration of  24 degrees of freedom as
           vibrations may cause significant error
 Vibrational temperatures:     37.65    51.45    59.08    94.34   117.83
          (Kelvin)            136.07   165.65   190.92   246.72   310.53
                              319.29   341.33   373.20   381.39   442.72
                              545.35   562.74   580.06   621.75   631.34
                              654.05   730.20   765.53   829.90   897.18
                              941.83  1021.94  1080.62  1099.76  1127.69
                             1133.84  1168.68  1181.39  1228.66  1241.29
                             1337.71  1362.65  1365.82  1406.73  1484.43
                             1532.29  1557.25  1588.07  1613.52  1617.08
                             1639.66  1706.48  1709.54  1725.70  1753.99
                             1787.84  1819.10  1873.46  1896.29  1925.17
                             1960.42  1965.50  2017.62  2042.61  2062.91
                             2068.73  2096.58  2110.04  2158.43  2162.90
                             2183.96  2188.29  2189.71  2195.61  2204.28
                             2209.94  2215.53  2249.08  2365.68  2410.54
                             2599.52  4348.22  4395.81  4399.08  4412.24
                             4424.01  4430.46  4479.93  4489.06  4499.43
                             4503.47  4525.73  4532.25  4540.38  4616.08
                             4625.74  4648.01  4672.12

 Zero-point correction=                           0.279020 (Hartree/Particle)
 Thermal correction to Energy=                    0.295640
 Thermal correction to Enthalpy=                  0.296584
 Thermal correction to Gibbs Free Energy=         0.233006
 Sum of electronic and zero-point Energies=           -747.668296
 Sum of electronic and thermal Energies=              -747.651675
 Sum of electronic and thermal Enthalpies=            -747.650731
 Sum of electronic and thermal Free Energies=         -747.714309

                     E (Thermal)             CV                S
                      KCal/Mol        Cal/Mol-Kelvin    Cal/Mol-Kelvin
 Total                  185.517             60.969            133.811
 Electronic               0.000              0.000              0.000
 Translational            0.889              2.981             42.110
 Rotational               0.889              2.981             32.933
 Vibrational            183.739             55.007             58.767
 Vibration     1          0.593              1.985              6.101
 Vibration     2          0.594              1.982              5.481
 Vibration     3          0.594              1.981              5.207
 Vibration     4          0.597              1.971              4.282
 Vibration     5          0.600              1.962              3.845
 Vibration     6          0.603              1.953              3.563
 Vibration     7          0.608              1.937              3.180
 Vibration     8          0.613              1.921              2.907
 Vibration     9          0.626              1.878              2.419
 Vibration    10          0.645              1.817              1.994
 Vibration    11          0.648              1.808              1.943
 Vibration    12          0.656              1.784              1.824
 Vibration    13          0.668              1.747              1.666
 Vibration    14          0.671              1.737              1.628
 Vibration    15          0.698              1.659              1.375
 Vibration    16          0.749              1.515              1.043
 Vibration    17          0.759              1.489              0.996
 Vibration    18          0.769              1.463              0.951
 Vibration    19          0.793              1.400              0.852
 Vibration    20          0.799              1.386              0.830
 Vibration    21          0.813              1.351              0.782
 Vibration    22          0.863              1.233              0.640
 Vibration    23          0.887              1.179              0.583
 Vibration    24          0.933              1.081              0.491

 Optimization completed.
    -- Stationary point found.
 Normal termination of Gaussian 09 at Thu Sep 30 01:00:02 2021.
 Gaussian 09:  AM64L-G09RevA.02 11-Jun-2009

 ----------------------------------------------------------------------
 #p TD(NStates=10, Root=1) b3lyp/6-31G* volume pop=NPA density=current
 Geom=AllCheck Guess=Read
 ----------------------------------------------------------------------

 CCN(C(=O)Oc1ccc(cc1)OC)CC_conf_0
 --------------------------------
 Redundant internal coordinates taken from checkpoint file:
 C12H17NO3_0297_conf_0.chk
 Charge =  0 Multiplicity = 1

                         Standard orientation:
 ---------------------------------------------------------------------
 Center     Atomic      Atomic             Coordinates (Angstroms)
 Number     Number       Type             X           Y           Z
 ---------------------------------------------------------------------
      1          6           0        4.348764   -0.993206    1.434130
      2          6           0        3.967830   -1.013507   -0.049270
      3          7           0        2.867423   -0.108017   -0.403701
      4          6           0        1.604664   -0.547207   -0.131664
      5          8           0        1.327718   -1.634522    0.340436
      6          8           0        0.671258    0.410295   -0.472433
      7          6           0       -0.685649    0.132783   -0.303987
      8          6           0       -1.451841    1.107819    0.321386
      9          6           0       -2.835291    0.947187    0.445177
     10          6           0       -3.444796   -0.206169   -0.059139
     11          6           0       -2.660762   -1.185451   -0.687613
     12          6           0       -1.288086   -1.019927   -0.816196
     13          8           0       -4.784502   -0.471856    0.005550
     14          6           0       -5.624481    0.481040    0.633729
     15          6           0        3.150413    1.227829   -0.940931
     16          6           0        3.240879    2.332204    0.117504
     17          1           0        5.158903   -1.707558    1.622745
     18          1           0        3.489814   -1.282399    2.046210
     19          1           0        4.689434   -0.002157    1.752327
     20          1           0        3.667077   -2.025975   -0.331901
     21          1           0        4.825778   -0.734397   -0.670161
     22          1           0       -0.965277    1.998132    0.707645
     23          1           0       -3.415306    1.721289    0.934054
     24          1           0       -3.152106   -2.073721   -1.071792
     25          1           0       -0.685469   -1.781951   -1.294484
     26          1           0       -6.636179    0.075204    0.574315
     27          1           0       -5.593058    1.450767    0.118515
     28          1           0       -5.354597    0.626345    1.688558
     29          1           0        2.374315    1.476606   -1.667716
     30          1           0        4.095562    1.155120   -1.490426
     31          1           0        2.297892    2.414269    0.666584
     32          1           0        3.442290    3.297410   -0.362306
     33          1           0        4.043314    2.137424    0.836552
 ---------------------------------------------------------------------

 SCF Done:  E(RB3LYP) =  -747.947315198     A.U. after    2 cycles

 Excitation energies and oscillator strengths:

 Excited State   1:      Singlet-A      5.0159 eV  247.18 nm  f=0.0330  <S**2>=0.000
      58 -> 62        -0.26927
      60 -> 61         0.64351
 This state for optimization and/or second-order correction.
 Total Energy, E(TD-HF/TD-KS) =  -747.762984323
 Copying the excited state density for this state as the 1-particle RhoCI density.

 Excited State   2:      Singlet-A      5.7013 eV  217.47 nm  f=0.3084  <S**2>=0.000
      58 -> 61         0.22940
      60 -> 62         0.64543
      60 -> 63        -0.10258

 Excited State   3:      Singlet-A      5.9455 eV  208.53 nm  f=0.0050  <S**2>=0.000
      59 -> 61         0.70026

 Excited State   4:      Singlet-A      6.3343 eV  195.73 nm  f=0.0803  <S**2>=0.000
      58 -> 61        -0.16811
      59 -> 62         0.67172

 Excited State   5:      Singlet-A      6.4598 eV  191.93 nm  f=0.1448  <S**2>=0.000
      57 -> 61         0.37603
      58 -> 61         0.37932
      59 -> 62         0.14648
      60 -> 63         0.40680

 Excited State   6:      Singlet-A      6.4927 eV  190.96 nm  f=0.0056  <S**2>=0.000
      57 -> 61        -0.23513
      57 -> 62         0.40060
      57 -> 63        -0.27158
      58 -> 62         0.26164
      58 -> 63        -0.14032
      60 -> 63         0.31976

 Excited State   7:      Singlet-A      6.5716 eV  188.67 nm  f=0.0221  <S**2>=0.000
      57 -> 61         0.43493
      57 -> 62         0.26535
      57 -> 63        -0.12112
      58 -> 62         0.22072
      59 -> 62         0.10244
      60 -> 63        -0.37079

 Excited State   8:      Singlet-A      6.9527 eV  178.33 nm  f=0.2556  <S**2>=0.000
      55 -> 61         0.12224
      56 -> 61         0.18548
      57 -> 61         0.15218
      57 -> 62        -0.26364
      57 -> 63         0.13867
      58 -> 61        -0.24000
      58 -> 62         0.40490
      60 -> 61         0.19296
      60 -> 62         0.12706
      60 -> 63         0.18919

 Excited State   9:      Singlet-A      7.0439 eV  176.02 nm  f=0.5618  <S**2>=0.000
      57 -> 61        -0.27298
      57 -> 62        -0.10437
      57 -> 63         0.18454
      58 -> 61         0.41558
      58 -> 62         0.29657
      60 -> 61         0.11116
      60 -> 62        -0.16461
      60 -> 63        -0.18052

 Excited State  10:      Singlet-A      7.1169 eV  174.21 nm  f=0.0093  <S**2>=0.000
      60 -> 64         0.34036
      60 -> 65         0.59308
      60 -> 67        -0.10992

 The electronic state is 1-A.
 Alpha  occ. eigenvalues --  -19.18901 -19.17425 -19.11180 -14.36094 -10.32567
 Alpha  occ. eigenvalues --  -10.24288 -10.23936 -10.23929 -10.22482 -10.21996
 Alpha  occ. eigenvalues --  -10.18933 -10.18778 -10.18670 -10.18281 -10.18173
 Alpha  occ. eigenvalues --  -10.17531  -1.09901  -1.06006  -1.00846  -0.93561
 Alpha  occ. eigenvalues --   -0.84719  -0.77112  -0.76003  -0.74747  -0.73574
 Alpha  occ. eigenvalues --   -0.69784  -0.65233  -0.63716  -0.61552  -0.59860
 Alpha  occ. eigenvalues --   -0.55583  -0.52880  -0.52572  -0.49189  -0.48105
 Alpha  occ. eigenvalues --   -0.46575  -0.45896  -0.45729  -0.44489  -0.43733
 Alpha  occ. eigenvalues --   -0.43248  -0.42562  -0.41927  -0.41373  -0.40413
 Alpha  occ. eigenvalues --   -0.38721  -0.38401  -0.38028  -0.36716  -0.36496
 Alpha  occ. eigenvalues --   -0.36206  -0.35847  -0.34030  -0.32796  -0.31904
 Alpha  occ. eigenvalues --   -0.29379  -0.26812  -0.24700  -0.23894  -0.20798
 Alpha virt. eigenvalues --    0.00179   0.01671   0.05730   0.08657   0.09103
 Alpha virt. eigenvalues --    0.10625   0.11256   0.12132   0.12991   0.13383
 Alpha virt. eigenvalues --    0.14451   0.15562   0.15836   0.15928   0.16719

 Mulliken atomic charges:
              1
     1  C   -0.448703
     2  C   -0.134005
     3  N   -0.445437
     4  C    0.792454
     5  O   -0.507669
     6  O   -0.544424
     7  C    0.365103
     8  C   -0.203320
     9  C   -0.214387
    10  C    0.365233
    11  C   -0.212194
    12  C   -0.163456
    13  O   -0.449851
    14  C   -0.225848
    15  C   -0.135307
    16  C   -0.445761
    17  H    0.145864
    18  H    0.180431
    19  H    0.145741
    20  H    0.178636
    21  H    0.139927
    22  H    0.123779
    23  H    0.120889
    24  H    0.127621
    25  H    0.138416
    26  H    0.177094
    27  H    0.169924
    28  H    0.171486
    29  H    0.176269
    30  H    0.145916
    31  H    0.166530
    32  H    0.146787
    33  H    0.152258
 Sum of Mulliken atomic charges =  -0.00000

 Dipole moment (field-independent basis, Debye):
    X=              0.2582    Y=              2.9721    Z=              0.0245  Tot=              2.9834
 Quadrupole moment (field-independent basis, Debye-Ang):
   XX=            -64.0509   YY=            -96.0460   ZZ=            -95.2291
   XY=             -3.4460   XZ=             -7.1455   YZ=              2.9301

 Summary of Natural Population Analysis:

                                       Natural Population
                Natural  -----------------------------------------------
    Atom  No    Charge         Core      Valence    Rydberg      Total
 -----------------------------------------------------------------------
      C    1   -0.68773      1.99945     4.68094    0.00734     6.68773
      C    2   -0.25285      1.99935     4.23792    0.01558     6.25285
      N    3   -0.49555      1.99930     5.48308    0.01317     7.49555
      C    4    0.93939      1.99937     3.01559    0.04565     5.06061
      O    5   -0.63631      1.99978     6.61744    0.01909     8.63631
      O    6   -0.53292      1.99969     6.52282    0.01041     8.53292
      C    7    0.35561      1.99869     3.62286    0.02284     5.64439
      C    8   -0.31987      1.99904     4.30044    0.02039     6.31987
      C    9   -0.34436      1.99905     4.32801    0.01729     6.34436
      C   10    0.33372      1.99879     3.64451    0.02298     5.66628
      C   11   -0.32171      1.99907     4.30220    0.02044     6.32171
      C   12   -0.31769      1.99903     4.30037    0.01829     6.31769
      O   13   -0.42970      1.99975     6.41825    0.01169     8.42970
      C   14   -0.32491      1.99942     4.31136    0.01413     6.32491
      C   15   -0.25789      1.99934     4.24332    0.01523     6.25789
      C   16   -0.68653      1.99945     4.67976    0.00733     6.68653
      H   17    0.23429      0.00000     0.76483    0.00088     0.76571
      H   18    0.24682      0.00000     0.75188    0.00130     0.75318
      H   19    0.22199      0.00000     0.77699    0.00102     0.77801
      H   20    0.25373      0.00000     0.74421    0.00206     0.74627
      H   21    0.22685      0.00000     0.77181    0.00134     0.77315
      H   22    0.23579      0.00000     0.76297    0.00124     0.76421
      H   23    0.22819      0.00000     0.77087    0.00095     0.77181
      H   24    0.23855      0.00000     0.76025    0.00120     0.76145
      H   25    0.24756      0.00000     0.75133    0.00110     0.75244
      H   26    0.23118      0.00000     0.76828    0.00054     0.76882
      H   27    0.21590      0.00000     0.78204    0.00206     0.78410
      H   28    0.21695      0.00000     0.78100    0.00204     0.78305
      H   29    0.25181      0.00000     0.74666    0.00153     0.74819
      H   30    0.23083      0.00000     0.76769    0.00148     0.76917
      H   31    0.23813      0.00000     0.76045    0.00142     0.76187
      H   32    0.23464      0.00000     0.76441    0.00095     0.76536
      H   33    0.22608      0.00000     0.77293    0.00099     0.77392
 =======================================================================
   * Total *    0.00000     31.98857    87.70747    0.30396   120.00000

 Normal termination of Gaussian 09 at Thu Sep 30 06:29:49 2021.
