 Gaussian 09, Revision A.02,

 -----------------------------------
 #p opt b3lyp/6-31G* scf=(xqc,tight)
 -----------------------------------

 -----------------------------------
 COc1nc(Oc2ccc(cc2)C)nc(n1)OC_conf_0
 -----------------------------------
 Symbolic Z-matrix:
 Charge =  0 Multiplicity = 1

 SCF Done:  E(RB3LYP) =  -855.027875304     A.U. after   14 cycles
 SCF Done:  E(RB3LYP) =  -855.037761627     A.U. after   12 cycles
 SCF Done:  E(RB3LYP) =  -855.041761647     A.U. after   14 cycles
 SCF Done:  E(RB3LYP) =  -855.042771417     A.U. after   12 cycles
 SCF Done:  E(RB3LYP) =  -855.043084972     A.U. after   12 cycles
 SCF Done:  E(RB3LYP) =  -855.043317718     A.U. after   11 cycles
 SCF Done:  E(RB3LYP) =  -855.043497497     A.U. after   12 cycles
 SCF Done:  E(RB3LYP) =  -855.043588558     A.U. after   11 cycles
 SCF Done:  E(RB3LYP) =  -855.043665851     A.U. after   12 cycles
 SCF Done:  E(RB3LYP) =  -855.043695600     A.U. after   11 cycles
 SCF Done:  E(RB3LYP) =  -855.043739557     A.U. after   12 cycles
 SCF Done:  E(RB3LYP) =  -855.043749672     A.U. after   11 cycles
 SCF Done:  E(RB3LYP) =  -855.043755895     A.U. after   11 cycles
 SCF Done:  E(RB3LYP) =  -855.043757774     A.U. after   15 cycles
 SCF Done:  E(RB3LYP) =  -855.043759744     A.U. after   15 cycles
 SCF Done:  E(RB3LYP) =  -855.043760098     A.U. after   10 cycles
 SCF Done:  E(RB3LYP) =  -855.043760358     A.U. after   15 cycles
 SCF Done:  E(RB3LYP) =  -855.043760416     A.U. after   16 cycles
 Optimization completed.
    -- Stationary point found.
 Normal termination of Gaussian 09 at Tue Sep 28 19:01:15 2021.

 ----------------------------------------------------------------------
 #p freq b3lyp/6-31G* volume NMR pop=NPA density=current Geom=AllCheck
 Guess=Read
 ----------------------------------------------------------------------

 COc1nc(Oc2ccc(cc2)C)nc(n1)OC_conf_0
 -----------------------------------
 Redundant internal coordinates taken from checkpoint file:
 C12H13N3O3_6a35_conf_0.chk
 Charge =  0 Multiplicity = 1

 SCF Done:  E(RB3LYP) =  -855.043760416     A.U. after    1 cycles

  1  C    Isotropic =   136.7949   Anisotropy =    63.5899

  2  O    Isotropic =   191.6380   Anisotropy =    86.6857

  3  C    Isotropic =    24.1076   Anisotropy =    99.2026

  4  N    Isotropic =    65.7733   Anisotropy =   281.2425

  5  C    Isotropic =    22.6394   Anisotropy =    94.8382

  6  O    Isotropic =   138.8762   Anisotropy =    79.9267

  7  C    Isotropic =    45.3988   Anisotropy =   108.5666

  8  C    Isotropic =    73.7360   Anisotropy =   144.3569

  9  C    Isotropic =    65.9878   Anisotropy =   145.1992

 10  C    Isotropic =    61.1881   Anisotropy =   178.1690

 11  C    Isotropic =    66.4606   Anisotropy =   153.1301

 12  C    Isotropic =    73.2633   Anisotropy =   145.5040

 13  C    Isotropic =   167.8995   Anisotropy =    35.0356

 14  N    Isotropic =    56.9955   Anisotropy =   280.4134

 15  C    Isotropic =    22.6307   Anisotropy =   100.5192

 16  N    Isotropic =    63.3021   Anisotropy =   283.1641

 17  O    Isotropic =   191.1810   Anisotropy =    88.0521

 18  C    Isotropic =   136.3811   Anisotropy =    64.4493

 19  H    Isotropic =    28.7515   Anisotropy =     7.4158

 20  H    Isotropic =    28.7364   Anisotropy =     6.5524

 21  H    Isotropic =    28.7428   Anisotropy =     6.4976

 22  H    Isotropic =    25.3832   Anisotropy =     6.6570

 23  H    Isotropic =    25.1456   Anisotropy =     5.9584

 24  H    Isotropic =    25.0342   Anisotropy =     6.4073

 25  H    Isotropic =    25.3116   Anisotropy =     6.8108

 26  H    Isotropic =    30.3188   Anisotropy =     7.1411

 27  H    Isotropic =    29.7325   Anisotropy =     8.0270

 28  H    Isotropic =    29.8099   Anisotropy =     7.9806

 29  H    Isotropic =    28.5290   Anisotropy =     7.7255

 30  H    Isotropic =    28.3155   Anisotropy =     7.9770

 31  H    Isotropic =    28.3165   Anisotropy =     7.9771

  Exact polarizability: 220.341  21.867 122.353   0.101  -1.081 114.575
 Approx polarizability: 282.226  33.884 198.609   0.191  -2.306 192.888

 ******    1 imaginary frequencies (negative Signs) ******

                     1                      2                      3
                     A                      A                      A
 Frequencies --    -9.6475                12.5255                26.8741
 Red. masses --     1.2362                 2.4644                 4.4101
 Frc consts  --     0.0001                 0.0002                 0.0019
 IR Inten    --     0.2277                 0.1151                 0.2706

                     4                      5                      6
                     A                      A                      A
 Frequencies --    45.2684               100.2556               113.4624
 Red. masses --     4.4067                 3.3341                 3.1884
 Frc consts  --     0.0053                 0.0197                 0.0242
 IR Inten    --     0.1195                 5.7899                 0.1115

                     7                      8                      9
                     A                      A                      A
 Frequencies --   138.3385               141.5392               160.7820
 Red. masses --     3.8647                 1.2127                 1.2066
 Frc consts  --     0.0436                 0.0143                 0.0184
 IR Inten    --     0.4984                 0.0174                 0.0006

                    10                     11                     12
                     A                      A                      A
 Frequencies --   191.4806               195.2615               214.8881
 Red. masses --     3.5058                 4.6951                 4.6281
 Frc consts  --     0.0757                 0.1055                 0.1259
 IR Inten    --     5.7162                 0.5768                 0.9257

                    13                     14                     15
                     A                      A                      A
 Frequencies --   229.3248               249.5258               303.5533
 Red. masses --     6.3581                 5.4156                 4.2778
 Frc consts  --     0.1970                 0.1987                 0.2322
 IR Inten    --     0.0025                 4.4244                 1.1379

                    16                     17                     18
                     A                      A                      A
 Frequencies --   316.3383               337.9698               424.0277
 Red. masses --     3.2723                 4.2132                 3.1146
 Frc consts  --     0.1929                 0.2835                 0.3299
 IR Inten    --     0.4851                 7.4851                 0.0667

                    19                     20                     21
                     A                      A                      A
 Frequencies --   433.9799               465.8376               485.6310
 Red. masses --     4.5339                 5.0791                 4.1508
 Frc consts  --     0.5031                 0.6494                 0.5768
 IR Inten    --     3.2420                12.4930                 2.7440

                    22                     23                     24
                     A                      A                      A
 Frequencies --   536.7901               569.5676               603.5478
 Red. masses --     4.0867                 8.4656                 7.1084
 Frc consts  --     0.6938                 1.6181                 1.5256
 IR Inten    --     8.2159                 3.0063                 3.6806

                    25                     26                     27
                     A                      A                      A
 Frequencies --   655.3379               664.3056               707.3798
 Red. masses --     6.9547                 5.2859                 5.7133
 Frc consts  --     1.7598                 1.3744                 1.6844
 IR Inten    --     0.0489                 2.3920                 2.1623

                    28                     29                     30
                     A                      A                      A
 Frequencies --   730.4908               737.6854               749.3915
 Red. masses --     3.3278                12.0906                11.9776
 Frc consts  --     1.0463                 3.8765                 3.9631
 IR Inten    --     2.9742                 0.0162                 0.0663

                    31                     32                     33
                     A                      A                      A
 Frequencies --   788.2326               827.8329               840.2961
 Red. masses --     4.1157                10.7765                 1.2700
 Frc consts  --     1.5066                 4.3512                 0.5283
 IR Inten    --     0.6369                39.7833                 0.5199

                    34                     35                     36
                     A                      A                      A
 Frequencies --   845.1979               874.4233               955.1453
 Red. masses --     1.9856                 4.8189                 1.3075
 Frc consts  --     0.8357                 2.1709                 0.7028
 IR Inten    --    30.5600                 8.6282                 0.3678

                    37                     38                     39
                     A                      A                      A
 Frequencies --   957.4569               980.5577               997.8819
 Red. masses --     1.3179                 7.6077                13.7486
 Frc consts  --     0.7118                 4.3097                 8.0662
 IR Inten    --     0.0958                17.8343                 0.2901

                    40                     41                     42
                     A                      A                      A
 Frequencies --  1018.8788              1037.2784              1042.3735
 Red. masses --     1.4145                 4.8114                 3.5317
 Frc consts  --     0.8651                 3.0501                 2.2609
 IR Inten    --     1.8419                 2.0881                16.1291

                    43                     44                     45
                     A                      A                      A
 Frequencies --  1076.3132              1132.0574              1139.7874
 Red. masses --     1.5098                 5.1652                 1.2716
 Frc consts  --     1.0305                 3.9001                 0.9733
 IR Inten    --     4.7569                99.4831                 7.2650

                    46                     47                     48
                     A                      A                      A
 Frequencies --  1157.4155              1184.1403              1184.8019
 Red. masses --     3.5365                 1.2658                 1.2660
 Frc consts  --     2.7913                 1.0458                 1.0470
 IR Inten    --   110.5106                 0.2200                 0.9140

                    49                     50                     51
                     A                      A                      A
 Frequencies --  1201.1001              1220.5547              1236.7745
 Red. masses --     1.2153                 1.5850                 2.1952
 Frc consts  --     1.0330                 1.3912                 1.9784
 IR Inten    --    27.1087                24.3191                35.8218

                    52                     53                     54
                     A                      A                      A
 Frequencies --  1238.6485              1252.9508              1322.4481
 Red. masses --     2.1674                 7.2458                10.2211
 Frc consts  --     1.9592                 6.7020                10.5318
 IR Inten    --   124.0617               380.9373                66.4852

                    55                     56                     57
                     A                      A                      A
 Frequencies --  1337.3853              1347.6036              1407.8292
 Red. masses --     1.4561                 4.9560                 4.4292
 Frc consts  --     1.5344                 5.3028                 5.1722
 IR Inten    --     0.5235                 0.1360               996.2606

                    58                     59                     60
                     A                      A                      A
 Frequencies --  1420.0579              1444.0786              1454.4645
 Red. masses --     3.4771                 1.2458                 2.7166
 Frc consts  --     4.1312                 1.5307                 3.3860
 IR Inten    --   454.4472                 1.0717                 0.3950

                    61                     62                     63
                     A                      A                      A
 Frequencies --  1471.0938              1511.5277              1511.9955
 Red. masses --     1.7460                 1.0481                 1.0484
 Frc consts  --     2.2263                 1.4109                 1.4121
 IR Inten    --    42.0381                 6.9604                 6.1150

                    64                     65                     66
                     A                      A                      A
 Frequencies --  1516.8271              1518.7700              1521.3512
 Red. masses --     1.0464                 1.2758                 1.0829
 Frc consts  --     1.4185                 1.7338                 1.4767
 IR Inten    --     5.1830               123.9094                24.6872

                    67                     68                     69
                     A                      A                      A
 Frequencies --  1524.3950              1525.5417              1557.8250
 Red. masses --     1.2843                 1.0981                 2.6473
 Frc consts  --     1.7584                 1.5057                 3.7853
 IR Inten    --    12.5917                 6.7209               144.1518

                    70                     71                     72
                     A                      A                      A
 Frequencies --  1564.8289              1603.5910              1629.2974
 Red. masses --     3.3136                 8.4891                10.0052
 Frc consts  --     4.7806                12.8617                15.6487
 IR Inten    --    15.4757               588.6579               909.4185

                    73                     74                     75
                     A                      A                      A
 Frequencies --  1645.3243              1671.0824              3042.9433
 Red. masses --     6.3768                 6.0362                 1.0390
 Frc consts  --    10.1709                 9.9313                 5.6682
 IR Inten    --     3.9670                 9.4970                33.4895

                    76                     77                     78
                     A                      A                      A
 Frequencies --  3075.1557              3075.7558              3096.5325
 Red. masses --     1.0293                 1.0293                 1.0988
 Frc consts  --     5.7351                 5.7371                 6.2074
 IR Inten    --    44.9195                24.4265                20.8319

                    79                     80                     81
                     A                      A                      A
 Frequencies --  3125.9886              3151.0146              3151.8627
 Red. masses --     1.1015                 1.1076                 1.1077
 Frc consts  --     6.3415                 6.4797                 6.4834
 IR Inten    --    16.3764                18.6979                19.7837

                    82                     83                     84
                     A                      A                      A
 Frequencies --  3179.5937              3179.9676              3182.2541
 Red. masses --     1.1072                 1.1074                 1.0890
 Frc consts  --     6.5953                 6.5978                 6.4978
 IR Inten    --    25.1311                22.3104                15.9074

                    85                     86                     87
                     A                      A                      A
 Frequencies --  3186.2364              3216.3236              3217.4719
 Red. masses --     1.0889                 1.0935                 1.0939
 Frc consts  --     6.5130                 6.6648                 6.6720
 IR Inten    --    17.3364                 8.9861                 3.2407

 - Thermochemistry -
 -------------------
 Temperature   298.150 Kelvin.  Pressure   1.00000 Atm.
 Atom     1 has atomic number  6 and mass  12.00000

 Molecular mass:   247.09569 amu.
 Principal axes and moments of inertia in atomic units:
                           1         2         3
     Eigenvalues --  1894.902978539.427349769.34004
           X            0.99998   0.00578  -0.00000
           Y           -0.00578   0.99998  -0.00072
           Z           -0.00000   0.00072   1.00000
 This molecule is an asymmetric top.
 Rotational symmetry number  1.
 Warning -- assumption of classical behavior for rotation
           may cause significant error
 Rotational temperatures (Kelvin)      0.04571     0.01014     0.00887
 Rotational constants (GHZ):           0.95242     0.21134     0.18474
    1 imaginary frequencies ignored.
 Zero-point vibrational energy     640719.2 (Joules/Mol)
                                  153.13555 (Kcal/Mol)
 Warning -- explicit consideration of  23 degrees of freedom as
           vibrations may cause significant error
 Vibrational temperatures:     18.02    38.67    65.13   144.25   163.25
          (Kelvin)            199.04   203.64   231.33   275.50   280.94
                              309.18   329.95   359.01   436.74   455.14
                              486.26   610.08   624.40   670.24   698.71
                              772.32   819.48   868.37   942.88   955.79
                             1017.76  1051.01  1061.36  1078.21  1134.09
                             1191.07  1209.00  1216.05  1258.10  1374.24
                             1377.57  1410.80  1435.73  1465.94  1492.41
                             1499.74  1548.57  1628.78  1639.90  1665.26
                             1703.71  1704.66  1728.11  1756.10  1779.44
                             1782.14  1802.71  1902.71  1924.20  1938.90
                             2025.55  2043.14  2077.70  2092.65  2116.57
                             2174.75  2175.42  2182.37  2185.17  2188.88
                             2193.26  2194.91  2241.36  2251.44  2307.21
                             2344.19  2367.25  2404.31  4378.11  4424.46
                             4425.32  4455.21  4497.59  4533.60  4534.82
                             4574.72  4575.26  4578.55  4584.28  4627.57
                             4629.22

 Zero-point correction=                           0.244037 (Hartree/Particle)
 Thermal correction to Energy=                    0.259945
 Thermal correction to Enthalpy=                  0.260889
 Thermal correction to Gibbs Free Energy=         0.198144
 Sum of electronic and zero-point Energies=           -854.799723
 Sum of electronic and thermal Energies=              -854.783815
 Sum of electronic and thermal Enthalpies=            -854.782871
 Sum of electronic and thermal Free Energies=         -854.845617

                     E (Thermal)             CV                S
                      KCal/Mol        Cal/Mol-Kelvin    Cal/Mol-Kelvin
 Total                  163.118             58.808            132.059
 Electronic               0.000              0.000              0.000
 Translational            0.889              2.981             42.415
 Rotational               0.889              2.981             33.424
 Vibrational            161.341             52.846             56.220
 Vibration     1          0.593              1.987              7.564
 Vibration     2          0.593              1.984              6.048
 Vibration     3          0.595              1.979              5.014
 Vibration     4          0.604              1.949              3.449
 Vibration     5          0.607              1.938              3.209
 Vibration     6          0.614              1.915              2.827
 Vibration     7          0.615              1.912              2.783
 Vibration     8          0.622              1.890              2.541
 Vibration     9          0.634              1.852              2.213
 Vibration    10          0.636              1.846              2.177
 Vibration    11          0.645              1.818              2.002
 Vibration    12          0.652              1.796              1.884
 Vibration    13          0.662              1.764              1.734
 Vibration    14          0.695              1.667              1.397
 Vibration    15          0.703              1.642              1.329
 Vibration    16          0.718              1.600              1.222
 Vibration    17          0.786              1.418              0.878
 Vibration    18          0.795              1.396              0.846
 Vibration    19          0.823              1.326              0.749
 Vibration    20          0.842              1.282              0.695
 Vibration    21          0.892              1.169              0.572
 Vibration    22          0.926              1.097              0.505
 Vibration    23          0.962              1.024              0.444

 Normal termination of Gaussian 09 at Tue Sep 28 20:18:03 2021.
 Gaussian 09:  AM64L-G09RevA.02 11-Jun-2009

 ----------------------------------------------------------------------
 #p TD(NStates=10, Root=1) b3lyp/6-31G* volume pop=NPA density=current
 Geom=AllCheck Guess=Read
 ----------------------------------------------------------------------

 COc1nc(Oc2ccc(cc2)C)nc(n1)OC_conf_0
 -----------------------------------
 Redundant internal coordinates taken from checkpoint file:
 C12H13N3O3_6a35_conf_0.chk
 Charge =  0 Multiplicity = 1

                         Standard orientation:
 ---------------------------------------------------------------------
 Center     Atomic      Atomic             Coordinates (Angstroms)
 Number     Number       Type             X           Y           Z
 ---------------------------------------------------------------------
      1          6           0       -0.430170    3.152282    0.026240
      2          8           0       -1.719312    2.521041    0.017942
      3          6           0       -1.751156    1.188170    0.009607
      4          7           0       -0.601354    0.511089    0.008689
      5          6           0       -0.768050   -0.817101    0.000532
      6          8           0        0.322348   -1.606998    0.000415
      7          6           0        1.598289   -1.030807   -0.000151
      8          6           0        2.256516   -0.834317    1.207749
      9          6           0        3.566344   -0.352211    1.196487
     10          6           0        4.226926   -0.066909   -0.004484
     11          6           0        3.536688   -0.285783   -1.205929
     12          6           0        2.229038   -0.766388   -1.212638
     13          6           0        5.640041    0.469244   -0.013112
     14          7           0       -1.917482   -1.478476   -0.006673
     15          6           0       -2.986305   -0.671017   -0.004871
     16          7           0       -2.981073    0.663599    0.003071
     17          8           0       -4.154311   -1.312906   -0.012075
     18          6           0       -5.348264   -0.517300   -0.010843
     19          1           0       -0.641288    4.222262    0.033400
     20          1           0        0.142978    2.879106   -0.863511
     21          1           0        0.137902    2.866112    0.915136
     22          1           0        1.749623   -1.065029    2.139418
     23          1           0        4.083773   -0.201035    2.140832
     24          1           0        4.031794   -0.082102   -2.152751
     25          1           0        1.699748   -0.945420   -2.143251
     26          1           0        6.100684    0.398214    0.977244
     27          1           0        5.665617    1.524851   -0.313624
     28          1           0        6.274072   -0.080758   -0.718333
     29          1           0       -6.166343   -1.238564   -0.017671
     30          1           0       -5.391510    0.121706   -0.896681
     31          1           0       -5.396860    0.110903    0.882416
 ---------------------------------------------------------------------

 SCF Done:  E(RB3LYP) =  -855.043760416     A.U. after    1 cycles

 Excitation energies and oscillator strengths:

 Excited State   1:      Singlet-A      5.2503 eV  236.15 nm  f=0.0055  <S**2>=0.000
      64 -> 68        -0.13817
      64 -> 69         0.24838
      65 -> 66         0.61148
      65 -> 68        -0.10518
      65 -> 69        -0.10065
 This state for optimization and/or second-order correction.
 Total Energy, E(TD-HF/TD-KS) =  -854.850815398
 Copying the excited state density for this state as the 1-particle RhoCI density.

 Excited State   2:      Singlet-A      5.4376 eV  228.01 nm  f=0.0014  <S**2>=0.000
      60 -> 66        -0.13097
      62 -> 67        -0.11782
      64 -> 68         0.13252
      64 -> 69        -0.22244
      65 -> 66         0.13218
      65 -> 67         0.42153
      65 -> 68         0.39381
      65 -> 69         0.18231

 Excited State   3:      Singlet-A      5.5611 eV  222.95 nm  f=0.0013  <S**2>=0.000
      60 -> 66         0.13349
      60 -> 67        -0.14222
      62 -> 67        -0.11098
      64 -> 69         0.12440
      65 -> 66        -0.18408
      65 -> 67         0.50874
      65 -> 68        -0.30601
      65 -> 69        -0.16179

 Excited State   4:      Singlet-A      5.7042 eV  217.35 nm  f=0.0029  <S**2>=0.000
      62 -> 66         0.60451
      62 -> 67         0.21573
      62 -> 68         0.24322

 Excited State   5:      Singlet-A      5.7169 eV  216.87 nm  f=0.0001  <S**2>=0.000
      60 -> 66         0.22650
      60 -> 68         0.10356
      62 -> 66        -0.15617
      62 -> 67         0.60757
      65 -> 67         0.13184

 Excited State   6:      Singlet-A      5.8338 eV  212.53 nm  f=0.0041  <S**2>=0.000
      61 -> 66        -0.34917
      61 -> 68        -0.14141
      63 -> 66         0.11009
      63 -> 67         0.43023
      64 -> 66        -0.34498
      65 -> 69         0.10013

 Excited State   7:      Singlet-A      5.9103 eV  209.77 nm  f=0.0000  <S**2>=0.000
      60 -> 66         0.54780
      60 -> 67         0.15923
      60 -> 68         0.20769
      62 -> 67        -0.21555
      65 -> 66         0.15483
      65 -> 68         0.11164

 Excited State   8:      Singlet-A      5.9716 eV  207.62 nm  f=0.0060  <S**2>=0.000
      60 -> 66         0.12149
      61 -> 66        -0.24827
      61 -> 68        -0.10129
      63 -> 67         0.21192
      64 -> 66         0.48385
      64 -> 67         0.11855
      65 -> 68         0.19087
      65 -> 69        -0.25616

 Excited State   9:      Singlet-A      6.0632 eV  204.49 nm  f=0.0041  <S**2>=0.000
      60 -> 67         0.63501
      64 -> 67        -0.15797
      65 -> 67         0.17848

 Excited State  10:      Singlet-A      6.0772 eV  204.02 nm  f=0.1479  <S**2>=0.000
      60 -> 67         0.15148
      64 -> 66         0.14676
      64 -> 67         0.37005
      64 -> 68         0.30103
      64 -> 69         0.10041
      65 -> 68        -0.22640
      65 -> 69         0.38688

 The electronic state is 1-A.
 Alpha  occ. eigenvalues --  -19.20051 -19.19772 -19.19297 -14.33600 -14.33193
 Alpha  occ. eigenvalues --  -14.32798 -10.32611 -10.32473 -10.32052 -10.25059
 Alpha  occ. eigenvalues --  -10.24338 -10.23901 -10.20203 -10.19565 -10.19517
 Alpha  occ. eigenvalues --  -10.19446 -10.19443 -10.18873  -1.11179  -1.09751
 Alpha  occ. eigenvalues --   -1.09231  -0.99461  -0.89909  -0.89438  -0.85945
 Alpha  occ. eigenvalues --   -0.77868  -0.75240  -0.74133  -0.73212  -0.70053
 Alpha  occ. eigenvalues --   -0.65253  -0.63386  -0.61980  -0.59827  -0.57569
 Alpha  occ. eigenvalues --   -0.56143  -0.52480  -0.50557  -0.50232  -0.48270
 Alpha  occ. eigenvalues --   -0.47835  -0.47475  -0.45198  -0.44089  -0.44067
 Alpha  occ. eigenvalues --   -0.43423  -0.42814  -0.42386  -0.40908  -0.40267
 Alpha  occ. eigenvalues --   -0.38675  -0.38087  -0.37131  -0.36167  -0.36132
 Alpha  occ. eigenvalues --   -0.35435  -0.34907  -0.34572  -0.30278  -0.27941
 Alpha  occ. eigenvalues --   -0.27581  -0.27236  -0.26823  -0.25567  -0.23849
 Alpha virt. eigenvalues --   -0.01558  -0.00874  -0.00402  -0.00074   0.08749
 Alpha virt. eigenvalues --    0.11236   0.11694   0.11894   0.12578   0.12938
 Alpha virt. eigenvalues --    0.13008   0.13845   0.14379   0.15346   0.15864

 Mulliken atomic charges:
              1
     1  C   -0.199038
     2  O   -0.470419
     3  C    0.634054
     4  N   -0.533175
     5  C    0.612688
     6  O   -0.528905
     7  C    0.393024
     8  C   -0.134625
     9  C   -0.197670
    10  C    0.204514
    11  C   -0.197281
    12  C   -0.130326
    13  C   -0.538188
    14  N   -0.521602
    15  C    0.672263
    16  N   -0.543908
    17  O   -0.463590
    18  C   -0.203152
    19  H    0.159016
    20  H    0.154393
    21  H    0.154921
    22  H    0.171492
    23  H    0.149436
    24  H    0.147775
    25  H    0.172076
    26  H    0.173266
    27  H    0.189529
    28  H    0.181401
    29  H    0.157832
    30  H    0.167063
    31  H    0.167134
 Sum of Mulliken atomic charges =  -0.00000

 Dipole moment (field-independent basis, Debye):
    X=              7.4746    Y=              1.9769    Z=             -0.0401  Tot=              7.7317
 Quadrupole moment (field-independent basis, Debye-Ang):
   XX=            -76.1683   YY=           -109.7219   ZZ=            -95.8689
   XY=              1.7597   XZ=             -0.1325   YZ=             -0.2468

 Summary of Natural Population Analysis:

                                       Natural Population
                Natural  -----------------------------------------------
    Atom  No    Charge         Core      Valence    Rydberg      Total
 -----------------------------------------------------------------------
      C    1   -0.31636      1.99942     4.30335    0.01360     6.31636
      O    2   -0.51413      1.99972     6.50226    0.01214     8.51413
      C    3    0.69590      1.99923     3.26877    0.03611     5.30410
      N    4   -0.60994      1.99922     5.59249    0.01823     7.60994
      C    5    0.67949      1.99916     3.28452    0.03683     5.32051
      O    6   -0.50132      1.99965     6.48954    0.01213     8.50132
      C    7    0.40346      1.99871     3.57349    0.02435     5.59654
      C    8   -0.25186      1.99899     4.23524    0.01763     6.25186
      C    9   -0.22818      1.99907     4.21342    0.01569     6.22818
      C   10    0.06082      1.99905     3.92550    0.01463     5.93918
      C   11   -0.24162      1.99907     4.22647    0.01609     6.24162
      C   12   -0.24233      1.99899     4.22597    0.01736     6.24233
      C   13   -0.70337      1.99939     4.69614    0.00784     6.70337
      N   14   -0.59671      1.99924     5.57430    0.02317     7.59671
      C   15    0.76592      1.99921     3.19734    0.03753     5.23408
      N   16   -0.64065      1.99926     5.61942    0.02197     7.64065
      O   17   -0.50699      1.99972     6.49518    0.01209     8.50699
      C   18   -0.31820      1.99941     4.30515    0.01364     6.31820
      H   19    0.21949      0.00000     0.77988    0.00063     0.78051
      H   20    0.20935      0.00000     0.78884    0.00182     0.79065
      H   21    0.20966      0.00000     0.78853    0.00181     0.79034
      H   22    0.26113      0.00000     0.73797    0.00090     0.73887
      H   23    0.24202      0.00000     0.75705    0.00093     0.75798
      H   24    0.24192      0.00000     0.75714    0.00094     0.75808
      H   25    0.26101      0.00000     0.73811    0.00088     0.73899
      H   26    0.24742      0.00000     0.75175    0.00083     0.75258
      H   27    0.26274      0.00000     0.73606    0.00120     0.73726
      H   28    0.25624      0.00000     0.74241    0.00135     0.74376
      H   29    0.21838      0.00000     0.78096    0.00066     0.78162
      H   30    0.21834      0.00000     0.78013    0.00153     0.78166
      H   31    0.21838      0.00000     0.78009    0.00152     0.78162
 =======================================================================
   * Total *    0.00000     35.98650    93.64745    0.36605   130.00000

 Normal termination of Gaussian 09 at Wed Sep 29 01:21:42 2021.
