 Gaussian 09, Revision A.02,

 -----------------------------------
 #p opt b3lyp/6-31G* scf=(xqc,tight)
 -----------------------------------

 ---------------------------------
 COc1ccc(cc1)C(=O)NC(C)(C)C_conf_0
 ---------------------------------
 Symbolic Z-matrix:
 Charge =  0 Multiplicity = 1

 SCF Done:  E(RB3LYP) =  -672.724565862     A.U. after   15 cycles
 SCF Done:  E(RB3LYP) =  -672.728317805     A.U. after   12 cycles
 SCF Done:  E(RB3LYP) =  -672.730260749     A.U. after   13 cycles
 SCF Done:  E(RB3LYP) =  -672.730747034     A.U. after   13 cycles
 SCF Done:  E(RB3LYP) =  -672.731348355     A.U. after   12 cycles
 SCF Done:  E(RB3LYP) =  -672.731568848     A.U. after   12 cycles
 SCF Done:  E(RB3LYP) =  -672.731632488     A.U. after   11 cycles
 SCF Done:  E(RB3LYP) =  -672.731654698     A.U. after   11 cycles
 SCF Done:  E(RB3LYP) =  -672.731659281     A.U. after    8 cycles
 SCF Done:  E(RB3LYP) =  -672.731660076     A.U. after    8 cycles
 SCF Done:  E(RB3LYP) =  -672.731660404     A.U. after    7 cycles
 SCF Done:  E(RB3LYP) =  -672.731660724     A.U. after    7 cycles
 SCF Done:  E(RB3LYP) =  -672.731660838     A.U. after    7 cycles
 Optimization completed.
    -- Stationary point found.
 Normal termination of Gaussian 09 at Thu Sep 30 20:34:22 2021.

 ----------------------------------------------------------------------
 #p freq b3lyp/6-31G* volume NMR pop=NPA density=current Geom=AllCheck
 Guess=Read
 ----------------------------------------------------------------------

 COc1ccc(cc1)C(=O)NC(C)(C)C_conf_0
 ---------------------------------
 Redundant internal coordinates taken from checkpoint file:
 C12H17NO2_0fe3_conf_0.chk
 Charge =  0 Multiplicity = 1

 SCF Done:  E(RB3LYP) =  -672.731660838     A.U. after    1 cycles

  1  C    Isotropic =   137.3298   Anisotropy =    65.4641

  2  O    Isotropic =   231.6615   Anisotropy =    89.0148

  3  C    Isotropic =    37.0064   Anisotropy =   129.8356

  4  C    Isotropic =    79.4741   Anisotropy =   132.4553

  5  C    Isotropic =    70.7665   Anisotropy =   155.4902

  6  C    Isotropic =    67.6258   Anisotropy =   148.4763

  7  C    Isotropic =    63.4261   Anisotropy =   176.0257

  8  C    Isotropic =    86.0356   Anisotropy =   143.1932

  9  C    Isotropic =    33.7627   Anisotropy =    99.4672

 10  O    Isotropic =   -36.5508   Anisotropy =   600.3714

 11  N    Isotropic =   132.9112   Anisotropy =    93.3160

 12  C    Isotropic =   137.4405   Anisotropy =    32.8154

 13  C    Isotropic =   163.9800   Anisotropy =    36.9688

 14  C    Isotropic =   158.3958   Anisotropy =    45.1098

 15  C    Isotropic =   163.7057   Anisotropy =    37.2912

 16  H    Isotropic =    28.2802   Anisotropy =     8.0703

 17  H    Isotropic =    28.6023   Anisotropy =     8.0599

 18  H    Isotropic =    28.6132   Anisotropy =     8.0051

 19  H    Isotropic =    25.5967   Anisotropy =     6.1817

 20  H    Isotropic =    25.0722   Anisotropy =     8.8224

 21  H    Isotropic =    24.1819   Anisotropy =     8.3617

 22  H    Isotropic =    25.7329   Anisotropy =     7.3742

 23  H    Isotropic =    27.5471   Anisotropy =    10.4736

 24  H    Isotropic =    31.3490   Anisotropy =     7.1726

 25  H    Isotropic =    29.3197   Anisotropy =     6.7474

 26  H    Isotropic =    31.2948   Anisotropy =     8.5217

 27  H    Isotropic =    31.1089   Anisotropy =     7.3458

 28  H    Isotropic =    30.9856   Anisotropy =     8.1534

 29  H    Isotropic =    30.8611   Anisotropy =     7.7068

 30  H    Isotropic =    29.2404   Anisotropy =     6.6423

 31  H    Isotropic =    31.1586   Anisotropy =     7.4369

 32  H    Isotropic =    31.2864   Anisotropy =     8.4144

  Exact polarizability: 210.553  -0.527 131.737   3.522  -3.381  83.993
 Approx polarizability: 267.237   7.343 231.225   7.071  -4.627 121.481

                     1                      2                      3
                     A                      A                      A
 Frequencies --    37.7775                42.5571                79.2384
 Red. masses --     3.5182                 3.3788                 3.8103
 Frc consts  --     0.0030                 0.0036                 0.0141
 IR Inten    --     2.2465                 0.3613                 0.8108

                     4                      5                      6
                     A                      A                      A
 Frequencies --    91.9930               119.2047               145.8272
 Red. masses --     3.8041                 4.2091                 4.2511
 Frc consts  --     0.0190                 0.0352                 0.0533
 IR Inten    --     0.2781                 9.1067                 3.1675

                     7                      8                      9
                     A                      A                      A
 Frequencies --   201.7866               210.1430               218.9538
 Red. masses --     3.2473                 3.6375                 1.0680
 Frc consts  --     0.0779                 0.0946                 0.0302
 IR Inten    --     9.0009                 0.2715                 0.7284

                    10                     11                     12
                     A                      A                      A
 Frequencies --   238.8281               267.8866               277.0876
 Red. masses --     1.2242                 1.0643                 1.0568
 Frc consts  --     0.0411                 0.0450                 0.0478
 IR Inten    --     1.1548                 0.1275                 0.0901

                    13                     14                     15
                     A                      A                      A
 Frequencies --   301.6976               311.8304               334.3022
 Red. masses --     3.0654                 3.3211                 3.8080
 Frc consts  --     0.1644                 0.1903                 0.2507
 IR Inten    --     3.4921                 0.2719                 8.3192

                    16                     17                     18
                     A                      A                      A
 Frequencies --   352.7765               386.1190               427.5315
 Red. masses --     2.5674                 3.7898                 3.1510
 Frc consts  --     0.1883                 0.3329                 0.3393
 IR Inten    --     2.4836                 0.9619                 0.7615

                    19                     20                     21
                     A                      A                      A
 Frequencies --   429.7393               439.7616               472.3041
 Red. masses --     3.0482                 1.5539                 2.4223
 Frc consts  --     0.3317                 0.1771                 0.3184
 IR Inten    --     0.6218                54.7144                 1.4103

                    22                     23                     24
                     A                      A                      A
 Frequencies --   488.0270               516.6604               542.8870
 Red. masses --     2.7092                 2.8053                 3.0788
 Frc consts  --     0.3802                 0.4412                 0.5346
 IR Inten    --    14.4406                 4.9268                 1.9258

                    25                     26                     27
                     A                      A                      A
 Frequencies --   616.3260               649.3311               702.7547
 Red. masses --     5.6640                 6.8640                 3.9333
 Frc consts  --     1.2676                 1.7051                 1.1445
 IR Inten    --    23.3750                 3.9766                 7.2443

                    28                     29                     30
                     A                      A                      A
 Frequencies --   764.9240               771.6121               811.4643
 Red. masses --     3.8251                 5.1853                 5.1631
 Frc consts  --     1.3186                 1.8190                 2.0031
 IR Inten    --     1.7783                23.0123                 3.2684

                    31                     32                     33
                     A                      A                      A
 Frequencies --   833.6088               856.1579               891.8288
 Red. masses --     1.2471                 1.8255                 5.9172
 Frc consts  --     0.5106                 0.7884                 2.7729
 IR Inten    --     0.5527                33.6226                18.8306

                    34                     35                     36
                     A                      A                      A
 Frequencies --   931.3719               937.3545               945.5564
 Red. masses --     1.8305                 2.1022                 1.6986
 Frc consts  --     0.9355                 1.0883                 0.8948
 IR Inten    --     0.0652                 3.2182                 1.3241

                    37                     38                     39
                     A                      A                      A
 Frequencies --   960.8089               978.7777               979.0820
 Red. masses --     1.3457                 1.2418                 1.2807
 Frc consts  --     0.7319                 0.7009                 0.7233
 IR Inten    --     0.3352                 1.3020                 0.6076

                    40                     41                     42
                     A                      A                      A
 Frequencies --  1030.3525              1067.6323              1075.3720
 Red. masses --     2.7878                 1.3851                 2.8293
 Frc consts  --     1.7437                 0.9302                 1.9277
 IR Inten    --     0.7399                 0.6410                36.3789

                    43                     44                     45
                     A                      A                      A
 Frequencies --  1077.1700              1145.5206              1161.2750
 Red. masses --     2.0802                 1.3132                 2.9306
 Frc consts  --     1.4221                 1.0153                 2.3285
 IR Inten    --    22.4823                10.6951                 1.2281

                    46                     47                     48
                     A                      A                      A
 Frequencies --  1185.0566              1207.4464              1218.8989
 Red. masses --     1.2696                 1.2000                 1.3895
 Frc consts  --     1.0505                 1.0307                 1.2163
 IR Inten    --     0.7325               123.8031                15.0913

                    49                     50                     51
                     A                      A                      A
 Frequencies --  1248.0144              1264.2402              1269.1909
 Red. masses --     2.1149                 2.6766                 2.7025
 Frc consts  --     1.9408                 2.5206                 2.5649
 IR Inten    --   111.8282                19.1521                53.1634

                    52                     53                     54
                     A                      A                      A
 Frequencies --  1303.2067              1319.2522              1342.2821
 Red. masses --     4.8714                 2.9236                 1.3147
 Frc consts  --     4.8745                 2.9980                 1.3956
 IR Inten    --   424.5670                24.8074                 0.9859

                    55                     56                     57
                     A                      A                      A
 Frequencies --  1364.0273              1419.9477              1424.6587
 Red. masses --     8.7761                 1.2457                 1.2526
 Frc consts  --     9.6206                 1.4798                 1.4979
 IR Inten    --    64.2676                11.6748                18.7971

                    58                     59                     60
                     A                      A                      A
 Frequencies --  1452.4338              1461.1633              1499.8423
 Red. masses --     1.2421                 3.0952                 1.2045
 Frc consts  --     1.5438                 3.8934                 1.5964
 IR Inten    --    31.9611                 1.4539                39.8534

                    61                     62                     63
                     A                      A                      A
 Frequencies --  1503.2964              1516.8887              1520.2696
 Red. masses --     1.0480                 1.1871                 1.0509
 Frc consts  --     1.3954                 1.6093                 1.4311
 IR Inten    --     1.1397               115.6825                 4.2045

                    64                     65                     66
                     A                      A                      A
 Frequencies --  1521.4571              1524.5612              1533.7485
 Red. masses --     1.0478                 1.0483                 1.0706
 Frc consts  --     1.4291                 1.4355                 1.4838
 IR Inten    --     5.7877                 1.8128                71.2468

                    67                     68                     69
                     A                      A                      A
 Frequencies --  1535.9593              1549.8316              1556.4234
 Red. masses --     1.0645                 1.5133                 1.0842
 Frc consts  --     1.4797                 2.1417                 1.5475
 IR Inten    --     8.4685               269.8298                 4.3241

                    70                     71                     72
                     A                      A                      A
 Frequencies --  1570.2581              1626.2233              1668.1975
 Red. masses --     2.2285                 6.7915                 5.6797
 Frc consts  --     3.2375                10.5823                 9.3125
 IR Inten    --    28.6383                 1.1159               165.3164

                    73                     74                     75
                     A                      A                      A
 Frequencies --  1746.0838              3030.4198              3039.7902
 Red. masses --     9.3012                 1.0344                 1.0378
 Frc consts  --    16.7077                 5.5970                 5.6503
 IR Inten    --   177.3051                58.1421                18.6657

                    76                     77                     78
                     A                      A                      A
 Frequencies --  3049.2687              3057.6882              3091.3803
 Red. masses --     1.0379                 1.0391                 1.1069
 Frc consts  --     5.6861                 5.7237                 6.2327
 IR Inten    --    32.4841                26.0103                40.0255

                    79                     80                     81
                     A                      A                      A
 Frequencies --  3103.0516              3111.0145              3117.6408
 Red. masses --     1.1015                 1.1024                 1.1023
 Frc consts  --     6.2489                 6.2862                 6.3126
 IR Inten    --    16.3706                43.4428                24.8322

                    82                     83                     84
                     A                      A                      A
 Frequencies --  3130.9366              3158.6054              3160.8739
 Red. masses --     1.1005                 1.0997                 1.1003
 Frc consts  --     6.3562                 6.4642                 6.4768
 IR Inten    --    49.7179                 5.1939                26.0680

                    85                     86                     87
                     A                      A                      A
 Frequencies --  3167.6860              3186.3993              3216.8551
 Red. masses --     1.0991                 1.0882                 1.0927
 Frc consts  --     6.4981                 6.5095                 6.6620
 IR Inten    --     8.1317                14.7877                 7.6900

                    88                     89                     90
                     A                      A                      A
 Frequencies --  3219.2081              3232.8006              3619.6642
 Red. masses --     1.0879                 1.0932                 1.0766
 Frc consts  --     6.6427                 6.7314                 8.3105
 IR Inten    --     2.9065                10.2835                11.4237

 - Thermochemistry -
 -------------------
 Temperature   298.150 Kelvin.  Pressure   1.00000 Atm.
 Atom     1 has atomic number  6 and mass  12.00000

 Molecular mass:   207.12593 amu.
 Principal axes and moments of inertia in atomic units:
                           1         2         3
     Eigenvalues --   998.535117510.223038041.32214
           X            0.99994  -0.01093  -0.00011
           Y            0.01093   0.99984  -0.01437
           Z            0.00027   0.01437   0.99990
 This molecule is an asymmetric top.
 Rotational symmetry number  1.
 Warning -- assumption of classical behavior for rotation
           may cause significant error
 Rotational temperatures (Kelvin)      0.08674     0.01153     0.01077
 Rotational constants (GHZ):           1.80739     0.24030     0.22443
 Zero-point vibrational energy     718772.3 (Joules/Mol)
                                  171.79070 (Kcal/Mol)
 Warning -- explicit consideration of  25 degrees of freedom as
           vibrations may cause significant error
 Vibrational temperatures:     54.35    61.23   114.01   132.36   171.51
          (Kelvin)            209.81   290.33   302.35   315.03   343.62
                              385.43   398.67   434.07   448.65   480.99
                              507.57   555.54   615.12   618.30   632.72
                              679.54   702.16   743.36   781.09   886.75
                              934.24  1011.11  1100.55  1110.18  1167.51
                             1199.38  1231.82  1283.14  1340.03  1348.64
                             1360.44  1382.39  1408.24  1408.68  1482.45
                             1536.08  1547.22  1549.81  1648.15  1670.81
                             1705.03  1737.24  1753.72  1795.61  1818.96
                             1826.08  1875.02  1898.11  1931.24  1962.53
                             2042.99  2049.76  2089.73  2102.29  2157.94
                             2162.91  2182.46  2187.33  2189.03  2193.50
                             2206.72  2209.90  2229.86  2239.34  2259.25
                             2339.77  2400.16  2512.22  4360.09  4373.57
                             4387.21  4399.33  4447.80  4464.59  4476.05
                             4485.58  4504.71  4544.52  4547.79  4557.59
                             4584.51  4628.33  4631.72  4651.27  5207.88

 Zero-point correction=                           0.273766 (Hartree/Particle)
 Thermal correction to Energy=                    0.289304
 Thermal correction to Enthalpy=                  0.290248
 Thermal correction to Gibbs Free Energy=         0.231105
 Sum of electronic and zero-point Energies=           -672.457895
 Sum of electronic and thermal Energies=              -672.442357
 Sum of electronic and thermal Enthalpies=            -672.441412
 Sum of electronic and thermal Free Energies=         -672.500556

                     E (Thermal)             CV                S
                      KCal/Mol        Cal/Mol-Kelvin    Cal/Mol-Kelvin
 Total                  181.541             59.189            124.477
 Electronic               0.000              0.000              0.000
 Translational            0.889              2.981             41.889
 Rotational               0.889              2.981             32.467
 Vibrational            179.764             53.228             50.122
 Vibration     1          0.594              1.982              5.372
 Vibration     2          0.595              1.980              5.136
 Vibration     3          0.600              1.963              3.910
 Vibration     4          0.602              1.955              3.617
 Vibration     5          0.609              1.933              3.113
 Vibration     6          0.617              1.907              2.726
 Vibration     7          0.639              1.837              2.117
 Vibration     8          0.642              1.825              2.042
 Vibration     9          0.647              1.812              1.968
 Vibration    10          0.657              1.781              1.812
 Vibration    11          0.673              1.732              1.610
 Vibration    12          0.678              1.716              1.552
 Vibration    13          0.694              1.670              1.407
 Vibration    14          0.700              1.651              1.353
 Vibration    15          0.716              1.607              1.239
 Vibration    16          0.729              1.570              1.154
 Vibration    17          0.755              1.500              1.015
 Vibration    18          0.789              1.410              0.867
 Vibration    19          0.791              1.405              0.860
 Vibration    20          0.800              1.383              0.827
 Vibration    21          0.829              1.311              0.731
 Vibration    22          0.844              1.277              0.689
 Vibration    23          0.872              1.213              0.618
 Vibration    24          0.898              1.155              0.559
 Vibration    25          0.976              0.997              0.422

 Optimization completed.
    -- Stationary point found.
 Normal termination of Gaussian 09 at Thu Sep 30 21:28:21 2021.
 Gaussian 09:  AM64L-G09RevA.02 11-Jun-2009

 ----------------------------------------------------------------------
 #p TD(NStates=10, Root=1) b3lyp/6-31G* volume pop=NPA density=current
 Geom=AllCheck Guess=Read
 ----------------------------------------------------------------------

 COc1ccc(cc1)C(=O)NC(C)(C)C_conf_0
 ---------------------------------
 Redundant internal coordinates taken from checkpoint file:
 C12H17NO2_0fe3_conf_0.chk
 Charge =  0 Multiplicity = 1

                         Standard orientation:
 ---------------------------------------------------------------------
 Center     Atomic      Atomic             Coordinates (Angstroms)
 Number     Number       Type             X           Y           Z
 ---------------------------------------------------------------------
      1          6           0        5.479175   -0.249101    0.227422
      2          8           0        4.488145    0.748686    0.029213
      3          6           0        3.182095    0.364848   -0.013101
      4          6           0        2.253107    1.394176   -0.231153
      5          6           0        0.896360    1.107482   -0.285571
      6          6           0        0.428019   -0.207930   -0.124136
      7          6           0        1.366774   -1.225799    0.070894
      8          6           0        2.731979   -0.954141    0.135123
      9          6           0       -1.021752   -0.601387   -0.177269
     10          8           0       -1.356481   -1.761513   -0.420312
     11          7           0       -1.920059    0.405359    0.057749
     12          6           0       -3.392336    0.247356    0.110970
     13          6           0       -3.788441   -0.727957    1.236585
     14          6           0       -3.964786    1.644125    0.399775
     15          6           0       -3.909637   -0.255500   -1.248779
     16          1           0        6.435958    0.275892    0.221378
     17          1           0        5.468065   -0.993424   -0.579193
     18          1           0        5.350912   -0.758569    1.191267
     19          1           0        2.622486    2.405768   -0.366869
     20          1           0        0.202820    1.917908   -0.494427
     21          1           0        1.004077   -2.243747    0.169458
     22          1           0        3.430194   -1.767533    0.296028
     23          1           0       -1.552581    1.254397    0.463176
     24          1           0       -3.439984   -0.358691    2.208369
     25          1           0       -3.347501   -1.710887    1.057967
     26          1           0       -4.878772   -0.833022    1.282693
     27          1           0       -3.607740    2.030694    1.363436
     28          1           0       -5.057585    1.602158    0.445073
     29          1           0       -3.684886    2.356309   -0.385632
     30          1           0       -3.483916   -1.233119   -1.481570
     31          1           0       -3.635572    0.444620   -2.045878
     32          1           0       -5.002215   -0.340683   -1.225289
 ---------------------------------------------------------------------

 SCF Done:  E(RB3LYP) =  -672.731660838     A.U. after    1 cycles

 Excitation energies and oscillator strengths:

 Excited State   1:      Singlet-A      4.6324 eV  267.65 nm  f=0.0104  <S**2>=0.000
      54 -> 57        -0.28785
      55 -> 57         0.56627
      56 -> 57         0.27378
 This state for optimization and/or second-order correction.
 Total Energy, E(TD-HF/TD-KS) =  -672.561424223
 Copying the excited state density for this state as the 1-particle RhoCI density.

 Excited State   2:      Singlet-A      5.0156 eV  247.20 nm  f=0.0175  <S**2>=0.000
      53 -> 57         0.37663
      54 -> 57         0.10966
      56 -> 57         0.11967
      56 -> 58         0.56560

 Excited State   3:      Singlet-A      5.1704 eV  239.80 nm  f=0.4067  <S**2>=0.000
      53 -> 58        -0.12115
      55 -> 57        -0.29959
      55 -> 58        -0.11501
      56 -> 57         0.59441
      56 -> 58        -0.12892

 Excited State   4:      Singlet-A      5.4824 eV  226.15 nm  f=0.0273  <S**2>=0.000
      54 -> 57        -0.17136
      54 -> 58        -0.15282
      55 -> 57        -0.10232
      55 -> 58         0.64531

 Excited State   5:      Singlet-A      5.6077 eV  221.10 nm  f=0.0084  <S**2>=0.000
      54 -> 57         0.60022
      55 -> 57         0.24456
      55 -> 58         0.17392
      56 -> 57         0.14378

 Excited State   6:      Singlet-A      5.8136 eV  213.26 nm  f=0.0173  <S**2>=0.000
      53 -> 58        -0.12107
      54 -> 58         0.67067
      55 -> 58         0.15362

 Excited State   7:      Singlet-A      6.2521 eV  198.31 nm  f=0.1706  <S**2>=0.000
      52 -> 58        -0.12081
      53 -> 57         0.55825
      54 -> 58        -0.10611
      55 -> 58         0.10129
      56 -> 58        -0.35783

 Excited State   8:      Singlet-A      6.7748 eV  183.01 nm  f=0.4807  <S**2>=0.000
      53 -> 58         0.61898
      56 -> 57         0.11407
      56 -> 59        -0.23081
      56 -> 60        -0.12997

 Excited State   9:      Singlet-A      7.0578 eV  175.67 nm  f=0.0816  <S**2>=0.000
      53 -> 58         0.15617
      54 -> 59        -0.15634
      54 -> 60        -0.13825
      55 -> 59         0.45929
      55 -> 60         0.32970
      56 -> 59         0.24613
      56 -> 60         0.13209

 Excited State  10:      Singlet-A      7.2567 eV  170.86 nm  f=0.0138  <S**2>=0.000
      51 -> 57         0.32533
      55 -> 59        -0.12295
      56 -> 59         0.44654
      56 -> 60        -0.33609
      56 -> 61        -0.15965
      56 -> 62         0.11684

 The electronic state is 1-A.
 Alpha  occ. eigenvalues --  -19.18493 -19.10054 -14.34878 -10.27826 -10.25492
 Alpha  occ. eigenvalues --  -10.24621 -10.23284 -10.19998 -10.19251 -10.19182
 Alpha  occ. eigenvalues --  -10.19153 -10.19040 -10.18294 -10.16577 -10.16430
 Alpha  occ. eigenvalues --   -1.07083  -1.01852  -0.91510  -0.85545  -0.79269
 Alpha  occ. eigenvalues --   -0.76150  -0.74985  -0.70518  -0.69105  -0.67966
 Alpha  occ. eigenvalues --   -0.62736  -0.61310  -0.58113  -0.55268  -0.54008
 Alpha  occ. eigenvalues --   -0.51414  -0.48561  -0.47388  -0.46564  -0.45202
 Alpha  occ. eigenvalues --   -0.44478  -0.43181  -0.42531  -0.42074  -0.40928
 Alpha  occ. eigenvalues --   -0.40870  -0.38969  -0.38330  -0.38298  -0.36812
 Alpha  occ. eigenvalues --   -0.36333  -0.36172  -0.35722  -0.33590  -0.33087
 Alpha  occ. eigenvalues --   -0.32922  -0.31658  -0.25695  -0.24711  -0.23728
 Alpha  occ. eigenvalues --   -0.22218
 Alpha virt. eigenvalues --   -0.02058  -0.00561   0.06955   0.07537   0.09370
 Alpha virt. eigenvalues --    0.10323   0.11939   0.12644   0.13382   0.14594
 Alpha virt. eigenvalues --    0.15062   0.15552   0.15855   0.16240   0.16969

 Mulliken atomic charges:
              1
     1  C   -0.207069
     2  O   -0.512524
     3  C    0.341170
     4  C   -0.171819
     5  C   -0.218354
     6  C    0.065977
     7  C   -0.205643
     8  C   -0.198003
     9  C    0.549805
    10  O   -0.346067
    11  N   -0.633262
    12  C    0.215001
    13  C   -0.441382
    14  C   -0.480731
    15  C   -0.446230
    16  H    0.161107
    17  H    0.145348
    18  H    0.144686
    19  H    0.127102
    20  H    0.103524
    21  H    0.126989
    22  H    0.120259
    23  H    0.347094
    24  H    0.149541
    25  H    0.168579
    26  H    0.145878
    27  H    0.150434
    28  H    0.162584
    29  H    0.159463
    30  H    0.172920
    31  H    0.156600
    32  H    0.147024
 Sum of Mulliken atomic charges =  -0.00000

 Dipole moment (field-independent basis, Debye):
    X=             -3.2703    Y=              0.5840    Z=              0.9401  Tot=              3.4525
 Quadrupole moment (field-independent basis, Debye-Ang):
   XX=            -73.1585   YY=            -88.5117   ZZ=            -92.5644
   XY=             -8.9362   XZ=              0.0821   YZ=             -0.4485

 Summary of Natural Population Analysis:

                                       Natural Population
                Natural  -----------------------------------------------
    Atom  No    Charge         Core      Valence    Rydberg      Total
 -----------------------------------------------------------------------
      C    1   -0.31356      1.99944     4.30028    0.01384     6.31356
      O    2   -0.52547      1.99974     6.51385    0.01188     8.52547
      C    3    0.25924      1.99880     3.71907    0.02289     5.74076
      C    4   -0.25604      1.99903     4.24214    0.01486     6.25604
      C    5   -0.26486      1.99904     4.25158    0.01423     6.26486
      C    6   -0.20851      1.99888     4.19355    0.01609     6.20851
      C    7   -0.22784      1.99907     4.21383    0.01494     6.22784
      C    8   -0.31229      1.99903     4.30081    0.01245     6.31229
      C    9    0.54750      1.99927     3.41858    0.03466     5.45250
      O   10   -0.28097      1.99981     6.26433    0.01682     8.28097
      N   11   -0.64239      1.99934     5.63117    0.01188     7.64239
      C   12    0.13502      1.99914     3.84945    0.01639     5.86498
      C   13   -0.68420      1.99935     4.67535    0.00951     6.68420
      C   14   -0.68377      1.99935     4.67445    0.00998     6.68377
      C   15   -0.68314      1.99935     4.67394    0.00985     6.68314
      H   16    0.22316      0.00000     0.77628    0.00056     0.77684
      H   17    0.19792      0.00000     0.79983    0.00225     0.80208
      H   18    0.19756      0.00000     0.80022    0.00222     0.80244
      H   19    0.24200      0.00000     0.75674    0.00126     0.75800
      H   20    0.21988      0.00000     0.77899    0.00112     0.78012
      H   21    0.23357      0.00000     0.76589    0.00054     0.76643
      H   22    0.23342      0.00000     0.76571    0.00087     0.76658
      H   23    0.43195      0.00000     0.56581    0.00224     0.56805
      H   24    0.23669      0.00000     0.76227    0.00104     0.76331
      H   25    0.24418      0.00000     0.75432    0.00150     0.75582
      H   26    0.23532      0.00000     0.76374    0.00094     0.76468
      H   27    0.23375      0.00000     0.76506    0.00119     0.76625
      H   28    0.24764      0.00000     0.75176    0.00060     0.75236
      H   29    0.24025      0.00000     0.75858    0.00117     0.75975
      H   30    0.24647      0.00000     0.75253    0.00100     0.75353
      H   31    0.24103      0.00000     0.75792    0.00105     0.75897
      H   32    0.23647      0.00000     0.76274    0.00079     0.76353
 =======================================================================
   * Total *   -0.00003     29.98864    81.76076    0.25063   112.00003

 Normal termination of Gaussian 09 at Fri Oct  1 02:09:26 2021.
