 Gaussian 09, Revision A.02,

 -----------------------------------
 #p opt b3lyp/6-31G* scf=(xqc,tight)
 -----------------------------------

 --------------------------------------
 CCN(C(=O)Oc1cccc(c1)C(F)(F)F)CC_conf_0
 --------------------------------------
 Symbolic Z-matrix:
 Charge =  0 Multiplicity = 1

 SCF Done:  E(RB3LYP) =  -970.455868616     A.U. after   15 cycles
 SCF Done:  E(RB3LYP) =  -970.460948901     A.U. after   13 cycles
 SCF Done:  E(RB3LYP) =  -970.461263443     A.U. after   12 cycles
 SCF Done:  E(RB3LYP) =  -970.462157398     A.U. after   12 cycles
 SCF Done:  E(RB3LYP) =  -970.462720849     A.U. after   12 cycles
 SCF Done:  E(RB3LYP) =  -970.462793303     A.U. after   11 cycles
 SCF Done:  E(RB3LYP) =  -970.462811914     A.U. after   10 cycles
 SCF Done:  E(RB3LYP) =  -970.462831543     A.U. after   10 cycles
 SCF Done:  E(RB3LYP) =  -970.462855375     A.U. after   11 cycles
 SCF Done:  E(RB3LYP) =  -970.462860351     A.U. after    9 cycles
 SCF Done:  E(RB3LYP) =  -970.462862399     A.U. after    9 cycles
 SCF Done:  E(RB3LYP) =  -970.462862946     A.U. after    7 cycles
 SCF Done:  E(RB3LYP) =  -970.462863203     A.U. after    7 cycles
 SCF Done:  E(RB3LYP) =  -970.462863354     A.U. after    7 cycles
 SCF Done:  E(RB3LYP) =  -970.462863443     A.U. after    7 cycles
 Optimization completed.
    -- Stationary point found.
 Normal termination of Gaussian 09 at Thu Sep 30 04:25:40 2021.

 ----------------------------------------------------------------------
 #p freq b3lyp/6-31G* volume NMR pop=NPA density=current Geom=AllCheck
 Guess=Read
 ----------------------------------------------------------------------

 CCN(C(=O)Oc1cccc(c1)C(F)(F)F)CC_conf_0
 --------------------------------------
 Redundant internal coordinates taken from checkpoint file:
 C12H14F3NO2_bf8f_conf_0.chk
 Charge =  0 Multiplicity = 1

 SCF Done:  E(RB3LYP) =  -970.462863443     A.U. after    1 cycles

  1  C    Isotropic =   171.9971   Anisotropy =    24.4381

  2  C    Isotropic =   142.5254   Anisotropy =    47.6761

  3  N    Isotropic =   156.9307   Anisotropy =    65.2805

  4  C    Isotropic =    47.2725   Anisotropy =    80.7631

  5  O    Isotropic =    59.5589   Anisotropy =   391.1338

  6  O    Isotropic =   141.7237   Anisotropy =   122.0371

  7  C    Isotropic =    44.1428   Anisotropy =   112.8646

  8  C    Isotropic =    73.3942   Anisotropy =   143.7537

  9  C    Isotropic =    68.0053   Anisotropy =   164.9196

 10  C    Isotropic =    74.8515   Anisotropy =   162.6628

 11  C    Isotropic =    62.1360   Anisotropy =   146.4923

 12  C    Isotropic =    73.5060   Anisotropy =   156.9517

 13  C    Isotropic =    63.1848   Anisotropy =    12.8944

 14  F    Isotropic =   283.2828   Anisotropy =   117.7110

 15  F    Isotropic =   256.7149   Anisotropy =   125.4415

 16  F    Isotropic =   254.2512   Anisotropy =   128.6570

 17  C    Isotropic =   141.2166   Anisotropy =    49.8894

 18  C    Isotropic =   173.3265   Anisotropy =    22.9875

 19  H    Isotropic =    31.2608   Anisotropy =    10.2355

 20  H    Isotropic =    30.8512   Anisotropy =     6.6644

 21  H    Isotropic =    30.6285   Anisotropy =     5.1636

 22  H    Isotropic =    29.4402   Anisotropy =     6.7285

 23  H    Isotropic =    28.1674   Anisotropy =     6.0414

 24  H    Isotropic =    25.3118   Anisotropy =     6.9579

 25  H    Isotropic =    24.9339   Anisotropy =     4.4244

 26  H    Isotropic =    24.9688   Anisotropy =     7.3191

 27  H    Isotropic =    24.4022   Anisotropy =    12.6305

 28  H    Isotropic =    29.6092   Anisotropy =     6.6661

 29  H    Isotropic =    28.1582   Anisotropy =     6.4525

 30  H    Isotropic =    31.0001   Anisotropy =     6.2440

 31  H    Isotropic =    31.2828   Anisotropy =    10.4325

 32  H    Isotropic =    30.2973   Anisotropy =     6.2695

  Exact polarizability: 181.446  -7.829 141.994   4.011  -2.828  88.766
 Approx polarizability: 245.923   0.035 221.598   6.443  -5.723 131.342

 ******    1 imaginary frequencies (negative Signs) ******

                     1                      2                      3
                     A                      A                      A
 Frequencies --   -10.8167                20.9985                35.0933
 Red. masses --    14.2952                 4.4320                 4.5413
 Frc consts  --     0.0010                 0.0012                 0.0033
 IR Inten    --     0.0269                 0.4042                 0.8245

                     4                      5                      6
                     A                      A                      A
 Frequencies --    40.8483                76.5093                84.4323
 Red. masses --     2.9584                 4.0108                 2.7881
 Frc consts  --     0.0029                 0.0138                 0.0117
 IR Inten    --     0.0903                 0.8032                 0.2954

                     7                      8                      9
                     A                      A                      A
 Frequencies --   103.4965               130.1528               139.2258
 Red. masses --     7.0574                 5.1056                 5.1859
 Frc consts  --     0.0445                 0.0510                 0.0592
 IR Inten    --     1.5744                 0.2681                 0.1646

                    10                     11                     12
                     A                      A                      A
 Frequencies --   169.6942               215.7992               229.8267
 Red. masses --     3.4140                 2.2749                 1.1617
 Frc consts  --     0.0579                 0.0624                 0.0362
 IR Inten    --     1.3472                 2.2980                 0.2698

                    13                     14                     15
                     A                      A                      A
 Frequencies --   260.2559               261.9319               310.1890
 Red. masses --     1.7522                 3.8192                 2.9840
 Frc consts  --     0.0699                 0.1544                 0.1692
 IR Inten    --     0.2372                 1.0350                 3.6389

                    16                     17                     18
                     A                      A                      A
 Frequencies --   326.5180               337.6454               364.7018
 Red. masses --     6.1975                 7.9714                 8.8834
 Frc consts  --     0.3893                 0.5354                 0.6962
 IR Inten    --     0.5806                 5.0363                 5.6008

                    19                     20                     21
                     A                      A                      A
 Frequencies --   404.2461               426.6941               444.5810
 Red. masses --     2.7925                 5.6410                 3.3481
 Frc consts  --     0.2689                 0.6051                 0.3899
 IR Inten    --    10.4794                 0.4531                 2.6980

                    22                     23                     24
                     A                      A                      A
 Frequencies --   464.0543               491.4245               517.6151
 Red. masses --     3.8466                 3.3098                 7.8297
 Frc consts  --     0.4881                 0.4709                 1.2360
 IR Inten    --     0.7762                 4.0188                 1.7564

                    25                     26                     27
                     A                      A                      A
 Frequencies --   578.0362               609.3303               626.1019
 Red. masses --    11.0663                 5.0655                 5.9167
 Frc consts  --     2.1785                 1.1081                 1.3665
 IR Inten    --     0.8646                 6.0435                 0.4108

                    28                     29                     30
                     A                      A                      A
 Frequencies --   655.4053               669.0509               706.3050
 Red. masses --     4.8045                 8.1474                 2.5019
 Frc consts  --     1.2160                 2.1488                 0.7354
 IR Inten    --     8.7554                16.3559                10.7194

                    31                     32                     33
                     A                      A                      A
 Frequencies --   747.3782               758.4543               782.0123
 Red. masses --    11.0326                 8.6598                 1.5793
 Frc consts  --     3.6308                 2.9350                 0.5690
 IR Inten    --    20.7026                 7.5988                17.1417

                    34                     35                     36
                     A                      A                      A
 Frequencies --   789.6480               808.5220               833.3763
 Red. masses --     1.1695                 1.4552                 2.1418
 Frc consts  --     0.4297                 0.5605                 0.8764
 IR Inten    --     3.0392                25.6720                 7.1660

                    37                     38                     39
                     A                      A                      A
 Frequencies --   884.7997               900.8667               926.1621
 Red. masses --     1.6034                 4.1865                 1.4247
 Frc consts  --     0.7396                 2.0018                 0.7200
 IR Inten    --    13.7428                18.7323                 0.6924

                    40                     41                     42
                     A                      A                      A
 Frequencies --   952.0768               979.2976               980.8615
 Red. masses --     2.3373                 1.5826                 2.0349
 Frc consts  --     1.2483                 0.8942                 1.1535
 IR Inten    --     6.3751                35.1045                69.2563

                    43                     44                     45
                     A                      A                      A
 Frequencies --  1020.5798              1062.9003              1095.9822
 Red. masses --     6.2170                 3.3260                 2.3188
 Frc consts  --     3.8153                 2.2139                 1.6410
 IR Inten    --     2.0084                42.5860                51.8210

                    46                     47                     48
                     A                      A                      A
 Frequencies --  1103.8615              1121.1724              1123.0896
 Red. masses --     1.9517                 1.7452                 1.6480
 Frc consts  --     1.4012                 1.2925                 1.2247
 IR Inten    --     4.3224                46.0551                12.3149

                    49                     50                     51
                     A                      A                      A
 Frequencies --  1124.8330              1186.6096              1187.2241
 Red. masses --     1.6487                 9.5755                 2.3948
 Frc consts  --     1.2291                 7.9438                 1.9888
 IR Inten    --    26.9378               234.7843               194.7156

                    52                     53                     54
                     A                      A                      A
 Frequencies --  1197.9069              1214.2924              1242.3346
 Red. masses --     1.1581                 7.0847                 3.8204
 Frc consts  --     0.9791                 6.1549                 3.4740
 IR Inten    --    27.7078               151.0093               370.0050

                    55                     56                     57
                     A                      A                      A
 Frequencies --  1262.5386              1309.1941              1330.1613
 Red. masses --     2.7157                 1.8948                 1.6289
 Frc consts  --     2.5505                 1.9135                 1.6980
 IR Inten    --     9.1437               501.5796                10.3621

                    58                     59                     60
                     A                      A                      A
 Frequencies --  1350.1652              1365.0453              1372.0010
 Red. masses --     2.8234                 1.4507                 4.3509
 Frc consts  --     3.0325                 1.5927                 4.8254
 IR Inten    --   233.4563                42.9815                36.4822

                    61                     62                     63
                     A                      A                      A
 Frequencies --  1402.7365              1419.8551              1435.6344
 Red. masses --     1.2325                 1.3301                 1.2709
 Frc consts  --     1.4288                 1.5799                 1.5433
 IR Inten    --     8.8844                36.4578                21.2589

                    64                     65                     66
                     A                      A                      A
 Frequencies --  1440.1346              1457.9279              1486.8181
 Red. masses --     1.3121                 1.8234                 3.3864
 Frc consts  --     1.6034                 2.2836                 4.4107
 IR Inten    --    59.1997               206.2372                36.0202

                    67                     68                     69
                     A                      A                      A
 Frequencies --  1505.6619              1517.1017              1523.3143
 Red. masses --     1.0682                 1.0489                 1.1143
 Frc consts  --     1.4268                 1.4223                 1.5234
 IR Inten    --     5.8097                 1.0218                25.7840

                    70                     71                     72
                     A                      A                      A
 Frequencies --  1527.2297              1532.4839              1540.6150
 Red. masses --     1.0513                 1.0618                 1.2575
 Frc consts  --     1.4448                 1.4691                 1.7585
 IR Inten    --    18.0902                 9.3588                25.6652

                    73                     74                     75
                     A                      A                      A
 Frequencies --  1543.4562              1656.5848              1666.4900
 Red. masses --     1.9323                 6.3067                 5.9777
 Frc consts  --     2.7122                10.1972                 9.7811
 IR Inten    --    11.6117                18.4673                 7.4096

                    76                     77                     78
                     A                      A                      A
 Frequencies --  1813.0159              3056.6851              3059.0347
 Red. masses --    11.4006                 1.0361                 1.0364
 Frc consts  --    22.0791                 5.7037                 5.7142
 IR Inten    --   375.5988                 9.2335                31.3227

                    79                     80                     81
                     A                      A                      A
 Frequencies --  3071.4962              3079.3575              3116.2762
 Red. masses --     1.0648                 1.0635                 1.1028
 Frc consts  --     5.9186                 5.9418                 6.3101
 IR Inten    --     2.4708                57.9795                16.8637

                    82                     83                     84
                     A                      A                      A
 Frequencies --  3121.5056              3129.4136              3131.1877
 Red. masses --     1.1025                 1.0991                 1.0990
 Frc consts  --     6.3294                 6.3420                 6.3482
 IR Inten    --     9.3433                39.3118                17.3837

                    85                     86                     87
                     A                      A                      A
 Frequencies --  3146.0287              3150.5222              3202.1078
 Red. masses --     1.1040                 1.1047                 1.0879
 Frc consts  --     6.4380                 6.4605                 6.5720
 IR Inten    --    15.8034                47.0413                 8.5470

                    88                     89                     90
                     A                      A                      A
 Frequencies --  3220.9882              3237.8386              3261.2807
 Red. masses --     1.0937                 1.0932                 1.0919
 Frc consts  --     6.6853                 6.7525                 6.8423
 IR Inten    --     7.2138                 3.6390                 0.4753

 - Thermochemistry -
 -------------------
 Temperature   298.150 Kelvin.  Pressure   1.00000 Atm.
 Atom     1 has atomic number  6 and mass  12.00000

 Molecular mass:   261.09766 amu.
 Principal axes and moments of inertia in atomic units:
                           1         2         3
     Eigenvalues --  2420.040678880.92550**********
           X            0.99962  -0.02482   0.01161
           Y            0.02469   0.99964   0.01085
           Z           -0.01188  -0.01056   0.99987
 This molecule is an asymmetric top.
 Rotational symmetry number  1.
 Warning -- assumption of classical behavior for rotation
           may cause significant error
 Rotational temperatures (Kelvin)      0.03579     0.00975     0.00858
 Rotational constants (GHZ):           0.74575     0.20322     0.17872
    1 imaginary frequencies ignored.
 Zero-point vibrational energy     658940.8 (Joules/Mol)
                                  157.49062 (Kcal/Mol)
 Warning -- explicit consideration of  25 degrees of freedom as
           vibrations may cause significant error
 Vibrational temperatures:     30.21    50.49    58.77   110.08   121.48
          (Kelvin)            148.91   187.26   200.31   244.15   310.49
                              330.67   374.45   376.86   446.29   469.79
                              485.80   524.72   581.62   613.92   639.65
                              667.67   707.05   744.73   831.66   876.69
                              900.82   942.98   962.61  1016.21  1075.31
                             1091.25  1125.14  1136.13  1163.28  1199.04
                             1273.03  1296.14  1332.54  1369.82  1408.99
                             1411.24  1468.38  1529.27  1576.87  1588.21
                             1613.11  1615.87  1618.38  1707.26  1708.15
                             1723.52  1747.09  1787.44  1816.51  1883.64
                             1913.80  1942.58  1963.99  1974.00  2018.22
                             2042.85  2065.56  2072.03  2097.63  2139.20
                             2166.31  2182.77  2191.71  2197.34  2204.90
                             2216.60  2220.69  2383.45  2397.70  2608.52
                             4397.88  4401.26  4419.19  4430.50  4483.62
                             4491.14  4502.52  4505.08  4526.43  4532.89
                             4607.11  4634.28  4658.52  4692.25

 Zero-point correction=                           0.250977 (Hartree/Particle)
 Thermal correction to Energy=                    0.267734
 Thermal correction to Enthalpy=                  0.268678
 Thermal correction to Gibbs Free Energy=         0.204472
 Sum of electronic and zero-point Energies=           -970.211886
 Sum of electronic and thermal Energies=              -970.195130
 Sum of electronic and thermal Enthalpies=            -970.194186
 Sum of electronic and thermal Free Energies=         -970.258392

                     E (Thermal)             CV                S
                      KCal/Mol        Cal/Mol-Kelvin    Cal/Mol-Kelvin
 Total                  168.005             62.498            135.133
 Electronic               0.000              0.000              0.000
 Translational            0.889              2.981             42.579
 Rotational               0.889              2.981             33.739
 Vibrational            166.228             56.536             58.815
 Vibration     1          0.593              1.986              6.537
 Vibration     2          0.594              1.982              5.518
 Vibration     3          0.594              1.981              5.218
 Vibration     4          0.599              1.965              3.978
 Vibration     5          0.601              1.960              3.785
 Vibration     6          0.605              1.946              3.387
 Vibration     7          0.612              1.923              2.944
 Vibration     8          0.615              1.914              2.814
 Vibration     9          0.625              1.880              2.439
 Vibration    10          0.645              1.817              1.994
 Vibration    11          0.652              1.795              1.880
 Vibration    12          0.668              1.745              1.660
 Vibration    13          0.669              1.742              1.649
 Vibration    14          0.699              1.654              1.361
 Vibration    15          0.710              1.622              1.277
 Vibration    16          0.718              1.600              1.223
 Vibration    17          0.738              1.545              1.102
 Vibration    18          0.769              1.461              0.947
 Vibration    19          0.788              1.412              0.870
 Vibration    20          0.804              1.373              0.812
 Vibration    21          0.822              1.330              0.754
 Vibration    22          0.847              1.269              0.680
 Vibration    23          0.873              1.211              0.616
 Vibration    24          0.935              1.079              0.489
 Vibration    25          0.968              1.012              0.434

 Normal termination of Gaussian 09 at Thu Sep 30 05:41:37 2021.
 Gaussian 09:  AM64L-G09RevA.02 11-Jun-2009

 ----------------------------------------------------------------------
 #p TD(NStates=10, Root=1) b3lyp/6-31G* volume pop=NPA density=current
 Geom=AllCheck Guess=Read
 ----------------------------------------------------------------------

 CCN(C(=O)Oc1cccc(c1)C(F)(F)F)CC_conf_0
 --------------------------------------
 Redundant internal coordinates taken from checkpoint file:
 C12H14F3NO2_bf8f_conf_0.chk
 Charge =  0 Multiplicity = 1

                         Standard orientation:
 ---------------------------------------------------------------------
 Center     Atomic      Atomic             Coordinates (Angstroms)
 Number     Number       Type             X           Y           Z
 ---------------------------------------------------------------------
      1          6           0        3.693241    0.928794    1.937791
      2          6           0        3.742352    1.133728    0.420332
      3          7           0        3.155381    0.036877   -0.360582
      4          6           0        1.820967   -0.071350   -0.604391
      5          8           0        1.284789   -0.973490   -1.219356
      6          8           0        1.138200    1.005992   -0.061139
      7          6           0       -0.241489    1.089600   -0.181607
      8          6           0       -0.752821    2.355097   -0.475385
      9          6           0       -2.131467    2.546478   -0.525144
     10          6           0       -3.000089    1.480392   -0.288200
     11          6           0       -2.472666    0.221881    0.002732
     12          6           0       -1.091588    0.013906    0.063502
     13          6           0       -3.376719   -0.950502    0.278680
     14          9           0       -4.683193   -0.632359    0.151883
     15          9           0       -3.128647   -1.980139   -0.560950
     16          9           0       -3.200227   -1.425908    1.534818
     17          6           0        4.002264   -1.058594   -0.854924
     18          6           0        4.013995   -2.297260    0.045303
     19          1           0        4.142030    1.789977    2.446697
     20          1           0        4.243258    0.032049    2.241249
     21          1           0        2.658410    0.832663    2.279971
     22          1           0        4.780536    1.237065    0.087163
     23          1           0        3.226273    2.059115    0.155483
     24          1           0       -0.061846    3.171845   -0.658307
     25          1           0       -2.530406    3.530722   -0.752033
     26          1           0       -4.073728    1.622188   -0.329104
     27          1           0       -0.689031   -0.966981    0.278100
     28          1           0        5.013721   -0.655101   -0.968629
     29          1           0        3.639599   -1.333911   -1.848692
     30          1           0        4.403229   -2.070568    1.043535
     31          1           0        4.647168   -3.075025   -0.397322
     32          1           0        3.001934   -2.699561    0.146031
 ---------------------------------------------------------------------

 SCF Done:  E(RB3LYP) =  -970.462863443     A.U. after    1 cycles

 Excitation energies and oscillator strengths:

 Excited State   1:      Singlet-A      5.1983 eV  238.51 nm  f=0.0163  <S**2>=0.000
      66 -> 70        -0.33160
      67 -> 69        -0.23219
      68 -> 69         0.55776
 This state for optimization and/or second-order correction.
 Total Energy, E(TD-HF/TD-KS) =  -970.271828666
 Copying the excited state density for this state as the 1-particle RhoCI density.

 Excited State   2:      Singlet-A      5.5367 eV  223.93 nm  f=0.0023  <S**2>=0.000
      66 -> 70         0.14401
      67 -> 69         0.58656
      68 -> 69         0.35512

 Excited State   3:      Singlet-A      5.7718 eV  214.81 nm  f=0.0968  <S**2>=0.000
      66 -> 69         0.20911
      67 -> 70         0.15214
      68 -> 70         0.64355

 Excited State   4:      Singlet-A      5.9502 eV  208.37 nm  f=0.0140  <S**2>=0.000
      65 -> 69         0.23616
      66 -> 69        -0.44053
      67 -> 70         0.48401

 Excited State   5:      Singlet-A      6.1768 eV  200.73 nm  f=0.0463  <S**2>=0.000
      65 -> 69         0.53972
      65 -> 70        -0.20700
      66 -> 70         0.10589
      67 -> 70        -0.34402
      68 -> 70         0.10321

 Excited State   6:      Singlet-A      6.2504 eV  198.36 nm  f=0.0813  <S**2>=0.000
      65 -> 69         0.20982
      65 -> 70         0.51929
      65 -> 71        -0.17071
      66 -> 70        -0.32475
      66 -> 71         0.11186
      67 -> 69         0.10944

 Excited State   7:      Singlet-A      6.6797 eV  185.61 nm  f=0.6091  <S**2>=0.000
      64 -> 70         0.16214
      65 -> 69         0.29546
      66 -> 69         0.44085
      67 -> 70         0.25645
      68 -> 70        -0.17898
      68 -> 71         0.27413

 Excited State   8:      Singlet-A      6.8678 eV  180.53 nm  f=0.2131  <S**2>=0.000
      64 -> 69        -0.36775
      65 -> 70         0.30364
      66 -> 70         0.40089
      67 -> 69        -0.21757
      68 -> 69         0.18235

 Excited State   9:      Singlet-A      7.0116 eV  176.83 nm  f=0.0160  <S**2>=0.000
      65 -> 70         0.21842
      65 -> 71         0.49788
      66 -> 71        -0.37192
      67 -> 71        -0.10902
      68 -> 71        -0.16044

 Excited State  10:      Singlet-A      7.2155 eV  171.83 nm  f=0.0217  <S**2>=0.000
      64 -> 70        -0.21774
      65 -> 71         0.11131
      66 -> 69        -0.15705
      67 -> 70        -0.13020
      67 -> 71        -0.21082
      68 -> 71         0.56083

 The electronic state is 1-A.
 Alpha  occ. eigenvalues --  -24.72100 -24.71370 -24.71368 -19.20410 -19.12394
 Alpha  occ. eigenvalues --  -14.37151 -10.42643 -10.33794 -10.26388 -10.23302
 Alpha  occ. eigenvalues --  -10.22746 -10.21579 -10.20591 -10.20484 -10.20478
 Alpha  occ. eigenvalues --  -10.20414 -10.18764 -10.18194  -1.29377  -1.20881
 Alpha  occ. eigenvalues --   -1.20303  -1.11333  -1.02253  -0.94621  -0.87240
 Alpha  occ. eigenvalues --   -0.78845  -0.77752  -0.76748  -0.74294  -0.69618
 Alpha  occ. eigenvalues --   -0.67274  -0.64594  -0.63037  -0.61984  -0.58608
 Alpha  occ. eigenvalues --   -0.57135  -0.56930  -0.53568  -0.53196  -0.50707
 Alpha  occ. eigenvalues --   -0.49323  -0.48487  -0.46595  -0.45642  -0.44951
 Alpha  occ. eigenvalues --   -0.44825  -0.44469  -0.44343  -0.43935  -0.42084
 Alpha  occ. eigenvalues --   -0.41315  -0.41205  -0.40511  -0.40112  -0.39162
 Alpha  occ. eigenvalues --   -0.38983  -0.38737  -0.37651  -0.37437  -0.36989
 Alpha  occ. eigenvalues --   -0.36611  -0.35526  -0.34813  -0.32326  -0.28051
 Alpha  occ. eigenvalues --   -0.26377  -0.25428  -0.24365
 Alpha virt. eigenvalues --   -0.02472  -0.01136   0.04444   0.08111   0.08843
 Alpha virt. eigenvalues --    0.10329   0.11396   0.12501   0.13203   0.13923
 Alpha virt. eigenvalues --    0.14329   0.14878   0.15498   0.15985   0.16293

 Mulliken atomic charges:
              1
     1  C   -0.449229
     2  C   -0.143214
     3  N   -0.425748
     4  C    0.798996
     5  O   -0.492110
     6  O   -0.527919
     7  C    0.341424
     8  C   -0.179832
     9  C   -0.160894
    10  C   -0.142563
    11  C   -0.044682
    12  C   -0.179278
    13  C    0.769955
    14  F   -0.279218
    15  F   -0.270762
    16  F   -0.275612
    17  C   -0.144891
    18  C   -0.452240
    19  H    0.158340
    20  H    0.158365
    21  H    0.174766
    22  H    0.156702
    23  H    0.186581
    24  H    0.127058
    25  H    0.133581
    26  H    0.154150
    27  H    0.166095
    28  H    0.151903
    29  H    0.192570
    30  H    0.153281
    31  H    0.158802
    32  H    0.185622
 Sum of Mulliken atomic charges =  -0.00000

 Dipole moment (field-independent basis, Debye):
    X=              6.9235    Y=              2.3868    Z=              0.7926  Tot=              7.3661
 Quadrupole moment (field-independent basis, Debye-Ang):
   XX=            -87.5209   YY=           -100.1741   ZZ=           -105.6986
   XY=             -5.9733   XZ=              2.5308   YZ=             -1.5309

 Summary of Natural Population Analysis:

                                       Natural Population
                Natural  -----------------------------------------------
    Atom  No    Charge         Core      Valence    Rydberg      Total
 -----------------------------------------------------------------------
      C    1   -0.68707      1.99944     4.68010    0.00753     6.68707
      C    2   -0.26256      1.99934     4.24804    0.01518     6.26256
      N    3   -0.44257      1.99930     5.43017    0.01310     7.44257
      C    4    0.93409      1.99936     3.02137    0.04517     5.06591
      O    5   -0.62168      1.99978     6.60254    0.01937     8.62168
      O    6   -0.50703      1.99969     6.49681    0.01053     8.50703
      C    7    0.32497      1.99874     3.65323    0.02306     5.67503
      C    8   -0.31130      1.99905     4.29356    0.01870     6.31130
      C    9   -0.24872      1.99914     4.23153    0.01805     6.24872
      C   10   -0.16398      1.99907     4.14841    0.01650     6.16398
      C   11   -0.20552      1.99889     4.18851    0.01811     6.20552
      C   12   -0.25899      1.99899     4.24176    0.01824     6.25899
      C   13    1.10499      1.99907     2.82495    0.07100     4.89501
      F   14   -0.36918      1.99993     7.36329    0.00597     9.36918
      F   15   -0.36776      1.99993     7.36152    0.00630     9.36776
      F   16   -0.37192      1.99993     7.36574    0.00625     9.37192
      C   17   -0.25795      1.99934     4.24306    0.01555     6.25795
      C   18   -0.68792      1.99944     4.68095    0.00753     6.68792
      H   19    0.24187      0.00000     0.75730    0.00083     0.75813
      H   20    0.22958      0.00000     0.76948    0.00094     0.77042
      H   21    0.24335      0.00000     0.75545    0.00120     0.75665
      H   22    0.23702      0.00000     0.76156    0.00142     0.76298
      H   23    0.25849      0.00000     0.73999    0.00152     0.74151
      H   24    0.23641      0.00000     0.76244    0.00115     0.76359
      H   25    0.23519      0.00000     0.76403    0.00078     0.76481
      H   26    0.24574      0.00000     0.75279    0.00147     0.75426
      H   27    0.25786      0.00000     0.74036    0.00178     0.74214
      H   28    0.23354      0.00000     0.76520    0.00126     0.76646
      H   29    0.26261      0.00000     0.73544    0.00195     0.73739
      H   30    0.22638      0.00000     0.77267    0.00095     0.77362
      H   31    0.24249      0.00000     0.75675    0.00076     0.75751
      H   32    0.24959      0.00000     0.74917    0.00124     0.75041
 =======================================================================
   * Total *   -0.00000     35.98844    99.65819    0.35338   136.00000

 Normal termination of Gaussian 09 at Thu Sep 30 11:44:38 2021.
