 Gaussian 09, Revision A.02,

 -----------------------------------
 #p opt b3lyp/6-31G* scf=(xqc,tight)
 -----------------------------------

 -------------------------------
 COc1ccnc(c1)c1nccc(c1)OC_conf_0
 -------------------------------
 Symbolic Z-matrix:
 Charge =  0 Multiplicity = 1

 SCF Done:  E(RB3LYP) =  -724.435006301     A.U. after   14 cycles
 SCF Done:  E(RB3LYP) =  -724.439373031     A.U. after   13 cycles
 SCF Done:  E(RB3LYP) =  -724.440545071     A.U. after   12 cycles
 SCF Done:  E(RB3LYP) =  -724.440764585     A.U. after   11 cycles
 SCF Done:  E(RB3LYP) =  -724.440881620     A.U. after   15 cycles
 SCF Done:  E(RB3LYP) =  -724.440909817     A.U. after   15 cycles
 SCF Done:  E(RB3LYP) =  -724.440914646     A.U. after   15 cycles
 SCF Done:  E(RB3LYP) =  -724.440914956     A.U. after   15 cycles
 Optimization completed.
    -- Stationary point found.
 Normal termination of Gaussian 09 at Thu Sep 30 15:20:57 2021.

 ----------------------------------------------------------------------
 #p freq b3lyp/6-31G* volume NMR pop=NPA density=current Geom=AllCheck
 Guess=Read
 ----------------------------------------------------------------------

 COc1ccnc(c1)c1nccc(c1)OC_conf_0
 -------------------------------
 Redundant internal coordinates taken from checkpoint file:
 C12H12N2O2_6d0b_conf_0.chk
 Charge =  0 Multiplicity = 1

 SCF Done:  E(RB3LYP) =  -724.440914956     A.U. after    1 cycles

  1  C    Isotropic =   137.2018   Anisotropy =    66.0054

  2  O    Isotropic =   228.2501   Anisotropy =    95.3583

  3  C    Isotropic =    32.5244   Anisotropy =   136.7429

  4  C    Isotropic =    82.3639   Anisotropy =   127.8248

  5  C    Isotropic =    47.1312   Anisotropy =   145.0737

  6  N    Isotropic =   -25.0442   Anisotropy =   478.9598

  7  C    Isotropic =    38.0540   Anisotropy =   152.5331

  8  C    Isotropic =    90.5532   Anisotropy =   144.4618

  9  C    Isotropic =    38.0548   Anisotropy =   152.5310

 10  N    Isotropic =   -25.0439   Anisotropy =   478.9630

 11  C    Isotropic =    47.1303   Anisotropy =   145.0736

 12  C    Isotropic =    82.3625   Anisotropy =   127.8271

 13  C    Isotropic =    32.5217   Anisotropy =   136.7372

 14  C    Isotropic =    90.5521   Anisotropy =   144.4646

 15  O    Isotropic =   228.2440   Anisotropy =    95.3319

 16  C    Isotropic =   137.2022   Anisotropy =    66.0105

 17  H    Isotropic =    28.2644   Anisotropy =     7.8941

 18  H    Isotropic =    28.4346   Anisotropy =     7.7251

 19  H    Isotropic =    28.4342   Anisotropy =     7.7266

 20  H    Isotropic =    25.7598   Anisotropy =     5.9182

 21  H    Isotropic =    23.8662   Anisotropy =     5.9116

 22  H    Isotropic =    24.2288   Anisotropy =    11.4307

 23  H    Isotropic =    23.8661   Anisotropy =     5.9118

 24  H    Isotropic =    25.7597   Anisotropy =     5.9184

 25  H    Isotropic =    24.2289   Anisotropy =    11.4302

 26  H    Isotropic =    28.2644   Anisotropy =     7.8941

 27  H    Isotropic =    28.4344   Anisotropy =     7.7259

 28  H    Isotropic =    28.4344   Anisotropy =     7.7263

  Exact polarizability: 220.097   4.519 164.115  -0.002  -0.002  61.654
 Approx polarizability: 321.426   4.644 271.235  -0.005  -0.005  94.492

                     1                      2                      3
                     A                      A                      A
 Frequencies --    30.8293                86.3035                97.5259
 Red. masses --     4.5861                 4.2458                 4.7767
 Frc consts  --     0.0026                 0.0186                 0.0268
 IR Inten    --     2.8745                 0.4892                 4.0578

                     4                      5                      6
                     A                      A                      A
 Frequencies --   102.8108               114.9196               171.8496
 Red. masses --     3.4049                 3.4736                 3.6934
 Frc consts  --     0.0212                 0.0270                 0.0643
 IR Inten    --     0.0000                 3.3668                 0.0000

                     7                      8                      9
                     A                      A                      A
 Frequencies --   192.5575               213.0065               245.6028
 Red. masses --     1.7519                 1.4944                 4.1546
 Frc consts  --     0.0383                 0.0399                 0.1477
 IR Inten    --     0.0000                 4.9986                 0.0000

                    10                     11                     12
                     A                      A                      A
 Frequencies --   268.5343               272.4354               279.5236
 Red. masses --     1.9183                 2.3233                 3.4767
 Frc consts  --     0.0815                 0.1016                 0.1600
 IR Inten    --     0.0003                 9.8027                 7.0456

                    13                     14                     15
                     A                      A                      A
 Frequencies --   324.6862               433.8309               435.4183
 Red. masses --     6.2116                 5.1647                 3.0482
 Frc consts  --     0.3858                 0.5727                 0.3405
 IR Inten    --     0.0000                 0.0000                 3.8278

                    16                     17                     18
                     A                      A                      A
 Frequencies --   466.6293               469.6120               491.5224
 Red. masses --     4.9938                 5.6833                 3.0195
 Frc consts  --     0.6407                 0.7385                 0.4298
 IR Inten    --     3.5411                 0.0000                 0.0000

                    19                     20                     21
                     A                      A                      A
 Frequencies --   560.3171               585.4952               594.5180
 Red. masses --     5.2954                 5.0314                 5.0486
 Frc consts  --     0.9795                 1.0162                 1.0514
 IR Inten    --     5.9776                 0.0000                 4.2398

                    22                     23                     24
                     A                      A                      A
 Frequencies --   681.2135               681.2760               745.8398
 Red. masses --     7.8295                 4.0629                 6.7127
 Frc consts  --     2.1407                 1.1110                 2.2001
 IR Inten    --     7.0912                 0.0336                 0.0000

                    25                     26                     27
                     A                      A                      A
 Frequencies --   752.6831               795.0161               844.2440
 Red. masses --     4.0130                 3.4389                 6.4752
 Frc consts  --     1.3395                 1.2806                 2.7192
 IR Inten    --     1.6980                 0.0000               100.1895

                    28                     29                     30
                     A                      A                      A
 Frequencies --   847.4509               849.3520               910.0389
 Red. masses --     1.4049                 1.4449                 1.3771
 Frc consts  --     0.5945                 0.6141                 0.6719
 IR Inten    --    50.9457                 0.0003                34.9134

                    31                     32                     33
                     A                      A                      A
 Frequencies --   928.0063               956.6442               976.1628
 Red. masses --     1.5886                 4.1881                 1.3325
 Frc consts  --     0.8061                 2.2582                 0.7481
 IR Inten    --     0.0000                 0.0000                 0.0020

                    34                     35                     36
                     A                      A                      A
 Frequencies --   978.5595              1009.9293              1016.3087
 Red. masses --     1.3636                 7.5803                 7.5445
 Frc consts  --     0.7694                 4.5553                 4.5913
 IR Inten    --     0.0000                12.0758                 0.0000

                    37                     38                     39
                     A                      A                      A
 Frequencies --  1073.4628              1076.4220              1090.2333
 Red. masses --     7.7805                 3.9566                 1.6879
 Frc consts  --     5.2824                 2.7011                 1.1820
 IR Inten    --   142.7725                 0.0020                10.4707

                    40                     41                     42
                     A                      A                      A
 Frequencies --  1120.4470              1135.6500              1183.4634
 Red. masses --     1.4130                 1.4758                 1.2701
 Frc consts  --     1.0452                 1.1214                 1.0481
 IR Inten    --     0.0000                 0.2273                 0.5806

                    43                     44                     45
                     A                      A                      A
 Frequencies --  1183.4765              1204.8215              1218.1643
 Red. masses --     1.2702                 1.4400                 1.3814
 Frc consts  --     1.0482                 1.2316                 1.2078
 IR Inten    --     0.7634                 0.0000                 1.1649

                    46                     47                     48
                     A                      A                      A
 Frequencies --  1234.0519              1292.1054              1315.4395
 Red. masses --     1.9031                 1.9570                 5.9520
 Frc consts  --     1.7075                 1.9251                 6.0681
 IR Inten    --     0.0000               174.6870                 0.0012

                    49                     50                     51
                     A                      A                      A
 Frequencies --  1317.4177              1344.0228              1356.7447
 Red. masses --     4.0687                 1.4644                 3.7593
 Frc consts  --     4.1606                 1.5586                 4.0771
 IR Inten    --   150.8603                 0.0000               175.8527

                    52                     53                     54
                     A                      A                      A
 Frequencies --  1366.9884              1419.0235              1471.9500
 Red. masses --     5.3543                 2.8936                 2.3935
 Frc consts  --     5.8950                 3.4330                 3.0554
 IR Inten    --     0.0027                23.0094                 0.0000

                    55                     56                     57
                     A                      A                      A
 Frequencies --  1494.9988              1509.1978              1521.1859
 Red. masses --     1.3190                 1.6380                 1.0474
 Frc consts  --     1.7369                 2.1981                 1.4280
 IR Inten    --   129.2219                 0.0000                 0.0254

                    58                     59                     60
                     A                      A                      A
 Frequencies --  1521.2026              1523.9281              1531.8259
 Red. masses --     1.0474                 1.9076                 1.0997
 Frc consts  --     1.4280                 2.6101                 1.5203
 IR Inten    --    12.1354               138.5628                 0.0008

                    61                     62                     63
                     A                      A                      A
 Frequencies --  1532.5345              1544.1975              1618.2093
 Red. masses --     1.1050                 2.3779                 7.5682
 Frc consts  --     1.5291                 3.3408                11.6765
 IR Inten    --    26.9810                 0.0001               141.5152

                    64                     65                     66
                     A                      A                      A
 Frequencies --  1623.2857              1641.7414              1653.3778
 Red. masses --     8.1174                 5.3135                 5.9307
 Frc consts  --    12.6025                 8.4379                 9.5521
 IR Inten    --     0.0013               568.7924                 0.0017

                    67                     68                     69
                     A                      A                      A
 Frequencies --  3039.4587              3039.4701              3103.5130
 Red. masses --     1.0335                 1.0335                 1.1072
 Frc consts  --     5.6255                 5.6255                 6.2835
 IR Inten    --    17.3524                60.1681                 2.3887

                    70                     71                     72
                     A                      A                      A
 Frequencies --  3103.5561              3164.6819              3164.7725
 Red. masses --     1.1072                 1.1016                 1.1015
 Frc consts  --     6.2837                 6.5001                 6.5003
 IR Inten    --    64.9682                53.3196                 1.8803

                    73                     74                     75
                     A                      A                      A
 Frequencies --  3171.4561              3171.7571              3226.1804
 Red. masses --     1.0896                 1.0896                 1.0936
 Frc consts  --     6.4572                 6.4586                 6.7061
 IR Inten    --    72.8166                 0.0821                14.8326

                    76                     77                     78
                     A                      A                      A
 Frequencies --  3226.2893              3261.8900              3262.4645
 Red. masses --     1.0935                 1.0898                 1.0902
 Frc consts  --     6.7063                 6.8318                 6.8366
 IR Inten    --     0.3266                 9.0385                 0.0390

 - Thermochemistry -
 -------------------
 Temperature   298.150 Kelvin.  Pressure   1.00000 Atm.
 Atom     1 has atomic number  6 and mass  12.00000

 Molecular mass:   216.08988 amu.
 Principal axes and moments of inertia in atomic units:
                           1         2         3
     Eigenvalues --  1534.306226555.553958066.82909
           X            0.99979  -0.02028  -0.00000
           Y            0.02028   0.99979   0.00000
           Z            0.00000  -0.00000   1.00000
 This molecule is an asymmetric top.
 Rotational symmetry number  1.
 Warning -- assumption of classical behavior for rotation
           may cause significant error
 Rotational temperatures (Kelvin)      0.05645     0.01321     0.01074
 Rotational constants (GHZ):           1.17626     0.27530     0.22372
 Zero-point vibrational energy     588955.7 (Joules/Mol)
                                  140.76380 (Kcal/Mol)
 Warning -- explicit consideration of  21 degrees of freedom as
           vibrations may cause significant error
 Vibrational temperatures:     44.36   124.17   140.32   147.92   165.34
          (Kelvin)            247.25   277.05   306.47   353.37   386.36
                              391.97   402.17   467.15   624.19   626.47
                              671.37   675.67   707.19   806.17   842.40
                              855.38   980.11   980.20  1073.10  1082.94
                             1143.85  1214.68  1219.29  1222.03  1309.34
                             1335.19  1376.40  1404.48  1407.93  1453.06
                             1462.24  1544.47  1548.73  1568.60  1612.07
                             1633.95  1702.74  1702.76  1733.47  1752.66
                             1775.52  1859.05  1892.62  1895.47  1933.75
                             1952.05  1966.79  2041.66  2117.81  2150.97
                             2171.40  2188.64  2188.67  2192.59  2203.95
                             2204.97  2221.75  2328.24  2335.54  2362.10
                             2378.84  4373.10  4373.11  4465.26  4465.32
                             4553.27  4553.40  4563.01  4563.45  4641.75
                             4641.90  4693.13  4693.95

 Zero-point correction=                           0.224321 (Hartree/Particle)
 Thermal correction to Energy=                    0.238056
 Thermal correction to Enthalpy=                  0.239000
 Thermal correction to Gibbs Free Energy=         0.183150
 Sum of electronic and zero-point Energies=           -724.216594
 Sum of electronic and thermal Energies=              -724.202859
 Sum of electronic and thermal Enthalpies=            -724.201914
 Sum of electronic and thermal Free Energies=         -724.257765

                     E (Thermal)             CV                S
                      KCal/Mol        Cal/Mol-Kelvin    Cal/Mol-Kelvin
 Total                  149.383             52.419            117.548
 Electronic               0.000              0.000              0.000
 Translational            0.889              2.981             42.015
 Rotational               0.889              2.981             32.762
 Vibrational            147.605             46.457             42.772
 Vibration     1          0.594              1.984              5.775
 Vibration     2          0.601              1.959              3.742
 Vibration     3          0.603              1.951              3.503
 Vibration     4          0.605              1.947              3.400
 Vibration     5          0.608              1.937              3.184
 Vibration     6          0.626              1.877              2.415
 Vibration     7          0.635              1.850              2.203
 Vibration     8          0.644              1.821              2.018
 Vibration     9          0.660              1.770              1.762
 Vibration    10          0.673              1.731              1.606
 Vibration    11          0.675              1.724              1.581
 Vibration    12          0.680              1.711              1.537
 Vibration    13          0.709              1.626              1.286
 Vibration    14          0.795              1.397              0.846
 Vibration    15          0.796              1.393              0.841
 Vibration    16          0.824              1.324              0.747
 Vibration    17          0.827              1.317              0.739
 Vibration    18          0.847              1.269              0.680
 Vibration    19          0.916              1.117              0.523
 Vibration    20          0.943              1.063              0.475
 Vibration    21          0.952              1.043              0.459

 Optimization completed.
    -- Stationary point found.
 Normal termination of Gaussian 09 at Thu Sep 30 16:27:21 2021.
 Gaussian 09:  AM64L-G09RevA.02 11-Jun-2009

 ----------------------------------------------------------------------
 #p TD(NStates=10, Root=1) b3lyp/6-31G* volume pop=NPA density=current
 Geom=AllCheck Guess=Read
 ----------------------------------------------------------------------

 COc1ccnc(c1)c1nccc(c1)OC_conf_0
 -------------------------------
 Redundant internal coordinates taken from checkpoint file:
 C12H12N2O2_6d0b_conf_0.chk
 Charge =  0 Multiplicity = 1

                         Standard orientation:
 ---------------------------------------------------------------------
 Center     Atomic      Atomic             Coordinates (Angstroms)
 Number     Number       Type             X           Y           Z
 ---------------------------------------------------------------------
      1          6           0        4.362315   -1.675215    0.000086
      2          8           0        4.285869   -0.253471    0.000205
      3          6           0        3.057764    0.321659    0.000045
      4          6           0        3.024803    1.724115   -0.000010
      5          6           0        1.785103    2.349087   -0.000124
      6          7           0        0.612863    1.701140   -0.000132
      7          6           0        0.654434    0.358986   -0.000018
      8          6           0        1.848552   -0.375550    0.000023
      9          6           0       -0.654387   -0.358958   -0.000284
     10          7           0       -0.612824   -1.701124   -0.000173
     11          6           0       -1.785035   -2.349069   -0.000013
     12          6           0       -3.024769   -1.724103   -0.000005
     13          6           0       -3.057724   -0.321670    0.000017
     14          6           0       -1.848505    0.375557   -0.000048
     15          8           0       -4.285888    0.253445    0.000124
     16          6           0       -4.362487    1.675189    0.000162
     17          1           0        5.427026   -1.913972   -0.000148
     18          1           0        3.891140   -2.100935   -0.894210
     19          1           0        3.891467   -2.101013    0.894540
     20          1           0        3.950801    2.289015   -0.000050
     21          1           0        1.728472    3.436563   -0.000173
     22          1           0        1.786710   -1.455260    0.000020
     23          1           0       -1.728413   -3.436547   -0.000072
     24          1           0       -3.950744   -2.289035    0.000026
     25          1           0       -1.786682    1.455260    0.000064
     26          1           0       -5.427222    1.913858    0.000184
     27          1           0       -3.891550    2.101028   -0.894211
     28          1           0       -3.891511    2.100968    0.894546
 ---------------------------------------------------------------------

 SCF Done:  E(RB3LYP) =  -724.440914956     A.U. after    1 cycles

 Excitation energies and oscillator strengths:

 Excited State   1:      Singlet-A      4.4197 eV  280.53 nm  f=0.0012  <S**2>=0.000
      55 -> 58         0.70357
 This state for optimization and/or second-order correction.
 Total Energy, E(TD-HF/TD-KS) =  -724.278494300
 Copying the excited state density for this state as the 1-particle RhoCI density.

 Excited State   2:      Singlet-A      4.7004 eV  263.77 nm  f=0.0000  <S**2>=0.000
      56 -> 58         0.62858
      57 -> 59         0.30145

 Excited State   3:      Singlet-A      4.7727 eV  259.78 nm  f=0.4584  <S**2>=0.000
      54 -> 58        -0.17789
      56 -> 59        -0.11752
      57 -> 58         0.66697

 Excited State   4:      Singlet-A      4.7980 eV  258.41 nm  f=0.0000  <S**2>=0.000
      53 -> 58         0.70077

 Excited State   5:      Singlet-A      4.8935 eV  253.37 nm  f=0.0375  <S**2>=0.000
      54 -> 58         0.61878
      57 -> 58         0.20481
      57 -> 60        -0.24666

 Excited State   6:      Singlet-A      5.3491 eV  231.79 nm  f=0.0000  <S**2>=0.000
      53 -> 60         0.22593
      55 -> 59         0.66790

 Excited State   7:      Singlet-A      5.4918 eV  225.76 nm  f=0.0000  <S**2>=0.000
      52 -> 58         0.27646
      56 -> 58        -0.30203
      57 -> 59         0.55769

 Excited State   8:      Singlet-A      5.5415 eV  223.74 nm  f=0.0045  <S**2>=0.000
      53 -> 59         0.49756
      55 -> 60         0.49905

 Excited State   9:      Singlet-A      5.8613 eV  211.53 nm  f=0.2740  <S**2>=0.000
      54 -> 60         0.13271
      56 -> 59         0.66093
      57 -> 60         0.18197

 Excited State  10:      Singlet-A      5.8623 eV  211.49 nm  f=0.0000  <S**2>=0.000
      52 -> 58         0.54213
      54 -> 59         0.30088
      56 -> 60        -0.13282
      57 -> 59        -0.26739
      57 -> 61        -0.10615

 The electronic state is 1-A.
 Alpha  occ. eigenvalues --  -19.18714 -19.18713 -14.31877 -14.31877 -10.25967
 Alpha  occ. eigenvalues --  -10.25967 -10.24465 -10.24464 -10.22484 -10.22457
 Alpha  occ. eigenvalues --  -10.21832 -10.21832 -10.18886 -10.18886 -10.18575
 Alpha  occ. eigenvalues --  -10.18574  -1.07353  -1.07350  -0.94396  -0.92522
 Alpha  occ. eigenvalues --   -0.80013  -0.79694  -0.78071  -0.74026  -0.71515
 Alpha  occ. eigenvalues --   -0.71242  -0.65008  -0.62752  -0.59971  -0.58701
 Alpha  occ. eigenvalues --   -0.54681  -0.52101  -0.51109  -0.48768  -0.47541
 Alpha  occ. eigenvalues --   -0.47416  -0.47368  -0.46148  -0.44981  -0.44193
 Alpha  occ. eigenvalues --   -0.42788  -0.42246  -0.41793  -0.41080  -0.38743
 Alpha  occ. eigenvalues --   -0.38159  -0.37071  -0.35127  -0.34234  -0.33770
 Alpha  occ. eigenvalues --   -0.32797  -0.27846  -0.26127  -0.24787  -0.24681
 Alpha  occ. eigenvalues --   -0.24018  -0.22916
 Alpha virt. eigenvalues --   -0.04263  -0.00804   0.00721   0.03858   0.10201
 Alpha virt. eigenvalues --    0.10492   0.10760   0.10814   0.13501   0.13805
 Alpha virt. eigenvalues --    0.14390   0.15278   0.15296   0.16631   0.16649

 Mulliken atomic charges:
              1
     1  C   -0.217552
     2  O   -0.505157
     3  C    0.415120
     4  C   -0.224535
     5  C    0.055565
     6  N   -0.489865
     7  C    0.258708
     8  C   -0.223958
     9  C    0.258699
    10  N   -0.489834
    11  C    0.055570
    12  C   -0.224543
    13  C    0.415121
    14  C   -0.223949
    15  O   -0.505182
    16  C   -0.217542
    17  H    0.171883
    18  H    0.159355
    19  H    0.159350
    20  H    0.138396
    21  H    0.149603
    22  H    0.153075
    23  H    0.149609
    24  H    0.138400
    25  H    0.153079
    26  H    0.171883
    27  H    0.159349
    28  H    0.159350
 Sum of Mulliken atomic charges =  -0.00000

 Dipole moment (field-independent basis, Debye):
    X=              0.0000    Y=             -0.0004    Z=             -0.0001  Tot=              0.0004
 Quadrupole moment (field-independent basis, Debye-Ang):
   XX=            -83.0535   YY=            -78.2927   ZZ=            -95.8032
   XY=            -10.0579   XZ=             -0.0015   YZ=             -0.0001

 Summary of Natural Population Analysis:

                                       Natural Population
                Natural  -----------------------------------------------
    Atom  No    Charge         Core      Valence    Rydberg      Total
 -----------------------------------------------------------------------
      C    1   -0.31780      1.99943     4.30466    0.01372     6.31780
      O    2   -0.50898      1.99974     6.49753    0.01171     8.50898
      C    3    0.35820      1.99880     3.61972    0.02328     5.64180
      C    4   -0.38784      1.99901     4.37323    0.01561     6.38784
      C    5    0.02203      1.99916     3.95744    0.02138     5.97797
      N    6   -0.31782      1.99911     5.30410    0.01462     7.31782
      C    7    0.11530      1.99902     3.86147    0.02421     5.88470
      C    8   -0.35054      1.99894     4.33973    0.01187     6.35054
      C    9    0.11529      1.99902     3.86148    0.02421     5.88471
      N   10   -0.31778      1.99911     5.30405    0.01462     7.31778
      C   11    0.02204      1.99916     3.95743    0.02138     5.97796
      C   12   -0.38785      1.99900     4.37324    0.01561     6.38785
      C   13    0.35820      1.99880     3.61973    0.02328     5.64180
      C   14   -0.35053      1.99894     4.33972    0.01187     6.35053
      O   15   -0.50900      1.99974     6.49755    0.01171     8.50900
      C   16   -0.31779      1.99943     4.30465    0.01372     6.31779
      H   17    0.22901      0.00000     0.77048    0.00051     0.77099
      H   18    0.20696      0.00000     0.79113    0.00191     0.79304
      H   19    0.20696      0.00000     0.79113    0.00191     0.79304
      H   20    0.25195      0.00000     0.74702    0.00103     0.74805
      H   21    0.23532      0.00000     0.76384    0.00084     0.76468
      H   22    0.25724      0.00000     0.74141    0.00135     0.74276
      H   23    0.23532      0.00000     0.76384    0.00084     0.76468
      H   24    0.25195      0.00000     0.74702    0.00103     0.74805
      H   25    0.25725      0.00000     0.74141    0.00135     0.74275
      H   26    0.22901      0.00000     0.77048    0.00051     0.77099
      H   27    0.20696      0.00000     0.79113    0.00191     0.79304
      H   28    0.20696      0.00000     0.79113    0.00191     0.79304
 =======================================================================
   * Total *    0.00000     31.98638    81.72575    0.28787   114.00000

 Normal termination of Gaussian 09 at Thu Sep 30 20:52:12 2021.
