 Gaussian 09, Revision A.02,

 -----------------------------------
 #p opt b3lyp/6-31G* scf=(xqc,tight)
 -----------------------------------

 --------------------------------
 Cc1cccc(c1)OC(=O)C(C)(C)C_conf_0
 --------------------------------
 Symbolic Z-matrix:
 Charge =  0 Multiplicity = 1

 SCF Done:  E(RB3LYP) =  -617.381291893     A.U. after   15 cycles
 SCF Done:  E(RB3LYP) =  -617.384474243     A.U. after   13 cycles
 SCF Done:  E(RB3LYP) =  -617.381768615     A.U. after   13 cycles
 SCF Done:  E(RB3LYP) =  -617.384936061     A.U. after   13 cycles
 SCF Done:  E(RB3LYP) =  -617.385161711     A.U. after   12 cycles
 SCF Done:  E(RB3LYP) =  -617.385255974     A.U. after   12 cycles
 SCF Done:  E(RB3LYP) =  -617.385286577     A.U. after   11 cycles
 SCF Done:  E(RB3LYP) =  -617.385308737     A.U. after   11 cycles
 SCF Done:  E(RB3LYP) =  -617.385327770     A.U. after   12 cycles
 SCF Done:  E(RB3LYP) =  -617.385336232     A.U. after   11 cycles
 SCF Done:  E(RB3LYP) =  -617.385291736     A.U. after   13 cycles
 SCF Done:  E(RB3LYP) =  -617.385342667     A.U. after   12 cycles
 SCF Done:  E(RB3LYP) =  -617.385344040     A.U. after    9 cycles
 SCF Done:  E(RB3LYP) =  -617.385331525     A.U. after   10 cycles
 SCF Done:  E(RB3LYP) =  -617.385344055     A.U. after   10 cycles
 SCF Done:  E(RB3LYP) =  -617.385345600     A.U. after    9 cycles
 SCF Done:  E(RB3LYP) =  -617.384865339     A.U. after   11 cycles
 SCF Done:  E(RB3LYP) =  -617.385345607     A.U. after   11 cycles
 Optimization completed.
    -- Stationary point found.
 Normal termination of Gaussian 09 at Fri Oct  1 03:02:34 2021.

 ----------------------------------------------------------------------
 #p freq b3lyp/6-31G* volume NMR pop=NPA density=current Geom=AllCheck
 Guess=Read
 ----------------------------------------------------------------------

 Cc1cccc(c1)OC(=O)C(C)(C)C_conf_0
 --------------------------------
 Redundant internal coordinates taken from checkpoint file:
 C12H16O2_0f03_conf_0.chk
 Charge =  0 Multiplicity = 1

 SCF Done:  E(RB3LYP) =  -617.385345607     A.U. after    1 cycles

  1  C    Isotropic =   167.6437   Anisotropy =    35.4855

  2  C    Isotropic =    57.5213   Anisotropy =   175.9605

  3  C    Isotropic =    70.4700   Anisotropy =   143.0401

  4  C    Isotropic =    67.7777   Anisotropy =   161.9721

  5  C    Isotropic =    78.4197   Anisotropy =   139.0251

  6  C    Isotropic =    45.0831   Anisotropy =   108.3810

  7  C    Isotropic =    72.4937   Anisotropy =   141.6214

  8  O    Isotropic =   108.3949   Anisotropy =   157.7537

  9  C    Isotropic =    22.8358   Anisotropy =    77.4562

 10  O    Isotropic =   -62.2681   Anisotropy =   575.7486

 11  C    Isotropic =   148.9256   Anisotropy =    24.0478

 12  C    Isotropic =   162.0490   Anisotropy =    38.0531

 13  C    Isotropic =   162.8668   Anisotropy =    31.2066

 14  C    Isotropic =   162.1852   Anisotropy =    37.2410

 15  H    Isotropic =    30.3803   Anisotropy =     7.6094

 16  H    Isotropic =    29.6785   Anisotropy =     7.4687

 17  H    Isotropic =    29.7601   Anisotropy =     7.8082

 18  H    Isotropic =    25.3655   Anisotropy =     5.6204

 19  H    Isotropic =    25.0889   Anisotropy =     4.4856

 20  H    Isotropic =    25.6001   Anisotropy =     6.6313

 21  H    Isotropic =    25.1071   Anisotropy =    11.0107

 22  H    Isotropic =    30.8871   Anisotropy =     8.0495

 23  H    Isotropic =    30.3883   Anisotropy =     7.2821

 24  H    Isotropic =    31.1223   Anisotropy =     7.9140

 25  H    Isotropic =    30.6836   Anisotropy =     7.8966

 26  H    Isotropic =    31.4820   Anisotropy =     7.8043

 27  H    Isotropic =    30.6493   Anisotropy =     8.1072

 28  H    Isotropic =    30.4387   Anisotropy =     6.1549

 29  H    Isotropic =    30.8475   Anisotropy =     8.1080

 30  H    Isotropic =    31.0971   Anisotropy =     7.8548

  Exact polarizability: 168.141  -0.972 133.254  -2.793  -3.613  83.279
 Approx polarizability: 221.289  -2.123 214.386  -8.357  -1.557 126.096

 ******    1 imaginary frequencies (negative Signs) ******

                     1                      2                      3
                     A                      A                      A
 Frequencies --   -19.2543                18.7858                43.9293
 Red. masses --     1.0275                 3.2330                 4.6977
 Frc consts  --     0.0002                 0.0007                 0.0053
 IR Inten    --     0.2059                 0.2272                 1.0915

                     4                      5                      6
                     A                      A                      A
 Frequencies --    52.7237                87.7917               188.3234
 Red. masses --     5.4145                 4.3469                 3.6701
 Frc consts  --     0.0089                 0.0197                 0.0767
 IR Inten    --     0.1601                 1.6449                 0.1773

                     7                      8                      9
                     A                      A                      A
 Frequencies --   202.4511               216.2241               227.8079
 Red. masses --     1.5311                 2.2666                 1.5898
 Frc consts  --     0.0370                 0.0624                 0.0486
 IR Inten    --     0.7069                 0.8577                 0.1292

                    10                     11                     12
                     A                      A                      A
 Frequencies --   260.0768               267.2115               283.0442
 Red. masses --     1.8877                 1.2057                 1.4625
 Frc consts  --     0.0752                 0.0507                 0.0690
 IR Inten    --     0.1696                 0.0745                 0.2072

                    13                     14                     15
                     A                      A                      A
 Frequencies --   311.9665               318.7875               356.1954
 Red. masses --     3.1050                 3.0369                 3.2511
 Frc consts  --     0.1780                 0.1818                 0.2430
 IR Inten    --     1.3010                 3.6128                 6.5912

                    16                     17                     18
                     A                      A                      A
 Frequencies --   374.5386               426.1550               450.1691
 Red. masses --     2.3070                 3.4673                 3.0311
 Frc consts  --     0.1907                 0.3710                 0.3619
 IR Inten    --     0.2744                 1.8767                 3.2175

                    19                     20                     21
                     A                      A                      A
 Frequencies --   457.7529               527.1993               564.1308
 Red. masses --     3.2881                 4.9807                 4.0699
 Frc consts  --     0.4059                 0.8156                 0.7631
 IR Inten    --     2.9049                 1.3017                 3.1636

                    22                     23                     24
                     A                      A                      A
 Frequencies --   574.3096               625.6955               699.1534
 Red. masses --     4.8949                 4.5914                 2.6474
 Frc consts  --     0.9512                 1.0591                 0.7625
 IR Inten    --     1.9432                 0.6654                 7.3636

                    25                     26                     27
                     A                      A                      A
 Frequencies --   751.0863               758.6364               787.1439
 Red. masses --     5.0300                 6.6512                 1.7536
 Frc consts  --     1.6719                 2.2554                 0.6402
 IR Inten    --     1.5926                 2.5289                21.4837

                    28                     29                     30
                     A                      A                      A
 Frequencies --   819.1956               875.0849               890.4796
 Red. masses --     2.5013                 1.4941                 1.8653
 Frc consts  --     0.9890                 0.6741                 0.8715
 IR Inten    --     7.8925                 1.7097                 7.5887

                    31                     32                     33
                     A                      A                      A
 Frequencies --   919.2097               945.1428               949.7058
 Red. masses --     2.0622                 2.8452                 1.7702
 Frc consts  --     1.0266                 1.4975                 0.9407
 IR Inten    --    14.1158                 9.9033                 1.3351

                    34                     35                     36
                     A                      A                      A
 Frequencies --   957.4749               969.9295               979.9375
 Red. masses --     1.6605                 1.2690                 1.1980
 Frc consts  --     0.8969                 0.7034                 0.6778
 IR Inten    --     1.8229                 0.2706                 0.0124

                    37                     38                     39
                     A                      A                      A
 Frequencies --  1018.5419              1035.2739              1060.0067
 Red. masses --     4.8109                 1.6403                 1.4378
 Frc consts  --     2.9406                 1.0358                 0.9518
 IR Inten    --     4.3695                 0.3575                10.4844

                    40                     41                     42
                     A                      A                      A
 Frequencies --  1061.1917              1076.0429              1121.1014
 Red. masses --     1.4496                 1.5099                 1.5116
 Frc consts  --     0.9618                 1.0301                 1.1193
 IR Inten    --    25.3878                 4.3594                 3.7505

                    43                     44                     45
                     A                      A                      A
 Frequencies --  1147.8157              1183.5241              1196.8554
 Red. masses --     3.1245                 2.1305                 1.1464
 Frc consts  --     2.4254                 1.7583                 0.9676
 IR Inten    --   383.3596               290.1141                 1.8201

                    46                     47                     48
                     A                      A                      A
 Frequencies --  1242.5311              1262.8609              1276.7201
 Red. masses --     2.6663                 2.8919                 4.1715
 Frc consts  --     2.4253                 2.7174                 4.0062
 IR Inten    --     2.0474                 5.2301               145.6450

                    49                     50                     51
                     A                      A                      A
 Frequencies --  1309.8393              1332.4653              1361.8163
 Red. masses --     3.1910                 1.6470                 3.4823
 Frc consts  --     3.2256                 1.7229                 3.8049
 IR Inten    --    36.6449                 0.4131                 5.8711

                    52                     53                     54
                     A                      A                      A
 Frequencies --  1422.0442              1429.9237              1443.1499
 Red. masses --     1.2092                 1.2311                 1.2407
 Frc consts  --     1.4407                 1.4830                 1.5225
 IR Inten    --     3.9786                 4.5721                 0.1677

                    55                     56                     57
                     A                      A                      A
 Frequencies --  1458.6667              1477.9938              1508.2083
 Red. masses --     1.2224                 2.5504                 1.0486
 Frc consts  --     1.5324                 3.2825                 1.4053
 IR Inten    --    14.8570                16.9378                 0.0703

                    58                     59                     60
                     A                      A                      A
 Frequencies --  1515.4776              1515.6250              1521.2859
 Red. masses --     1.0450                 1.0457                 1.0455
 Frc consts  --     1.4140                 1.4153                 1.4256
 IR Inten    --     1.2889                 5.1126                 0.0601

                    61                     62                     63
                     A                      A                      A
 Frequencies --  1526.7464              1529.8667              1533.0724
 Red. masses --     1.2529                 1.0496                 1.0581
 Frc consts  --     1.7207                 1.4473                 1.4653
 IR Inten    --     7.3412                 5.8064                 9.6386

                    64                     65                     66
                     A                      A                      A
 Frequencies --  1541.1813              1551.0492              1648.5504
 Red. masses --     2.0621                 1.0720                 5.6580
 Frc consts  --     2.8858                 1.5195                 9.0598
 IR Inten    --    59.3354                17.7318                35.2650

                    67                     68                     69
                     A                      A                      A
 Frequencies --  1665.1167              1830.9577              3045.3754
 Red. masses --     6.1769                12.6774                 1.0380
 Frc consts  --    10.0905                25.0401                 5.6717
 IR Inten    --    30.1594               179.8538                28.0606

                    70                     71                     72
                     A                      A                      A
 Frequencies --  3050.2551              3052.0988              3060.9177
 Red. masses --     1.0357                 1.0360                 1.0366
 Frc consts  --     5.6773                 5.6859                 5.7222
 IR Inten    --    27.0474                12.4436                26.7465

                    73                     74                     75
                     A                      A                      A
 Frequencies --  3098.7149              3113.3727              3115.7096
 Red. masses --     1.1001                 1.1029                 1.1026
 Frc consts  --     6.2237                 6.2984                 6.3063
 IR Inten    --    18.0504                14.8039                20.0283

                    76                     77                     78
                     A                      A                      A
 Frequencies --  3128.1089              3128.6220              3138.2532
 Red. masses --     1.1013                 1.1018                 1.1028
 Frc consts  --     6.3492                 6.3540                 6.3991
 IR Inten    --    20.9345                38.6932                13.2840

                    79                     80                     81
                     A                      A                      A
 Frequencies --  3139.7825              3143.4196              3184.0764
 Red. masses --     1.1019                 1.1010                 1.0870
 Frc consts  --     6.4002                 6.4095                 6.4930
 IR Inten    --    11.3963                42.3635                 7.7137

                    82                     83                     84
                     A                      A                      A
 Frequencies --  3200.6906              3219.4600              3227.6763
 Red. masses --     1.0921                 1.0948                 1.0914
 Frc consts  --     6.5918                 6.6856                 6.6990
 IR Inten    --    25.0348                 8.8476                 2.7356

 - Thermochemistry -
 -------------------
 Temperature   298.150 Kelvin.  Pressure   1.00000 Atm.
 Atom     1 has atomic number  6 and mass  12.00000

 Molecular mass:   192.11503 amu.
 Principal axes and moments of inertia in atomic units:
                           1         2         3
     Eigenvalues --  1186.507445035.909165633.38840
           X            0.99993  -0.01171  -0.00245
           Y            0.01164   0.99960  -0.02582
           Z            0.00275   0.02579   0.99966
 This molecule is an asymmetric top.
 Rotational symmetry number  1.
 Warning -- assumption of classical behavior for rotation
           may cause significant error
 Rotational temperatures (Kelvin)      0.07300     0.01720     0.01538
 Rotational constants (GHZ):           1.52105     0.35837     0.32037
    1 imaginary frequencies ignored.
 Zero-point vibrational energy     669845.9 (Joules/Mol)
                                  160.09701 (Kcal/Mol)
 Warning -- explicit consideration of  21 degrees of freedom as
           vibrations may cause significant error
 Vibrational temperatures:     27.03    63.20    75.86   126.31   270.95
          (Kelvin)            291.28   311.10   327.76   374.19   384.46
                              407.24   448.85   458.66   512.49   538.88
                              613.14   647.69   658.60   758.52   811.66
                              826.30   900.24  1005.92  1080.64  1091.51
                             1132.52  1178.64  1259.05  1281.20  1322.54
                             1359.85  1366.41  1377.59  1395.51  1409.91
                             1465.45  1489.53  1525.11  1526.82  1548.18
                             1613.01  1651.45  1702.83  1722.01  1787.72
                             1816.97  1836.91  1884.56  1917.12  1959.35
                             2046.00  2057.34  2076.37  2098.69  2126.50
                             2169.97  2180.43  2180.64  2188.79  2196.64
                             2201.13  2205.75  2217.41  2231.61  2371.89
                             2395.73  2634.34  4381.61  4388.63  4391.28
                             4403.97  4458.35  4479.44  4482.81  4500.65
                             4501.38  4515.24  4517.44  4522.67  4581.17
                             4605.07  4632.08  4643.90

 Zero-point correction=                           0.255131 (Hartree/Particle)
 Thermal correction to Energy=                    0.269082
 Thermal correction to Enthalpy=                  0.270026
 Thermal correction to Gibbs Free Energy=         0.213354
 Sum of electronic and zero-point Energies=           -617.130215
 Sum of electronic and thermal Energies=              -617.116264
 Sum of electronic and thermal Enthalpies=            -617.115320
 Sum of electronic and thermal Free Energies=         -617.171992

                     E (Thermal)             CV                S
                      KCal/Mol        Cal/Mol-Kelvin    Cal/Mol-Kelvin
 Total                  168.851             53.060            119.276
 Electronic               0.000              0.000              0.000
 Translational            0.889              2.981             41.664
 Rotational               0.889              2.981             31.887
 Vibrational            167.074             47.098             45.724
 Vibration     1          0.593              1.986              6.759
 Vibration     2          0.595              1.980              5.074
 Vibration     3          0.596              1.977              4.713
 Vibration     4          0.601              1.958              3.709
 Vibration     5          0.633              1.856              2.244
 Vibration     6          0.639              1.836              2.111
 Vibration     7          0.645              1.816              1.990
 Vibration     8          0.651              1.799              1.896
 Vibration     9          0.668              1.746              1.661
 Vibration    10          0.672              1.733              1.614
 Vibration    11          0.682              1.705              1.515
 Vibration    12          0.700              1.651              1.352
 Vibration    13          0.705              1.638              1.316
 Vibration    14          0.732              1.563              1.139
 Vibration    15          0.746              1.524              1.061
 Vibration    16          0.788              1.413              0.871
 Vibration    17          0.809              1.361              0.795
 Vibration    18          0.816              1.344              0.773
 Vibration    19          0.882              1.190              0.593
 Vibration    20          0.920              1.109              0.516
 Vibration    21          0.931              1.087              0.496

 Normal termination of Gaussian 09 at Fri Oct  1 03:36:47 2021.
 Gaussian 09:  AM64L-G09RevA.02 11-Jun-2009

 ----------------------------------------------------------------------
 #p TD(NStates=10, Root=1) b3lyp/6-31G* volume pop=NPA density=current
 Geom=AllCheck Guess=Read
 ----------------------------------------------------------------------

 Cc1cccc(c1)OC(=O)C(C)(C)C_conf_0
 --------------------------------
 Redundant internal coordinates taken from checkpoint file:
 C12H16O2_0f03_conf_0.chk
 Charge =  0 Multiplicity = 1

                         Standard orientation:
 ---------------------------------------------------------------------
 Center     Atomic      Atomic             Coordinates (Angstroms)
 Number     Number       Type             X           Y           Z
 ---------------------------------------------------------------------
      1          6           0        3.814235   -1.901158    0.212538
      2          6           0        3.009227   -0.626467    0.102179
      3          6           0        3.630224    0.605459   -0.134498
      4          6           0        2.878638    1.778499   -0.227151
      5          6           0        1.492885    1.739029   -0.090611
      6          6           0        0.876358    0.510809    0.142220
      7          6           0        1.615279   -0.664217    0.244521
      8          8           0       -0.505602    0.542485    0.350280
      9          6           0       -1.339957   -0.315350   -0.322967
     10          8           0       -0.953609   -1.141021   -1.114145
     11          6           0       -2.799107   -0.063679    0.073015
     12          6           0       -3.175807    1.392200   -0.283362
     13          6           0       -3.692249   -1.045601   -0.701496
     14          6           0       -2.954300   -0.285705    1.594184
     15          1           0        4.872387   -1.724436   -0.003374
     16          1           0        3.450749   -2.663935   -0.486217
     17          1           0        3.747299   -2.329869    1.220565
     18          1           0        4.710752    0.646365   -0.246784
     19          1           0        3.374439    2.728180   -0.408664
     20          1           0        0.886215    2.636334   -0.158315
     21          1           0        1.109218   -1.606281    0.422589
     22          1           0       -3.055118    1.581555   -1.356302
     23          1           0       -2.558503    2.109524    0.264328
     24          1           0       -4.225848    1.573241   -0.026820
     25          1           0       -3.583221   -0.912889   -1.782046
     26          1           0       -4.742322   -0.879778   -0.435684
     27          1           0       -3.435925   -2.083673   -0.469187
     28          1           0       -2.324178    0.402260    2.164605
     29          1           0       -2.686793   -1.311050    1.875197
     30          1           0       -3.998022   -0.120174    1.885608
 ---------------------------------------------------------------------

 SCF Done:  E(RB3LYP) =  -617.385345607     A.U. after    2 cycles

 Excitation energies and oscillator strengths:

 Excited State   1:      Singlet-A      5.2602 eV  235.70 nm  f=0.0067  <S**2>=0.000
      51 -> 53         0.36439
      51 -> 54        -0.25185
      51 -> 55         0.12039
      52 -> 53         0.36650
      52 -> 54         0.37436
 This state for optimization and/or second-order correction.
 Total Energy, E(TD-HF/TD-KS) =  -617.192038401
 Copying the excited state density for this state as the 1-particle RhoCI density.

 Excited State   2:      Singlet-A      5.5223 eV  224.52 nm  f=0.0182  <S**2>=0.000
      50 -> 53         0.50311
      50 -> 54        -0.14288
      50 -> 55        -0.26986
      51 -> 55        -0.15852
      52 -> 53         0.16287
      52 -> 54        -0.27081
      52 -> 55        -0.15258

 Excited State   3:      Singlet-A      5.6858 eV  218.06 nm  f=0.0882  <S**2>=0.000
      50 -> 53        -0.21191
      51 -> 53        -0.33809
      51 -> 55         0.10173
      52 -> 53         0.50504
      52 -> 54        -0.19262
      52 -> 55        -0.12834

 Excited State   4:      Singlet-A      6.1694 eV  200.97 nm  f=0.0420  <S**2>=0.000
      50 -> 53         0.25067
      50 -> 55        -0.11804
      51 -> 53        -0.37646
      51 -> 54         0.11957
      51 -> 55         0.41383
      52 -> 54         0.28073
      52 -> 55         0.10745

 Excited State   5:      Singlet-A      6.2086 eV  199.70 nm  f=0.0683  <S**2>=0.000
      50 -> 54         0.11129
      51 -> 53         0.13464
      51 -> 54         0.47395
      52 -> 54         0.13159
      52 -> 55        -0.45848

 Excited State   6:      Singlet-A      6.5369 eV  189.67 nm  f=0.0447  <S**2>=0.000
      50 -> 53         0.21535
      50 -> 54         0.62450
      50 -> 55         0.10127
      52 -> 53         0.10208
      52 -> 55         0.17924

 Excited State   7:      Singlet-A      6.7655 eV  183.26 nm  f=0.0533  <S**2>=0.000
      49 -> 53         0.10147
      50 -> 53         0.22111
      50 -> 54        -0.19777
      50 -> 55         0.53062
      51 -> 53         0.16001
      51 -> 55         0.21631
      52 -> 54        -0.15948

 Excited State   8:      Singlet-A      6.9238 eV  179.07 nm  f=0.5349  <S**2>=0.000
      49 -> 53        -0.27803
      50 -> 54        -0.15799
      51 -> 54         0.37269
      51 -> 55        -0.22890
      52 -> 53         0.21548
      52 -> 55         0.36055

 Excited State   9:      Singlet-A      7.0736 eV  175.28 nm  f=0.2678  <S**2>=0.000
      49 -> 54         0.24691
      50 -> 53        -0.16073
      50 -> 55        -0.29856
      51 -> 53         0.21785
      51 -> 54         0.11577
      51 -> 55         0.35230
      52 -> 54        -0.30255
      52 -> 55         0.17598

 Excited State  10:      Singlet-A      7.5257 eV  164.75 nm  f=0.1389  <S**2>=0.000
      46 -> 53        -0.15599
      48 -> 53         0.14110
      49 -> 53         0.54480
      49 -> 54         0.16199
      49 -> 55         0.14569
      51 -> 55        -0.18512
      52 -> 54         0.12040

 The electronic state is 1-A.
 Alpha  occ. eigenvalues --  -19.19759 -19.13896 -10.31518 -10.24870 -10.21366
 Alpha  occ. eigenvalues --  -10.19958 -10.19182 -10.18895 -10.18679 -10.18553
 Alpha  occ. eigenvalues --  -10.18362 -10.18234 -10.18228 -10.17413  -1.10422
 Alpha  occ. eigenvalues --   -1.02195  -0.85670  -0.82320  -0.77277  -0.74685
 Alpha  occ. eigenvalues --   -0.69216  -0.69078  -0.68604  -0.65778  -0.60349
 Alpha  occ. eigenvalues --   -0.57962  -0.54585  -0.50071  -0.48859  -0.47711
 Alpha  occ. eigenvalues --   -0.47546  -0.45257  -0.43681  -0.43233  -0.42386
 Alpha  occ. eigenvalues --   -0.41743  -0.41281  -0.40791  -0.39114  -0.38946
 Alpha  occ. eigenvalues --   -0.38072  -0.36854  -0.36540  -0.35788  -0.34895
 Alpha  occ. eigenvalues --   -0.34219  -0.33426  -0.33341  -0.31267  -0.26969
 Alpha  occ. eigenvalues --   -0.24336  -0.23566
 Alpha virt. eigenvalues --   -0.00642  -0.00142   0.02157   0.08290   0.09331
 Alpha virt. eigenvalues --    0.12050   0.12698   0.13750   0.14248   0.14646
 Alpha virt. eigenvalues --    0.15175   0.15400   0.16062   0.16508   0.17477

 Mulliken atomic charges:
              1
     1  C   -0.530189
     2  C    0.160386
     3  C   -0.169709
     4  C   -0.149907
     5  C   -0.155546
     6  C    0.343239
     7  C   -0.196058
     8  O   -0.520396
     9  C    0.603360
    10  O   -0.462463
    11  C   -0.001055
    12  C   -0.449095
    13  C   -0.434558
    14  C   -0.450025
    15  H    0.157820
    16  H    0.172463
    17  H    0.167805
    18  H    0.130640
    19  H    0.136872
    20  H    0.147979
    21  H    0.148421
    22  H    0.149881
    23  H    0.158002
    24  H    0.144631
    25  H    0.155720
    26  H    0.135068
    27  H    0.153546
    28  H    0.161211
    29  H    0.147821
    30  H    0.144137
 Sum of Mulliken atomic charges =  -0.00000

 Dipole moment (field-independent basis, Debye):
    X=              0.7176    Y=              0.9200    Z=              1.1834  Tot=              1.6619
 Quadrupole moment (field-independent basis, Debye-Ang):
   XX=            -72.4930   YY=            -80.7002   ZZ=            -87.6792
   XY=             -1.9569   XZ=             -1.3856   YZ=             -3.7589

 Summary of Natural Population Analysis:

                                       Natural Population
                Natural  -----------------------------------------------
    Atom  No    Charge         Core      Valence    Rydberg      Total
 -----------------------------------------------------------------------
      C    1   -0.69433      1.99940     4.68723    0.00770     6.69433
      C    2    0.00529      1.99907     3.97958    0.01605     5.99471
      C    3   -0.22022      1.99906     4.20533    0.01583     6.22022
      C    4   -0.24326      1.99915     4.22613    0.01798     6.24326
      C    5   -0.22902      1.99903     4.21285    0.01714     6.22902
      C    6    0.30467      1.99875     3.67226    0.02433     5.69533
      C    7   -0.28312      1.99896     4.26669    0.01747     6.28312
      O    8   -0.52721      1.99970     6.51626    0.01125     8.52721
      C    9    0.78598      1.99928     3.16586    0.04888     5.21402
      O   10   -0.56543      1.99977     6.54550    0.02016     8.56543
      C   11   -0.14588      1.99906     4.13412    0.01270     6.14588
      C   12   -0.66899      1.99938     4.65978    0.00983     6.66899
      C   13   -0.66918      1.99939     4.65879    0.01100     6.66918
      C   14   -0.66955      1.99938     4.66039    0.00978     6.66955
      H   15    0.23841      0.00000     0.76078    0.00081     0.76159
      H   16    0.24834      0.00000     0.74968    0.00198     0.75166
      H   17    0.24591      0.00000     0.75206    0.00203     0.75409
      H   18    0.23094      0.00000     0.76809    0.00098     0.76906
      H   19    0.23540      0.00000     0.76377    0.00083     0.76460
      H   20    0.24298      0.00000     0.75586    0.00116     0.75702
      H   21    0.24880      0.00000     0.74999    0.00120     0.75120
      H   22    0.23552      0.00000     0.76353    0.00095     0.76448
      H   23    0.24048      0.00000     0.75835    0.00117     0.75952
      H   24    0.23227      0.00000     0.76657    0.00116     0.76773
      H   25    0.24257      0.00000     0.75637    0.00106     0.75743
      H   26    0.22852      0.00000     0.77054    0.00094     0.77148
      H   27    0.24134      0.00000     0.75761    0.00105     0.75866
      H   28    0.24233      0.00000     0.75660    0.00106     0.75767
      H   29    0.23448      0.00000     0.76454    0.00097     0.76552
      H   30    0.23195      0.00000     0.76668    0.00137     0.76805
 =======================================================================
   * Total *    0.00000     27.98938    75.75181    0.25881   104.00000

 Normal termination of Gaussian 09 at Fri Oct  1 05:52:53 2021.
