 Gaussian 09, Revision A.02,

 -----------------------------------
 #p opt b3lyp/6-31G* scf=(xqc,tight)
 -----------------------------------

 -----------------------------------
 CCN(C(=O)Oc1ccc2c(c1)OCO2)CC_conf_0
 -----------------------------------
 Symbolic Z-matrix:
 Charge =  0 Multiplicity = 1

 SCF Done:  E(RB3LYP) =  -821.940870108     A.U. after   15 cycles
 SCF Done:  E(RB3LYP) =  -821.950718896     A.U. after   12 cycles
 SCF Done:  E(RB3LYP) =  -821.951615595     A.U. after   12 cycles
 SCF Done:  E(RB3LYP) =  -821.951554699     A.U. after   12 cycles
 SCF Done:  E(RB3LYP) =  -821.951910097     A.U. after   11 cycles
 SCF Done:  E(RB3LYP) =  -821.952028775     A.U. after   12 cycles
 SCF Done:  E(RB3LYP) =  -821.952088373     A.U. after   11 cycles
 SCF Done:  E(RB3LYP) =  -821.952116576     A.U. after   11 cycles
 SCF Done:  E(RB3LYP) =  -821.952141694     A.U. after   11 cycles
 SCF Done:  E(RB3LYP) =  -821.952157305     A.U. after   11 cycles
 SCF Done:  E(RB3LYP) =  -821.952158749     A.U. after    8 cycles
 SCF Done:  E(RB3LYP) =  -821.952159278     A.U. after    8 cycles
 SCF Done:  E(RB3LYP) =  -821.952159481     A.U. after    7 cycles
 SCF Done:  E(RB3LYP) =  -821.952159716     A.U. after    8 cycles
 SCF Done:  E(RB3LYP) =  -821.952160083     A.U. after    8 cycles
 SCF Done:  E(RB3LYP) =  -821.952160567     A.U. after    9 cycles
 SCF Done:  E(RB3LYP) =  -821.952160661     A.U. after    7 cycles
 Optimization completed.
    -- Stationary point found.
 Normal termination of Gaussian 09 at Wed Sep 29 21:23:37 2021.

 ----------------------------------------------------------------------
 #p freq b3lyp/6-31G* volume NMR pop=NPA density=current Geom=AllCheck
 Guess=Read
 ----------------------------------------------------------------------

 CCN(C(=O)Oc1ccc2c(c1)OCO2)CC_conf_0
 -----------------------------------
 Redundant internal coordinates taken from checkpoint file:
 C12H15NO4_e08f_conf_0.chk
 Charge =  0 Multiplicity = 1

 SCF Done:  E(RB3LYP) =  -821.952160661     A.U. after    1 cycles

  1  C    Isotropic =   171.9785   Anisotropy =    24.5613

  2  C    Isotropic =   143.0250   Anisotropy =    47.0572

  3  N    Isotropic =   158.0487   Anisotropy =    67.8814

  4  C    Isotropic =    46.6970   Anisotropy =    77.1386

  5  O    Isotropic =    60.1299   Anisotropy =   384.7773

  6  O    Isotropic =   144.1845   Anisotropy =   141.7497

  7  C    Isotropic =    50.0512   Anisotropy =    99.3926

  8  C    Isotropic =    78.8837   Anisotropy =   142.4165

  9  C    Isotropic =    87.9076   Anisotropy =   136.0661

 10  C    Isotropic =    52.9565   Anisotropy =    89.2610

 11  C    Isotropic =    49.5789   Anisotropy =    93.0930

 12  C    Isotropic =    93.0297   Anisotropy =   111.9841

 13  O    Isotropic =   216.5293   Anisotropy =   124.8750

 14  C    Isotropic =    89.6001   Anisotropy =    48.3121

 15  O    Isotropic =   220.7450   Anisotropy =   125.6941

 16  C    Isotropic =   141.3664   Anisotropy =    49.4779

 17  C    Isotropic =   173.1649   Anisotropy =    23.4466

 18  H    Isotropic =    31.2516   Anisotropy =    10.0610

 19  H    Isotropic =    30.8653   Anisotropy =     6.5835

 20  H    Isotropic =    30.5442   Anisotropy =     6.3542

 21  H    Isotropic =    29.5151   Anisotropy =     6.5843

 22  H    Isotropic =    28.2648   Anisotropy =     4.6987

 23  H    Isotropic =    25.5558   Anisotropy =     7.9786

 24  H    Isotropic =    25.7828   Anisotropy =     3.6419

 25  H    Isotropic =    26.0868   Anisotropy =     6.5217

 26  H    Isotropic =    26.2098   Anisotropy =     7.6868

 27  H    Isotropic =    26.0896   Anisotropy =     6.5686

 28  H    Isotropic =    29.6421   Anisotropy =     6.4840

 29  H    Isotropic =    28.1819   Anisotropy =     6.6736

 30  H    Isotropic =    31.0969   Anisotropy =     6.4446

 31  H    Isotropic =    31.3795   Anisotropy =    10.4864

 32  H    Isotropic =    30.4428   Anisotropy =     5.5310

  Exact polarizability: 204.623  -2.104 133.882  -7.409   7.073  92.538
 Approx polarizability: 263.948   2.191 220.799 -18.357  16.270 140.047

                     1                      2                      3
                     A                      A                      A
 Frequencies --    19.3313                35.0463                46.4642
 Red. masses --     4.2961                 4.7637                 2.7844
 Frc consts  --     0.0009                 0.0034                 0.0035
 IR Inten    --     0.0888                 1.8068                 0.0251

                     4                      5                      6
                     A                      A                      A
 Frequencies --    60.7445                76.9793                87.8455
 Red. masses --     2.4387                 4.0077                 2.8198
 Frc consts  --     0.0053                 0.0140                 0.0128
 IR Inten    --     5.7217                 2.8857                 0.5591

                     7                      8                      9
                     A                      A                      A
 Frequencies --   114.4708               131.1530               176.4187
 Red. masses --     5.6670                 4.1165                 3.1197
 Frc consts  --     0.0438                 0.0417                 0.0572
 IR Inten    --     1.9000                 0.1333                 1.0110

                    10                     11                     12
                     A                      A                      A
 Frequencies --   222.8041               230.5799               243.5006
 Red. masses --     2.1252                 1.3627                 4.4364
 Frc consts  --     0.0622                 0.0427                 0.1550
 IR Inten    --     1.0485                 1.7102                 0.2051

                    13                     14                     15
                     A                      A                      A
 Frequencies --   255.5029               288.7096               334.0126
 Red. masses --     1.8782                 2.6051                 5.2101
 Frc consts  --     0.0722                 0.1279                 0.3425
 IR Inten    --     0.7910                 0.9621                 5.8889

                    16                     17                     18
                     A                      A                      A
 Frequencies --   361.6435               402.8071               434.3204
 Red. masses --     6.6475                 2.8901                 3.1929
 Frc consts  --     0.5122                 0.2763                 0.3549
 IR Inten    --     0.8955                12.0083                 1.4590

                    19                     20                     21
                     A                      A                      A
 Frequencies --   440.7573               455.5494               485.2498
 Red. masses --     3.1699                 4.7853                 3.4582
 Frc consts  --     0.3628                 0.5851                 0.4798
 IR Inten    --     3.3800                 1.1254                 8.7438

                    22                     23                     24
                     A                      A                      A
 Frequencies --   568.7657               596.9483               622.4432
 Red. masses --     5.4208                 4.5895                 4.4722
 Frc consts  --     1.0332                 0.9636                 1.0209
 IR Inten    --     5.4756                10.1834                 0.9427

                    25                     26                     27
                     A                      A                      A
 Frequencies --   659.5322               701.0346               734.2889
 Red. masses --     4.5420                 5.7627                 8.1767
 Frc consts  --     1.1641                 1.6686                 2.5976
 IR Inten    --     2.6174                 0.6498                 0.1741

                    28                     29                     30
                     A                      A                      A
 Frequencies --   748.8362               778.8166               784.4678
 Red. masses --    10.4878                 1.9474                 1.6965
 Frc consts  --     3.4650                 0.6959                 0.6151
 IR Inten    --    17.3337                13.6572                11.1226

                    31                     32                     33
                     A                      A                      A
 Frequencies --   792.2482               805.2229               827.5431
 Red. masses --     1.7331                 1.5344                 2.5766
 Frc consts  --     0.6409                 0.5862                 1.0396
 IR Inten    --     8.6727                10.8877                 7.6899

                    34                     35                     36
                     A                      A                      A
 Frequencies --   838.5157               866.9130               914.8031
 Red. masses --     2.7421                 1.8214                 1.2907
 Frc consts  --     1.1359                 0.8065                 0.6364
 IR Inten    --     5.3942                26.9238                 0.9254

                    37                     38                     39
                     A                      A                      A
 Frequencies --   930.7201               955.5466               975.9484
 Red. masses --     2.8856                 2.4949                 6.8223
 Frc consts  --     1.4727                 1.3422                 3.8285
 IR Inten    --    10.1045                 8.4306                33.3261

                    40                     41                     42
                     A                      A                      A
 Frequencies --   989.8858              1060.7918              1073.3331
 Red. masses --     2.9860                 2.7769                 4.9765
 Frc consts  --     1.7239                 1.8411                 3.3779
 IR Inten    --    78.0625                27.9018               116.4015

                    43                     44                     45
                     A                      A                      A
 Frequencies --  1103.0184              1120.3994              1124.3905
 Red. masses --     1.9441                 1.8543                 1.6415
 Frc consts  --     1.3936                 1.3714                 1.2228
 IR Inten    --     5.9203                57.4665                38.2654

                    46                     47                     48
                     A                      A                      A
 Frequencies --  1126.3698              1152.9555              1162.2820
 Red. masses --     2.1120                 1.4986                 1.6586
 Frc consts  --     1.5787                 1.1737                 1.3201
 IR Inten    --    15.2042                11.0264                31.0888

                    49                     50                     51
                     A                      A                      A
 Frequencies --  1192.3526              1205.1285              1217.0063
 Red. masses --     2.3416                 1.7094                 1.4216
 Frc consts  --     1.9614                 1.4627                 1.2406
 IR Inten    --   154.3701               474.3883               213.2619

                    52                     53                     54
                     A                      A                      A
 Frequencies --  1262.9075              1290.1397              1302.3690
 Red. masses --     2.6084                 1.5003                 5.6412
 Frc consts  --     2.4512                 1.4713                 5.6375
 IR Inten    --    28.9660               130.1433                35.4869

                    55                     56                     57
                     A                      A                      A
 Frequencies --  1316.7901              1366.1768              1402.9620
 Red. masses --     1.6595                 1.3674                 1.4874
 Frc consts  --     1.6953                 1.5037                 1.7249
 IR Inten    --   279.6838                40.7326                10.4882

                    58                     59                     60
                     A                      A                      A
 Frequencies --  1404.5910              1420.1355              1435.1904
 Red. masses --     3.3363                 1.3414                 1.2747
 Frc consts  --     3.8781                 1.5939                 1.5469
 IR Inten    --    12.5565                44.8670                25.7069

                    61                     62                     63
                     A                      A                      A
 Frequencies --  1439.3936              1448.7815              1455.9755
 Red. masses --     1.3230                 1.3949                 1.7629
 Frc consts  --     1.6150                 1.7251                 2.2018
 IR Inten    --    76.0256                 3.3763               210.1303

                    64                     65                     66
                     A                      A                      A
 Frequencies --  1495.1789              1503.6800              1517.1793
 Red. masses --     3.8538                 1.0696                 1.0483
 Frc consts  --     5.0761                 1.4249                 1.4216
 IR Inten    --    24.2488                 6.4267                 1.7601

                    67                     68                     69
                     A                      A                      A
 Frequencies --  1521.7956              1526.9017              1532.9059
 Red. masses --     1.1617                 1.0471                 1.0701
 Frc consts  --     1.5852                 1.4384                 1.4815
 IR Inten    --   128.4720                 6.4531                22.8725

                    70                     71                     72
                     A                      A                      A
 Frequencies --  1539.5949              1542.9583              1575.9664
 Red. masses --     1.3509                 1.8184                 1.1525
 Frc consts  --     1.8867                 2.5507                 1.6865
 IR Inten    --   128.9854                96.6362                 0.1577

                    73                     74                     75
                     A                      A                      A
 Frequencies --  1671.6130              1682.9882              1810.1661
 Red. masses --     7.2290                 8.4378                11.4719
 Frc consts  --    11.9014                14.0813                22.1475
 IR Inten    --    11.7158                 4.8552               356.6962

                    76                     77                     78
                     A                      A                      A
 Frequencies --  3026.7243              3055.1363              3057.6741
 Red. masses --     1.0660                 1.0362                 1.0367
 Frc consts  --     5.7539                 5.6986                 5.7107
 IR Inten    --   145.2159                10.2263                32.2920

                    79                     80                     81
                     A                      A                      A
 Frequencies --  3067.0942              3075.5219              3111.3192
 Red. masses --     1.0657                 1.0640                 1.1054
 Frc consts  --     5.9065                 5.9298                 6.3045
 IR Inten    --     2.7841                64.0288                55.9928

                    82                     83                     84
                     A                      A                      A
 Frequencies --  3114.0390              3120.0242              3127.6676
 Red. masses --     1.1028                 1.1022                 1.0994
 Frc consts  --     6.3007                 6.3218                 6.3364
 IR Inten    --    17.1882                12.6767                37.8744

                    85                     86                     87
                     A                      A                      A
 Frequencies --  3130.3564              3145.0528              3149.8156
 Red. masses --     1.0978                 1.1035                 1.1043
 Frc consts  --     6.3383                 6.4307                 6.4552
 IR Inten    --    21.5367                19.0429                45.2377

                    88                     89                     90
                     A                      A                      A
 Frequencies --  3227.0878              3241.2176              3253.4415
 Red. masses --     1.0908                 1.0926                 1.0932
 Frc consts  --     6.6928                 6.7630                 6.8174
 IR Inten    --     5.7616                 0.7577                 1.3836

 - Thermochemistry -
 -------------------
 Temperature   298.150 Kelvin.  Pressure   1.00000 Atm.
 Atom     1 has atomic number  6 and mass  12.00000

 Molecular mass:   237.10011 amu.
 Principal axes and moments of inertia in atomic units:
                           1         2         3
     Eigenvalues --  1497.383378654.715289396.83690
           X            0.99997   0.00573   0.00447
           Y           -0.00571   0.99997  -0.00570
           Z           -0.00450   0.00567   0.99997
 This molecule is an asymmetric top.
 Rotational symmetry number  1.
 Warning -- assumption of classical behavior for rotation
           may cause significant error
 Rotational temperatures (Kelvin)      0.05784     0.01001     0.00922
 Rotational constants (GHZ):           1.20526     0.20853     0.19206
 Zero-point vibrational energy     687272.0 (Joules/Mol)
                                  164.26196 (Kcal/Mol)
 Warning -- explicit consideration of  23 degrees of freedom as
           vibrations may cause significant error
 Vibrational temperatures:     27.81    50.42    66.85    87.40   110.76
          (Kelvin)            126.39   164.70   188.70   253.83   320.56
                              331.75   350.34   367.61   415.39   480.57
                              520.32   579.55   624.89   634.15   655.43
                              698.17   818.33   858.87   895.56   948.92
                             1008.63  1056.48  1077.41  1120.54  1128.67
                             1139.87  1158.53  1190.65  1206.44  1247.29
                             1316.20  1339.10  1374.82  1404.17  1424.22
                             1526.24  1544.28  1587.00  1612.00  1617.75
                             1620.59  1658.84  1672.26  1715.53  1733.91
                             1751.00  1817.04  1856.22  1873.82  1894.56
                             1965.62  2018.55  2020.89  2043.26  2064.92
                             2070.96  2084.47  2094.82  2151.23  2163.46
                             2182.88  2189.52  2196.87  2205.51  2215.13
                             2219.97  2267.46  2405.08  2421.44  2604.42
                             4354.78  4395.65  4399.31  4412.86  4424.98
                             4476.49  4480.40  4489.01  4500.01  4503.88
                             4525.02  4531.88  4643.05  4663.38  4680.97

 Zero-point correction=                           0.261768 (Hartree/Particle)
 Thermal correction to Energy=                    0.278127
 Thermal correction to Enthalpy=                  0.279071
 Thermal correction to Gibbs Free Energy=         0.215447
 Sum of electronic and zero-point Energies=           -821.690393
 Sum of electronic and thermal Energies=              -821.674034
 Sum of electronic and thermal Enthalpies=            -821.673090
 Sum of electronic and thermal Free Energies=         -821.736714

                     E (Thermal)             CV                S
                      KCal/Mol        Cal/Mol-Kelvin    Cal/Mol-Kelvin
 Total                  174.527             60.187            133.908
 Electronic               0.000              0.000              0.000
 Translational            0.889              2.981             42.291
 Rotational               0.889              2.981             33.165
 Vibrational            172.750             54.226             58.452
 Vibration     1          0.593              1.986              6.702
 Vibration     2          0.594              1.982              5.521
 Vibration     3          0.595              1.979              4.962
 Vibration     4          0.597              1.973              4.433
 Vibration     5          0.599              1.965              3.966
 Vibration     6          0.601              1.958              3.707
 Vibration     7          0.607              1.937              3.192
 Vibration     8          0.612              1.922              2.929
 Vibration     9          0.628              1.871              2.366
 Vibration    10          0.648              1.806              1.936
 Vibration    11          0.652              1.794              1.874
 Vibration    12          0.659              1.774              1.777
 Vibration    13          0.666              1.753              1.692
 Vibration    14          0.685              1.695              1.482
 Vibration    15          0.716              1.608              1.241
 Vibration    16          0.736              1.551              1.115
 Vibration    17          0.768              1.464              0.952
 Vibration    18          0.795              1.395              0.845
 Vibration    19          0.801              1.381              0.824
 Vibration    20          0.814              1.349              0.779
 Vibration    21          0.841              1.283              0.696
 Vibration    22          0.925              1.099              0.507
 Vibration    23          0.955              1.038              0.455

 Optimization completed.
    -- Stationary point found.
 Normal termination of Gaussian 09 at Wed Sep 29 22:42:44 2021.
 Gaussian 09:  AM64L-G09RevA.02 11-Jun-2009

 ----------------------------------------------------------------------
 #p TD(NStates=10, Root=1) b3lyp/6-31G* volume pop=NPA density=current
 Geom=AllCheck Guess=Read
 ----------------------------------------------------------------------

 CCN(C(=O)Oc1ccc2c(c1)OCO2)CC_conf_0
 -----------------------------------
 Redundant internal coordinates taken from checkpoint file:
 C12H15NO4_e08f_conf_0.chk
 Charge =  0 Multiplicity = 1

                         Standard orientation:
 ---------------------------------------------------------------------
 Center     Atomic      Atomic             Coordinates (Angstroms)
 Number     Number       Type             X           Y           Z
 ---------------------------------------------------------------------
      1          6           0        3.191887    2.404564   -0.156010
      2          6           0        3.213546    1.178749   -1.075221
      3          7           0        3.009722   -0.101559   -0.387386
      4          6           0        1.774776   -0.597668   -0.089769
      5          8           0        1.560549   -1.636672    0.505753
      6          8           0        0.785478    0.242287   -0.566249
      7          6           0       -0.553067   -0.102308   -0.386997
      8          6           0       -1.060948   -1.337177   -0.782882
      9          6           0       -2.435103   -1.609817   -0.660774
     10          6           0       -3.239275   -0.609673   -0.152358
     11          6           0       -2.718450    0.622347    0.233044
     12          6           0       -1.372952    0.913065    0.134354
     13          8           0       -3.724436    1.420881    0.721706
     14          6           0       -4.939272    0.698829    0.480795
     15          8           0       -4.596410   -0.631897    0.083358
     16          6           0        4.160328   -0.873274    0.100284
     17          6           0        4.493185   -0.642774    1.577420
     18          1           0        3.335552    3.318303   -0.744840
     19          1           0        3.985507    2.358671    0.596848
     20          1           0        2.230202    2.479527    0.360640
     21          1           0        4.178460    1.111755   -1.589786
     22          1           0        2.445481    1.280785   -1.844745
     23          1           0       -0.390464   -2.093408   -1.169618
     24          1           0       -2.845886   -2.569488   -0.954326
     25          1           0       -0.958387    1.867708    0.435400
     26          1           0       -5.501892    1.190862   -0.325458
     27          1           0       -5.528270    0.664015    1.402061
     28          1           0        5.014800   -0.610063   -0.532215
     29          1           0        3.940174   -1.932050   -0.060539
     30          1           0        4.754523    0.401943    1.776770
     31          1           0        5.344754   -1.267655    1.871549
     32          1           0        3.638020   -0.915960    2.202105
 ---------------------------------------------------------------------

 SCF Done:  E(RB3LYP) =  -821.952160661     A.U. after    2 cycles

 Excitation energies and oscillator strengths:

 Excited State   1:      Singlet-A      4.8658 eV  254.81 nm  f=0.0993  <S**2>=0.000
      61 -> 65        -0.22128
      62 -> 65        -0.16484
      63 -> 64         0.64633
 This state for optimization and/or second-order correction.
 Total Energy, E(TD-HF/TD-KS) =  -821.773345132
 Copying the excited state density for this state as the 1-particle RhoCI density.

 Excited State   2:      Singlet-A      5.4097 eV  229.19 nm  f=0.0947  <S**2>=0.000
      61 -> 64         0.13546
      62 -> 64         0.13912
      63 -> 65         0.67165

 Excited State   3:      Singlet-A      5.9971 eV  206.74 nm  f=0.0028  <S**2>=0.000
      61 -> 64        -0.35723
      62 -> 64         0.60383

 Excited State   4:      Singlet-A      6.2534 eV  198.27 nm  f=0.1952  <S**2>=0.000
      61 -> 65        -0.10718
      62 -> 65         0.50633
      63 -> 66         0.44791

 Excited State   5:      Singlet-A      6.2791 eV  197.46 nm  f=0.0095  <S**2>=0.000
      60 -> 65         0.11263
      61 -> 64        -0.16709
      61 -> 65         0.21661
      62 -> 65        -0.39817
      63 -> 66         0.48228

 Excited State   6:      Singlet-A      6.4082 eV  193.48 nm  f=0.0459  <S**2>=0.000
      60 -> 64         0.37846
      60 -> 65         0.25639
      60 -> 66         0.19686
      61 -> 64        -0.30334
      61 -> 65        -0.29141
      62 -> 64        -0.14052
      62 -> 66        -0.11380
      63 -> 66        -0.11659

 Excited State   7:      Singlet-A      6.5941 eV  188.02 nm  f=0.2421  <S**2>=0.000
      60 -> 64         0.21954
      60 -> 65        -0.32483
      60 -> 66        -0.15686
      61 -> 64        -0.30167
      61 -> 65         0.32876
      62 -> 64        -0.19203
      62 -> 66         0.13702
      63 -> 64         0.10266
      63 -> 66        -0.14458

 Excited State   8:      Singlet-A      6.7315 eV  184.18 nm  f=0.1988  <S**2>=0.000
      59 -> 65        -0.12743
      60 -> 64         0.42659
      60 -> 65         0.15830
      60 -> 66         0.11866
      61 -> 64         0.30283
      61 -> 65         0.27668
      62 -> 64         0.16206
      62 -> 65         0.12880
      63 -> 64         0.12943
      63 -> 65        -0.10021

 Excited State   9:      Singlet-A      6.8441 eV  181.15 nm  f=0.2572  <S**2>=0.000
      59 -> 64         0.16213
      60 -> 64        -0.32960
      60 -> 65         0.35370
      60 -> 66         0.20563
      61 -> 64        -0.13286
      61 -> 65         0.28068
      62 -> 64        -0.10720
      62 -> 65         0.14344
      63 -> 64         0.15311
      63 -> 66        -0.12527

 Excited State  10:      Singlet-A      6.9636 eV  178.05 nm  f=0.0046  <S**2>=0.000
      63 -> 67        -0.22280
      63 -> 68         0.64562
      63 -> 70         0.13293

 The electronic state is 1-A.
 Alpha  occ. eigenvalues --  -19.19226 -19.19196 -19.19023 -19.11407 -14.36294
 Alpha  occ. eigenvalues --  -10.32805 -10.30568 -10.24954 -10.24873 -10.24516
 Alpha  occ. eigenvalues --  -10.22632 -10.22141 -10.19577 -10.19520 -10.18795
 Alpha  occ. eigenvalues --  -10.18288 -10.17651  -1.12409  -1.10162  -1.03305
 Alpha  occ. eigenvalues --   -1.01144  -0.93763  -0.85795  -0.77329  -0.76431
 Alpha  occ. eigenvalues --   -0.75656  -0.73841  -0.68197  -0.65624  -0.63977
 Alpha  occ. eigenvalues --   -0.62601  -0.61639  -0.57113  -0.53036  -0.52205
 Alpha  occ. eigenvalues --   -0.51953  -0.50909  -0.48593  -0.47194  -0.46576
 Alpha  occ. eigenvalues --   -0.44808  -0.44507  -0.43960  -0.43322  -0.42843
 Alpha  occ. eigenvalues --   -0.41549  -0.40002  -0.39485  -0.38752  -0.38523
 Alpha  occ. eigenvalues --   -0.37944  -0.37850  -0.36554  -0.36360  -0.36164
 Alpha  occ. eigenvalues --   -0.35540  -0.34161  -0.32211  -0.29204  -0.27028
 Alpha  occ. eigenvalues --   -0.24420  -0.23868  -0.20102
 Alpha virt. eigenvalues --    0.00176   0.01407   0.05489   0.08547   0.09316
 Alpha virt. eigenvalues --    0.10353   0.10850   0.11244   0.12019   0.12979
 Alpha virt. eigenvalues --    0.14223   0.15416   0.15672   0.15733   0.15746

 Mulliken atomic charges:
              1
     1  C   -0.445602
     2  C   -0.134084
     3  N   -0.445435
     4  C    0.788665
     5  O   -0.513898
     6  O   -0.552748
     7  C    0.351220
     8  C   -0.144590
     9  C   -0.226814
    10  C    0.321038
    11  C    0.302923
    12  C   -0.262418
    13  O   -0.500423
    14  C    0.183310
    15  O   -0.491376
    16  C   -0.133535
    17  C   -0.448247
    18  H    0.146038
    19  H    0.151798
    20  H    0.166777
    21  H    0.144572
    22  H    0.174910
    23  H    0.152972
    24  H    0.134119
    25  H    0.134054
    26  H    0.177313
    27  H    0.183135
    28  H    0.138991
    29  H    0.176983
    30  H    0.145653
    31  H    0.144958
    32  H    0.179741
 Sum of Mulliken atomic charges =  -0.00000

 Dipole moment (field-independent basis, Debye):
    X=              0.0433    Y=              2.3106    Z=             -0.9050  Tot=              2.4818
 Quadrupole moment (field-independent basis, Debye-Ang):
   XX=            -69.8753   YY=           -100.9773   ZZ=            -99.2891
   XY=             -1.2734   XZ=             -4.4528   YZ=              2.0486

 Summary of Natural Population Analysis:

                                       Natural Population
                Natural  -----------------------------------------------
    Atom  No    Charge         Core      Valence    Rydberg      Total
 -----------------------------------------------------------------------
      C    1   -0.68638      1.99945     4.67960    0.00733     6.68638
      C    2   -0.25736      1.99934     4.24278    0.01524     6.25736
      N    3   -0.49870      1.99930     5.48622    0.01319     7.49870
      C    4    0.93714      1.99937     3.01761    0.04589     5.06286
      O    5   -0.64257      1.99978     6.62364    0.01915     8.64257
      O    6   -0.54454      1.99969     6.53440    0.01044     8.54454
      C    7    0.32778      1.99876     3.65028    0.02318     5.67222
      C    8   -0.23678      1.99904     4.22187    0.01587     6.23678
      C    9   -0.36117      1.99903     4.34125    0.02088     6.36117
      C   10    0.25444      1.99868     3.72409    0.02279     5.74556
      C   11    0.24043      1.99870     3.73740    0.02347     5.75957
      C   12   -0.40229      1.99894     4.38116    0.02219     6.40229
      O   13   -0.48107      1.99977     6.46932    0.01198     8.48107
      C   14    0.21301      1.99942     3.76381    0.02375     5.78699
      O   15   -0.47058      1.99977     6.45901    0.01180     8.47058
      C   16   -0.25252      1.99935     4.23757    0.01559     6.25252
      C   17   -0.68775      1.99945     4.68096    0.00734     6.68775
      H   18    0.23415      0.00000     0.76487    0.00097     0.76585
      H   19    0.22580      0.00000     0.77320    0.00100     0.77420
      H   20    0.23816      0.00000     0.76046    0.00138     0.76184
      H   21    0.22993      0.00000     0.76856    0.00151     0.77007
      H   22    0.25123      0.00000     0.74714    0.00164     0.74877
      H   23    0.25395      0.00000     0.74494    0.00112     0.74605
      H   24    0.24401      0.00000     0.75503    0.00096     0.75599
      H   25    0.24878      0.00000     0.75003    0.00119     0.75122
      H   26    0.21611      0.00000     0.78089    0.00299     0.78389
      H   27    0.22566      0.00000     0.77269    0.00165     0.77434
      H   28    0.22626      0.00000     0.77235    0.00139     0.77374
      H   29    0.25277      0.00000     0.74517    0.00207     0.74723
      H   30    0.22193      0.00000     0.77704    0.00103     0.77807
      H   31    0.23374      0.00000     0.76535    0.00090     0.76626
      H   32    0.24644      0.00000     0.75224    0.00132     0.75356
 =======================================================================
   * Total *   -0.00000     33.98785    91.68095    0.33120   126.00000

 Normal termination of Gaussian 09 at Thu Sep 30 04:27:05 2021.
