 Gaussian 09, Revision A.02,

 -----------------------------------
 #p opt b3lyp/6-31G* scf=(xqc,tight)
 -----------------------------------

 ------------------------------------
 O=C(C(C)(C)C)Oc1ccc2c(c1)OCO2_conf_0
 ------------------------------------
 Symbolic Z-matrix:
 Charge =  0 Multiplicity = 1

 SCF Done:  E(RB3LYP) =  -766.583405726     A.U. after   15 cycles
 SCF Done:  E(RB3LYP) =  -766.591870287     A.U. after   16 cycles
 SCF Done:  E(RB3LYP) =  -766.592802205     A.U. after   12 cycles
 SCF Done:  E(RB3LYP) =  -766.591451747     A.U. after   12 cycles
 SCF Done:  E(RB3LYP) =  -766.592975133     A.U. after   11 cycles
 SCF Done:  E(RB3LYP) =  -766.593224531     A.U. after   12 cycles
 SCF Done:  E(RB3LYP) =  -766.593348436     A.U. after   14 cycles
 SCF Done:  E(RB3LYP) =  -766.593553192     A.U. after   11 cycles
 SCF Done:  E(RB3LYP) =  -766.593656835     A.U. after   16 cycles
 SCF Done:  E(RB3LYP) =  -766.593680848     A.U. after   10 cycles
 SCF Done:  E(RB3LYP) =  -766.593739472     A.U. after   11 cycles
 SCF Done:  E(RB3LYP) =  -766.593742440     A.U. after   10 cycles
 SCF Done:  E(RB3LYP) =  -766.593746896     A.U. after   10 cycles
 SCF Done:  E(RB3LYP) =  -766.593752885     A.U. after   11 cycles
 SCF Done:  E(RB3LYP) =  -766.593759072     A.U. after   12 cycles
 SCF Done:  E(RB3LYP) =  -766.593760705     A.U. after   11 cycles
 SCF Done:  E(RB3LYP) =  -766.593760772     A.U. after    9 cycles
 SCF Done:  E(RB3LYP) =  -766.593760931     A.U. after    8 cycles
 Optimization completed.
    -- Stationary point found.
 Normal termination of Gaussian 09 at Wed Sep 29 10:02:38 2021.

 ----------------------------------------------------------------------
 #p freq b3lyp/6-31G* volume NMR pop=NPA density=current Geom=AllCheck
 Guess=Read
 ----------------------------------------------------------------------

 O=C(C(C)(C)C)Oc1ccc2c(c1)OCO2_conf_0
 ------------------------------------
 Redundant internal coordinates taken from checkpoint file:
 C12H14O4_b865_conf_0.chk
 Charge =  0 Multiplicity = 1

 SCF Done:  E(RB3LYP) =  -766.593760931     A.U. after    1 cycles

  1  O    Isotropic =   -63.4001   Anisotropy =   575.9390

  2  C    Isotropic =    22.6380   Anisotropy =    77.8514

  3  C    Isotropic =   149.0752   Anisotropy =    24.0825

  4  C    Isotropic =   162.3218   Anisotropy =    37.6498

  5  C    Isotropic =   162.0482   Anisotropy =    37.5609

  6  C    Isotropic =   162.8548   Anisotropy =    31.3401

  7  O    Isotropic =   109.9313   Anisotropy =   155.8308

  8  C    Isotropic =    50.4346   Anisotropy =    99.7704

  9  C    Isotropic =    79.2871   Anisotropy =   141.5778

 10  C    Isotropic =    87.7627   Anisotropy =   136.3636

 11  C    Isotropic =    52.3713   Anisotropy =    90.3399

 12  C    Isotropic =    49.1760   Anisotropy =    94.2519

 13  C    Isotropic =    93.1285   Anisotropy =   113.5896

 14  O    Isotropic =   215.5374   Anisotropy =   123.2137

 15  C    Isotropic =    89.6618   Anisotropy =    48.0413

 16  O    Isotropic =   219.5724   Anisotropy =   124.0250

 17  H    Isotropic =    30.4326   Anisotropy =     7.1591

 18  H    Isotropic =    30.9103   Anisotropy =     8.0258

 19  H    Isotropic =    31.1451   Anisotropy =     7.8650

 20  H    Isotropic =    30.4924   Anisotropy =     6.2496

 21  H    Isotropic =    31.1340   Anisotropy =     7.8550

 22  H    Isotropic =    30.8980   Anisotropy =     8.1211

 23  H    Isotropic =    30.7208   Anisotropy =     7.9692

 24  H    Isotropic =    30.6720   Anisotropy =     8.1073

 25  H    Isotropic =    31.5123   Anisotropy =     7.8200

 26  H    Isotropic =    25.6557   Anisotropy =     7.7171

 27  H    Isotropic =    25.7535   Anisotropy =     3.6973

 28  H    Isotropic =    26.0907   Anisotropy =     6.3371

 29  H    Isotropic =    26.2196   Anisotropy =     7.6941

 30  H    Isotropic =    26.1043   Anisotropy =     6.5346

  Exact polarizability: 191.189  -4.512 125.826   4.418  -2.066  86.577
 Approx polarizability: 248.484  -5.323 215.625   8.632   1.209 131.658

                     1                      2                      3
                     A                      A                      A
 Frequencies --    14.3777                42.4632                43.5843
 Red. masses --     3.7776                 4.9431                 5.1218
 Frc consts  --     0.0005                 0.0053                 0.0057
 IR Inten    --     0.2511                 0.5111                 0.8570

                     4                      5                      6
                     A                      A                      A
 Frequencies --    76.0938                89.4796               171.9719
 Red. masses --     3.4438                 3.2661                 4.7180
 Frc consts  --     0.0117                 0.0154                 0.0822
 IR Inten    --     6.4142                 2.5033                 1.2610

                     7                      8                      9
                     A                      A                      A
 Frequencies --   202.8591               209.2039               228.6657
 Red. masses --     2.9541                 1.6296                 1.6113
 Frc consts  --     0.0716                 0.0420                 0.0496
 IR Inten    --     0.6572                 0.5143                 0.3881

                    10                     11                     12
                     A                      A                      A
 Frequencies --   242.4409               268.2822               275.6033
 Red. masses --     5.2948                 1.0930                 1.2624
 Frc consts  --     0.1834                 0.0464                 0.0565
 IR Inten    --     0.3531                 0.2891                 0.2380

                    13                     14                     15
                     A                      A                      A
 Frequencies --   297.0541               336.1659               353.4022
 Red. masses --     2.9737                 4.2089                 3.1695
 Frc consts  --     0.1546                 0.2802                 0.2332
 IR Inten    --     3.2903                 3.5649                 5.4854

                    16                     17                     18
                     A                      A                      A
 Frequencies --   366.8572               381.1059               423.1865
 Red. masses --     3.9903                 3.2145                 3.5232
 Frc consts  --     0.3164                 0.2751                 0.3717
 IR Inten    --     1.7724                 0.5531                 3.4486

                    19                     20                     21
                     A                      A                      A
 Frequencies --   440.2763               473.4362               545.8209
 Red. masses --     3.2891                 4.4347                 6.3824
 Frc consts  --     0.3756                 0.5856                 1.1203
 IR Inten    --     1.4949                 5.6348                 7.1595

                    22                     23                     24
                     A                      A                      A
 Frequencies --   580.0271               613.7228               646.1793
 Red. masses --     4.1004                 4.3598                 5.1409
 Frc consts  --     0.8128                 0.9675                 1.2647
 IR Inten    --     1.9218                 3.4461                 2.1050

                    25                     26                     27
                     A                      A                      A
 Frequencies --   700.9027               733.0967               758.3550
 Red. masses --     6.0586                 8.2380                 6.5690
 Frc consts  --     1.7536                 2.6085                 2.2258
 IR Inten    --     0.6592                 0.5488                 2.6750

                    28                     29                     30
                     A                      A                      A
 Frequencies --   777.8205               796.0946               824.7523
 Red. masses --     6.9489                 2.0393                 2.0502
 Frc consts  --     2.4770                 0.7615                 0.8217
 IR Inten    --     9.1603                14.2966                 6.9760

                    31                     32                     33
                     A                      A                      A
 Frequencies --   832.0252               859.1553               898.9478
 Red. masses --     5.3739                 1.5596                 3.2638
 Frc consts  --     2.1918                 0.6783                 1.5539
 IR Inten    --     8.4918                12.7917                22.8059

                    34                     35                     36
                     A                      A                      A
 Frequencies --   916.7076               948.0790               955.5380
 Red. masses --     1.3630                 1.7598                 1.8734
 Frc consts  --     0.6748                 0.9320                 1.0078
 IR Inten    --     1.6255                 1.4283                11.9058

                    37                     38                     39
                     A                      A                      A
 Frequencies --   961.7459               978.0064               980.0349
 Red. masses --     2.8291                 6.9900                 1.1993
 Frc consts  --     1.5418                 3.9392                 0.6787
 IR Inten    --    20.7692                27.3295                 0.0186

                    40                     41                     42
                     A                      A                      A
 Frequencies --  1057.4808              1059.2005              1072.0942
 Red. masses --     1.4720                 1.4423                 4.4150
 Frc consts  --     0.9698                 0.9533                 2.9898
 IR Inten    --    42.9028                14.9809               127.0190

                    43                     44                     45
                     A                      A                      A
 Frequencies --  1116.2095              1146.1850              1154.1593
 Red. masses --     2.4473                 1.9673                 1.5887
 Frc consts  --     1.7965                 1.5227                 1.2469
 IR Inten    --    36.0668               162.6871                22.5534

                    46                     47                     48
                     A                      A                      A
 Frequencies --  1166.0408              1199.3043              1218.6322
 Red. masses --     2.4710                 1.8552                 1.2620
 Frc consts  --     1.9795                 1.5721                 1.1042
 IR Inten    --   488.9043               257.5641                56.9087

                    49                     50                     51
                     A                      A                      A
 Frequencies --  1242.9298              1263.7593              1290.7779
 Red. masses --     2.6683                 2.7733                 1.4614
 Frc consts  --     2.4287                 2.6096                 1.4346
 IR Inten    --     2.2215                 9.6585                62.1931

                    52                     53                     54
                     A                      A                      A
 Frequencies --  1299.2680              1310.0813              1405.4108
 Red. masses --     6.0390                 3.1555                 6.2533
 Frc consts  --     6.0064                 3.1909                 7.2772
 IR Inten    --    76.7104                68.3925                 7.0386

                    55                     56                     57
                     A                      A                      A
 Frequencies --  1420.5281              1429.6449              1448.0276
 Red. masses --     1.2100                 1.2318                 1.3965
 Frc consts  --     1.4386                 1.4833                 1.7252
 IR Inten    --     3.9147                 4.9223                 2.2914

                    58                     59                     60
                     A                      A                      A
 Frequencies --  1457.8229              1492.9253              1508.3689
 Red. masses --     1.2227                 3.8811                 1.0486
 Frc consts  --     1.5311                 5.0966                 1.4057
 IR Inten    --    16.8181                12.4351                 0.0221

                    61                     62                     63
                     A                      A                      A
 Frequencies --  1515.4435              1520.6934              1530.2005
 Red. masses --     1.0452                 1.0460                 1.0503
 Frc consts  --     1.4143                 1.4252                 1.4490
 IR Inten    --     0.3746                 0.0607                 7.8807

                    64                     65                     66
                     A                      A                      A
 Frequencies --  1532.2641              1537.1480              1551.1031
 Red. masses --     1.0984                 2.6470                 1.0805
 Frc consts  --     1.5195                 3.6850                 1.5317
 IR Inten    --    31.7671               366.5239                 7.3250

                    67                     68                     69
                     A                      A                      A
 Frequencies --  1574.0902              1670.8500              1682.6556
 Red. masses --     1.1582                 7.1575                 8.4860
 Frc consts  --     1.6908                11.7730                14.1561
 IR Inten    --     0.6067                12.6086                 7.5261

                    70                     71                     72
                     A                      A                      A
 Frequencies --  1833.1611              3027.3084              3049.9582
 Red. masses --    12.7011                 1.0668                 1.0356
 Frc consts  --    25.1475                 5.7604                 5.6757
 IR Inten    --   183.6851               134.9625                27.9578

                    73                     74                     75
                     A                      A                      A
 Frequencies --  3052.1618              3061.3830              3113.5435
 Red. masses --     1.0361                 1.0365                 1.1032
 Frc consts  --     5.6869                 5.7232                 6.3009
 IR Inten    --    10.9764                27.0997                11.4565

                    76                     77                     78
                     A                      A                      A
 Frequencies --  3115.4315              3119.7174              3129.1854
 Red. masses --     1.1024                 1.1045                 1.1018
 Frc consts  --     6.3041                 6.3338                 6.3566
 IR Inten    --    25.0208                53.7863                40.5582

                    79                     80                     81
                     A                      A                      A
 Frequencies --  3138.4523              3140.0719              3143.5809
 Red. masses --     1.1028                 1.1018                 1.1009
 Frc consts  --     6.3997                 6.4010                 6.4100
 IR Inten    --    13.2241                11.2137                42.9805

                    82                     83                     84
                     A                      A                      A
 Frequencies --  3227.8232              3242.5524              3248.4162
 Red. masses --     1.0904                 1.0927                 1.0936
 Frc consts  --     6.6936                 6.7693                 6.7990
 IR Inten    --     5.1677                 0.3023                 1.7403

 - Thermochemistry -
 -------------------
 Temperature   298.150 Kelvin.  Pressure   1.00000 Atm.
 Atom     1 has atomic number  8 and mass  15.99491

 Molecular mass:   222.08921 amu.
 Principal axes and moments of inertia in atomic units:
                           1         2         3
     Eigenvalues --  1137.676817610.088528114.41416
           X            0.99998   0.00470   0.00374
           Y           -0.00462   0.99977  -0.02109
           Z           -0.00384   0.02108   0.99977
 This molecule is an asymmetric top.
 Rotational symmetry number  1.
 Warning -- assumption of classical behavior for rotation
           may cause significant error
 Rotational temperatures (Kelvin)      0.07613     0.01138     0.01067
 Rotational constants (GHZ):           1.58634     0.23715     0.22241
 Zero-point vibrational energy     638564.0 (Joules/Mol)
                                  152.62047 (Kcal/Mol)
 Warning -- explicit consideration of  23 degrees of freedom as
           vibrations may cause significant error
 Vibrational temperatures:     20.69    61.09    62.71   109.48   128.74
          (Kelvin)            247.43   291.87   301.00   329.00   348.82
                              386.00   396.53   427.39   483.67   508.47
                              527.83   548.33   608.87   633.46   681.17
                              785.31   834.53   883.01   929.71  1008.44
                             1054.76  1091.10  1119.11  1145.40  1186.63
                             1197.10  1236.13  1293.38  1318.94  1364.07
                             1374.80  1383.74  1407.13  1410.05  1521.48
                             1523.95  1542.50  1605.97  1649.10  1660.58
                             1677.67  1725.53  1753.34  1788.30  1818.27
                             1857.14  1869.35  1884.91  2022.07  2043.82
                             2056.94  2083.39  2097.48  2147.98  2170.20
                             2180.38  2187.94  2201.61  2204.58  2211.61
                             2231.69  2264.76  2403.98  2420.96  2637.51
                             4355.62  4388.20  4391.37  4404.64  4479.69
                             4482.41  4488.57  4502.19  4515.53  4517.86
                             4522.91  4644.11  4665.30  4673.74

 Zero-point correction=                           0.243216 (Hartree/Particle)
 Thermal correction to Energy=                    0.258448
 Thermal correction to Enthalpy=                  0.259392
 Thermal correction to Gibbs Free Energy=         0.199065
 Sum of electronic and zero-point Energies=           -766.350545
 Sum of electronic and thermal Energies=              -766.335313
 Sum of electronic and thermal Enthalpies=            -766.334369
 Sum of electronic and thermal Free Energies=         -766.394696

                     E (Thermal)             CV                S
                      KCal/Mol        Cal/Mol-Kelvin    Cal/Mol-Kelvin
 Total                  162.178             57.355            126.968
 Electronic               0.000              0.000              0.000
 Translational            0.889              2.981             42.096
 Rotational               0.889              2.981             32.619
 Vibrational            160.401             51.393             52.253
 Vibration     1          0.593              1.986              7.290
 Vibration     2          0.595              1.980              5.141
 Vibration     3          0.595              1.980              5.089
 Vibration     4          0.599              1.965              3.989
 Vibration     5          0.602              1.957              3.671
 Vibration     6          0.626              1.877              2.414
 Vibration     7          0.639              1.836              2.107
 Vibration     8          0.642              1.827              2.051
 Vibration     9          0.651              1.797              1.889
 Vibration    10          0.659              1.775              1.785
 Vibration    11          0.673              1.731              1.607
 Vibration    12          0.677              1.718              1.561
 Vibration    13          0.691              1.679              1.433
 Vibration    14          0.717              1.603              1.230
 Vibration    15          0.730              1.568              1.151
 Vibration    16          0.740              1.540              1.093
 Vibration    17          0.751              1.510              1.035
 Vibration    18          0.785              1.420              0.881
 Vibration    19          0.800              1.382              0.826
 Vibration    20          0.830              1.309              0.728
 Vibration    21          0.901              1.149              0.553
 Vibration    22          0.937              1.074              0.485
 Vibration    23          0.973              1.003              0.427

 Normal termination of Gaussian 09 at Wed Sep 29 11:10:28 2021.
 Gaussian 09:  AM64L-G09RevA.02 11-Jun-2009

 ----------------------------------------------------------------------
 #p TD(NStates=10, Root=1) b3lyp/6-31G* volume pop=NPA density=current
 Geom=AllCheck Guess=Read
 ----------------------------------------------------------------------

 O=C(C(C)(C)C)Oc1ccc2c(c1)OCO2_conf_0
 ------------------------------------
 Redundant internal coordinates taken from checkpoint file:
 C12H14O4_b865_conf_0.chk
 Charge =  0 Multiplicity = 1

                         Standard orientation:
 ---------------------------------------------------------------------
 Center     Atomic      Atomic             Coordinates (Angstroms)
 Number     Number       Type             X           Y           Z
 ---------------------------------------------------------------------
      1          8           0        1.821441   -1.161306   -1.179102
      2          6           0        2.054693   -0.326628   -0.339604
      3          6           0        3.437513    0.228689    0.018280
      4          6           0        3.447225    1.756743   -0.211053
      5          6           0        3.732670   -0.077774    1.504110
      6          6           0        4.483437   -0.448586   -0.881120
      7          8           0        1.085775    0.259021    0.439621
      8          6           0       -0.258773   -0.087513    0.278827
      9          6           0       -0.695064   -1.405872    0.373682
     10          6           0       -2.066141   -1.705857    0.282794
     11          6           0       -2.936253   -0.649639    0.102269
     12          6           0       -2.484544    0.664980    0.014007
     13          6           0       -1.145316    0.987341    0.097838
     14          8           0       -3.554023    1.514600   -0.132102
     15          6           0       -4.692076    0.664154   -0.324832
     16          8           0       -4.310248   -0.671569    0.017126
     17          1           0        2.715075    2.260846    0.425747
     18          1           0        3.223464    2.002687   -1.255591
     19          1           0        4.440707    2.156541    0.022465
     20          1           0        2.999147    0.395127    2.162957
     21          1           0        4.727370    0.300457    1.766593
     22          1           0        3.723314   -1.157033    1.696172
     23          1           0        4.284554   -0.251420   -1.938824
     24          1           0        4.482970   -1.533864   -0.742262
     25          1           0        5.482139   -0.068116   -0.638993
     26          1           0        0.025378   -2.203137    0.505157
     27          1           0       -2.424659   -2.726708    0.354005
     28          1           0       -0.784011    2.006799    0.034846
     29          1           0       -5.000080    0.701028   -1.379601
     30          1           0       -5.503143    0.990593    0.331789
 ---------------------------------------------------------------------

 SCF Done:  E(RB3LYP) =  -766.593760931     A.U. after    1 cycles

 Excitation energies and oscillator strengths:

 Excited State   1:      Singlet-A      4.8217 eV  257.14 nm  f=0.1183  <S**2>=0.000
      58 -> 61        -0.18263
      58 -> 62         0.14178
      59 -> 60         0.64845
      59 -> 61        -0.11377
 This state for optimization and/or second-order correction.
 Total Energy, E(TD-HF/TD-KS) =  -766.416566201
 Copying the excited state density for this state as the 1-particle RhoCI density.

 Excited State   2:      Singlet-A      5.0330 eV  246.34 nm  f=0.0278  <S**2>=0.000
      58 -> 60         0.14860
      59 -> 60         0.16300
      59 -> 61         0.64478
      59 -> 62         0.13669

 Excited State   3:      Singlet-A      5.5363 eV  223.95 nm  f=0.0180  <S**2>=0.000
      57 -> 60         0.44217
      57 -> 61         0.32190
      57 -> 62         0.24856
      58 -> 60         0.26820
      58 -> 61         0.17823
      58 -> 62         0.15726

 Excited State   4:      Singlet-A      5.6905 eV  217.88 nm  f=0.0184  <S**2>=0.000
      58 -> 60        -0.13899
      58 -> 61         0.16550
      59 -> 61        -0.11397
      59 -> 62         0.65448

 Excited State   5:      Singlet-A      6.1988 eV  200.01 nm  f=0.1293  <S**2>=0.000
      57 -> 60        -0.26206
      57 -> 61        -0.20969
      57 -> 62        -0.13379
      58 -> 60         0.43995
      58 -> 61         0.31571
      58 -> 62         0.20420
      59 -> 61        -0.13784

 Excited State   6:      Singlet-A      6.4756 eV  191.46 nm  f=0.1126  <S**2>=0.000
      57 -> 60        -0.32182
      57 -> 61         0.37727
      58 -> 60        -0.27705
      58 -> 61         0.36731
      59 -> 62        -0.12257

 Excited State   7:      Singlet-A      6.7616 eV  183.36 nm  f=0.2802  <S**2>=0.000
      56 -> 60         0.11530
      57 -> 60         0.32890
      57 -> 61        -0.28229
      57 -> 62        -0.18570
      58 -> 60        -0.21335
      58 -> 61         0.37195
      58 -> 62        -0.16152
      59 -> 60         0.11575
      59 -> 62        -0.13439

 Excited State   8:      Singlet-A      6.8098 eV  182.07 nm  f=0.1909  <S**2>=0.000
      57 -> 61        -0.30432
      57 -> 62         0.29566
      58 -> 60        -0.20303
      58 -> 62         0.48582
      59 -> 61         0.10888

 Excited State   9:      Singlet-A      7.0290 eV  176.39 nm  f=0.0085  <S**2>=0.000
      59 -> 63        -0.13599
      59 -> 64         0.67858

 Excited State  10:      Singlet-A      7.0650 eV  175.49 nm  f=0.1801  <S**2>=0.000
      55 -> 60         0.12430
      56 -> 60        -0.13302
      56 -> 61        -0.23489
      57 -> 60        -0.11654
      57 -> 61        -0.15553
      57 -> 62         0.47950
      58 -> 62        -0.28549
      59 -> 64         0.11410
      59 -> 65        -0.13439

 The electronic state is 1-A.
 Alpha  occ. eigenvalues --  -19.19869 -19.19585 -19.19408 -19.13965 -10.31564
 Alpha  occ. eigenvalues --  -10.30875 -10.25395 -10.25277 -10.24984 -10.21434
 Alpha  occ. eigenvalues --  -10.20049 -10.19995 -10.19394 -10.18291 -10.18287
 Alpha  occ. eigenvalues --  -10.17459  -1.12814  -1.10511  -1.03692  -1.02282
 Alpha  occ. eigenvalues --   -0.86409  -0.82417  -0.76435  -0.76073  -0.69256
 Alpha  occ. eigenvalues --   -0.69227  -0.68337  -0.65577  -0.62933  -0.60447
 Alpha  occ. eigenvalues --   -0.56397  -0.52717  -0.52377  -0.51437  -0.48815
 Alpha  occ. eigenvalues --   -0.48453  -0.46503  -0.45849  -0.45144  -0.44122
 Alpha  occ. eigenvalues --   -0.43318  -0.42765  -0.40863  -0.40063  -0.39421
 Alpha  occ. eigenvalues --   -0.38890  -0.38458  -0.38242  -0.36894  -0.36592
 Alpha  occ. eigenvalues --   -0.36232  -0.35440  -0.33800  -0.33472  -0.32501
 Alpha  occ. eigenvalues --   -0.29963  -0.27136  -0.24713  -0.20646
 Alpha virt. eigenvalues --   -0.00608   0.00079   0.02315   0.08221   0.09133
 Alpha virt. eigenvalues --    0.10009   0.11017   0.12683   0.13660   0.15054
 Alpha virt. eigenvalues --    0.15168   0.15240   0.15466   0.15562   0.16209

 Mulliken atomic charges:
              1
     1  O   -0.501439
     2  C    0.572335
     3  C    0.007893
     4  C   -0.447110
     5  C   -0.448610
     6  C   -0.431125
     7  O   -0.532785
     8  C    0.357311
     9  C   -0.126024
    10  C   -0.214585
    11  C    0.323440
    12  C    0.324055
    13  C   -0.248226
    14  O   -0.484441
    15  C    0.175495
    16  O   -0.489201
    17  H    0.152865
    18  H    0.145095
    19  H    0.136751
    20  H    0.155366
    21  H    0.137625
    22  H    0.142903
    23  H    0.152265
    24  H    0.150688
    25  H    0.128656
    26  H    0.174164
    27  H    0.150012
    28  H    0.153172
    29  H    0.190290
    30  H    0.193167
 Sum of Mulliken atomic charges =  -0.00000

 Dipole moment (field-independent basis, Debye):
    X=             -4.5222    Y=              1.3911    Z=              1.0297  Tot=              4.8421
 Quadrupole moment (field-independent basis, Debye-Ang):
   XX=            -71.9141   YY=            -92.8060   ZZ=            -96.4470
   XY=             -1.5368   XZ=              5.6038   YZ=             -4.1704

 Summary of Natural Population Analysis:

                                       Natural Population
                Natural  -----------------------------------------------
    Atom  No    Charge         Core      Valence    Rydberg      Total
 -----------------------------------------------------------------------
      O    1   -0.61730      1.99978     6.59720    0.02032     8.61730
      C    2    0.75161      1.99928     3.19914    0.04997     5.24839
      C    3   -0.14582      1.99906     4.13377    0.01299     6.14582
      C    4   -0.66847      1.99938     4.65923    0.00985     6.66847
      C    5   -0.66875      1.99938     4.65969    0.00968     6.66875
      C    6   -0.66637      1.99939     4.65598    0.01100     6.66637
      O    7   -0.54458      1.99969     6.53364    0.01125     8.54458
      C    8    0.33275      1.99877     3.64413    0.02435     5.66725
      C    9   -0.19021      1.99903     4.17634    0.01484     6.19021
      C   10   -0.34058      1.99903     4.32237    0.01918     6.34058
      C   11    0.24435      1.99868     3.73430    0.02266     5.75565
      C   12    0.28339      1.99870     3.69526    0.02265     5.71661
      C   13   -0.38156      1.99893     4.36150    0.02113     6.38156
      O   14   -0.46165      1.99977     6.45004    0.01184     8.46165
      C   15    0.20961      1.99942     3.76710    0.02388     5.79039
      O   16   -0.47110      1.99977     6.45931    0.01202     8.47110
      H   17    0.23759      0.00000     0.76121    0.00119     0.76241
      H   18    0.23319      0.00000     0.76578    0.00104     0.76681
      H   19    0.22683      0.00000     0.77175    0.00142     0.77317
      H   20    0.23898      0.00000     0.75994    0.00108     0.76102
      H   21    0.22734      0.00000     0.77115    0.00151     0.77266
      H   22    0.23183      0.00000     0.76715    0.00102     0.76817
      H   23    0.24109      0.00000     0.75782    0.00109     0.75891
      H   24    0.24032      0.00000     0.75857    0.00110     0.75968
      H   25    0.22433      0.00000     0.77467    0.00100     0.77567
      H   26    0.26393      0.00000     0.73499    0.00109     0.73607
      H   27    0.25262      0.00000     0.74645    0.00093     0.74738
      H   28    0.26031      0.00000     0.73853    0.00116     0.73969
      H   29    0.22396      0.00000     0.77324    0.00280     0.77604
      H   30    0.23238      0.00000     0.76618    0.00144     0.76762
 =======================================================================
   * Total *    0.00000     31.98809    85.69645    0.31547   118.00000

 Normal termination of Gaussian 09 at Wed Sep 29 16:39:30 2021.
