 Gaussian 09, Revision A.02,

 -----------------------------------
 #p opt b3lyp/6-31G* scf=(xqc,tight)
 -----------------------------------

 -------------------------------------
 O=C(C(F)(F)F)Oc1ccc2c(c1)cccc2_conf_0
 -------------------------------------
 Symbolic Z-matrix:
 Charge =  0 Multiplicity = 1

 SCF Done:  E(RB3LYP) =  -911.459377118     A.U. after   16 cycles
 SCF Done:  E(RB3LYP) =  -911.469329212     A.U. after   13 cycles
 SCF Done:  E(RB3LYP) =  -911.470067205     A.U. after   12 cycles
 SCF Done:  E(RB3LYP) =  -911.469484657     A.U. after   12 cycles
 SCF Done:  E(RB3LYP) =  -911.470180853     A.U. after   12 cycles
 SCF Done:  E(RB3LYP) =  -911.470296510     A.U. after   12 cycles
 SCF Done:  E(RB3LYP) =  -911.470343730     A.U. after   11 cycles
 SCF Done:  E(RB3LYP) =  -911.470446217     A.U. after   16 cycles
 SCF Done:  E(RB3LYP) =  -911.470558863     A.U. after   14 cycles
 SCF Done:  E(RB3LYP) =  -911.470438629     A.U. after   15 cycles
 SCF Done:  E(RB3LYP) =  -911.471271818     A.U. after   12 cycles
 SCF Done:  E(RB3LYP) =  -911.471353887     A.U. after   12 cycles
 SCF Done:  E(RB3LYP) =  -911.471360644     A.U. after   16 cycles
 SCF Done:  E(RB3LYP) =  -911.471374848     A.U. after   10 cycles
 SCF Done:  E(RB3LYP) =  -911.471380360     A.U. after   11 cycles
 SCF Done:  E(RB3LYP) =  -911.471380803     A.U. after   10 cycles
 SCF Done:  E(RB3LYP) =  -911.471381012     A.U. after    9 cycles
 SCF Done:  E(RB3LYP) =  -911.471381013     A.U. after    7 cycles
 Optimization completed.
    -- Stationary point found.
 Normal termination of Gaussian 09 at Wed Sep 29 05:18:16 2021.

 ----------------------------------------------------------------------
 #p freq b3lyp/6-31G* volume NMR pop=NPA density=current Geom=AllCheck
 Guess=Read
 ----------------------------------------------------------------------

 O=C(C(F)(F)F)Oc1ccc2c(c1)cccc2_conf_0
 -------------------------------------
 Redundant internal coordinates taken from checkpoint file:
 C12H7F3O2_8405_conf_0.chk
 Charge =  0 Multiplicity = 1

 SCF Done:  E(RB3LYP) =  -911.471381013     A.U. after    1 cycles

  1  O    Isotropic =   -73.8894   Anisotropy =   581.2793

  2  C    Isotropic =    39.2568   Anisotropy =    82.6619

  3  C    Isotropic =    72.1125   Anisotropy =    25.4206

  4  F    Isotropic =   271.3777   Anisotropy =   126.8337

  5  F    Isotropic =   272.4094   Anisotropy =   126.3088

  6  F    Isotropic =   280.5681   Anisotropy =   107.2862

  7  O    Isotropic =   114.9107   Anisotropy =   190.3253

  8  C    Isotropic =    45.7681   Anisotropy =    97.3377

  9  C    Isotropic =    77.4316   Anisotropy =   136.2012

 10  C    Isotropic =    66.3181   Anisotropy =   144.9776

 11  C    Isotropic =    65.4231   Anisotropy =   197.1889

 12  C    Isotropic =    62.7531   Anisotropy =   194.3619

 13  C    Isotropic =    77.7259   Anisotropy =   130.2930

 14  C    Isotropic =    66.7150   Anisotropy =   147.5195

 15  C    Isotropic =    69.0937   Anisotropy =   164.6209

 16  C    Isotropic =    69.7317   Anisotropy =   163.4363

 17  C    Isotropic =    67.8539   Anisotropy =   146.5928

 18  H    Isotropic =    25.0819   Anisotropy =     6.7893

 19  H    Isotropic =    24.5459   Anisotropy =     6.7372

 20  H    Isotropic =    23.4057   Anisotropy =    11.1719

 21  H    Isotropic =    24.4882   Anisotropy =     7.6409

 22  H    Isotropic =    24.6931   Anisotropy =     5.3068

 23  H    Isotropic =    24.7353   Anisotropy =     5.0681

 24  H    Isotropic =    24.5789   Anisotropy =     6.8258

  Exact polarizability: 208.355  -8.942 139.103   0.175  -0.494  50.759
 Approx polarizability: 311.029 -19.762 258.610   0.077  -0.637  80.549

                     1                      2                      3
                     A                      A                      A
 Frequencies --    14.0869                32.0439                37.9304
 Red. masses --     7.5959                14.9332                 8.0717
 Frc consts  --     0.0009                 0.0090                 0.0068
 IR Inten    --     0.0515                 0.9764                 0.0016

                     4                      5                      6
                     A                      A                      A
 Frequencies --    89.1367               133.7199               171.3467
 Red. masses --     8.8245                 6.9598                10.4036
 Frc consts  --     0.0413                 0.0733                 0.1800
 IR Inten    --     0.1478                 0.9076                 1.9119

                     7                      8                      9
                     A                      A                      A
 Frequencies --   185.3968               245.8666               269.5645
 Red. masses --     3.7224                10.8909                 7.9064
 Frc consts  --     0.0754                 0.3879                 0.3385
 IR Inten    --     0.5214                 1.8109                 1.1475

                    10                     11                     12
                     A                      A                      A
 Frequencies --   329.9114               332.6024               399.0179
 Red. masses --     8.6695                 8.1454                 7.7263
 Frc consts  --     0.5560                 0.5309                 0.7248
 IR Inten    --     3.7320                 3.7492                 2.5612

                    13                     14                     15
                     A                      A                      A
 Frequencies --   409.6265               446.8258               485.3028
 Red. masses --     3.4111                 6.2433                10.3770
 Frc consts  --     0.3372                 0.7344                 1.4399
 IR Inten    --     0.0125                 4.6808                 9.8509

                    16                     17                     18
                     A                      A                      A
 Frequencies --   486.8527               510.7030               525.4043
 Red. masses --     2.6238                14.3352                 6.8457
 Frc consts  --     0.3664                 2.2029                 1.1134
 IR Inten    --    11.0449                 5.2925                 0.3238

                    19                     20                     21
                     A                      A                      A
 Frequencies --   542.1701               580.6421               635.6641
 Red. masses --     3.9641                13.3282                 6.9036
 Frc consts  --     0.6865                 2.6475                 1.6436
 IR Inten    --     0.7900                 0.8094                 1.3977

                    22                     23                     24
                     A                      A                      A
 Frequencies --   647.2619               720.0930               749.7880
 Red. masses --     3.2628                 9.6011                10.5220
 Frc consts  --     0.8054                 2.9332                 3.4852
 IR Inten    --     0.1700                16.8479                22.0053

                    25                     26                     27
                     A                      A                      A
 Frequencies --   758.4484               766.4873               773.9252
 Red. masses --     6.8287                 1.4440                 3.0137
 Frc consts  --     2.3144                 0.4998                 1.0635
 IR Inten    --    22.5566                10.3683                 2.3034

                    28                     29                     30
                     A                      A                      A
 Frequencies --   785.9384               830.9602               878.5330
 Red. masses --     4.8096                 1.3910                 3.6842
 Frc consts  --     1.7504                 0.5659                 1.6754
 IR Inten    --     0.4162                30.1384                23.0589

                    31                     32                     33
                     A                      A                      A
 Frequencies --   880.3496               913.9194               917.5797
 Red. masses --     2.1171                 5.2849                 1.4863
 Frc consts  --     0.9667                 2.6008                 0.7373
 IR Inten    --    20.2031                 5.0352                17.4630

                    34                     35                     36
                     A                      A                      A
 Frequencies --   957.7946               968.8635               977.1724
 Red. masses --     1.3209                 1.3156                 4.4499
 Frc consts  --     0.7140                 0.7276                 2.5035
 IR Inten    --     3.7675                 0.8951                10.2328

                    37                     38                     39
                     A                      A                      A
 Frequencies --   994.2374              1052.3645              1129.9344
 Red. masses --     1.2802                 2.3067                 2.5779
 Frc consts  --     0.7456                 1.5051                 1.9392
 IR Inten    --     0.0591                 1.7625                99.7748

                    40                     41                     42
                     A                      A                      A
 Frequencies --  1164.0641              1179.0441              1189.6024
 Red. masses --     1.9853                 1.2297                 1.1851
 Frc consts  --     1.5850                 1.0072                 0.9882
 IR Inten    --   130.9604                 0.2807                 6.5412

                    43                     44                     45
                     A                      A                      A
 Frequencies --  1192.4221              1215.2584              1245.9950
 Red. masses --     2.8504                13.0855                 2.9305
 Frc consts  --     2.3879                11.3861                 2.6805
 IR Inten    --   446.1270               257.0039                59.2556

                    46                     47                     48
                     A                      A                      A
 Frequencies --  1271.4041              1282.6965              1296.7590
 Red. masses --     4.9419                 1.9894                 1.8492
 Frc consts  --     4.7067                 1.9285                 1.8321
 IR Inten    --   251.7439               183.1054                 8.7114

                    49                     50                     51
                     A                      A                      A
 Frequencies --  1368.0191              1399.8549              1413.3873
 Red. masses --    11.2401                 1.8870                 5.3853
 Frc consts  --    12.3938                 2.1787                 6.3384
 IR Inten    --    66.5310                 1.5291                20.8614

                    52                     53                     54
                     A                      A                      A
 Frequencies --  1427.6745              1490.1114              1513.2922
 Red. masses --     5.2235                 2.5246                 2.1640
 Frc consts  --     6.2729                 3.3027                 2.9198
 IR Inten    --    34.8468                 1.4771                28.7584

                    55                     56                     57
                     A                      A                      A
 Frequencies --  1566.1495              1633.5881              1657.2464
 Red. masses --     3.4707                 7.4660                 5.3753
 Frc consts  --     5.0157                11.7388                 8.6982
 IR Inten    --    21.1576                 4.2730                34.3978

                    58                     59                     60
                     A                      A                      A
 Frequencies --  1683.5309              1855.0417              3181.9149
 Red. masses --     6.0991                12.9654                 1.0860
 Frc consts  --    10.1849                26.2872                 6.4782
 IR Inten    --     9.1644               275.4680                 2.7587

                    61                     62                     63
                     A                      A                      A
 Frequencies --  3187.5450              3194.0517              3199.9403
 Red. masses --     1.0880                 1.0889                 1.0935
 Frc consts  --     6.5132                 6.5452                 6.5973
 IR Inten    --     0.5724                 6.7638                29.7798

                    64                     65                     66
                     A                      A                      A
 Frequencies --  3211.9731              3224.9855              3276.0365
 Red. masses --     1.0973                 1.0941                 1.0915
 Frc consts  --     6.6698                 6.7045                 6.9018
 IR Inten    --    27.0714                 4.2977                 2.3276

 - Thermochemistry -
 -------------------
 Temperature   298.150 Kelvin.  Pressure   1.00000 Atm.
 Atom     1 has atomic number  8 and mass  15.99491

 Molecular mass:   240.03981 amu.
 Principal axes and moments of inertia in atomic units:
                           1         2         3
     Eigenvalues --  1243.267508838.981319758.49225
           X            1.00000  -0.00169   0.00008
           Y            0.00169   1.00000  -0.00153
           Z           -0.00008   0.00153   1.00000
 This molecule is an asymmetric top.
 Rotational symmetry number  1.
 Warning -- assumption of classical behavior for rotation
           may cause significant error
 Rotational temperatures (Kelvin)      0.06967     0.00980     0.00888
 Rotational constants (GHZ):           1.45161     0.20418     0.18494
 Zero-point vibrational energy     437169.6 (Joules/Mol)
                                  104.48605 (Kcal/Mol)
 Warning -- explicit consideration of  20 degrees of freedom as
           vibrations may cause significant error
 Vibrational temperatures:     20.27    46.10    54.57   128.25   192.39
          (Kelvin)            246.53   266.74   353.75   387.84   474.67
                              478.54   574.10   589.36   642.88   698.24
                              700.47   734.79   755.94   780.06   835.41
                              914.58   931.26  1036.05  1078.78  1091.24
                             1102.80  1113.50  1130.79  1195.56  1264.01
                             1266.63  1314.92  1320.19  1378.05  1393.98
                             1405.93  1430.48  1514.12  1625.72  1674.83
                             1696.38  1711.57  1715.63  1748.48  1792.71
                             1829.26  1845.51  1865.74  1968.27  2014.08
                             2033.55  2054.10  2143.94  2177.29  2253.34
                             2350.37  2384.40  2422.22  2668.99  4578.06
                             4586.16  4595.52  4603.99  4621.31  4640.03
                             4713.48

 Zero-point correction=                           0.166509 (Hartree/Particle)
 Thermal correction to Energy=                    0.179975
 Thermal correction to Enthalpy=                  0.180920
 Thermal correction to Gibbs Free Energy=         0.123312
 Sum of electronic and zero-point Energies=           -911.304872
 Sum of electronic and thermal Energies=              -911.291406
 Sum of electronic and thermal Enthalpies=            -911.290461
 Sum of electronic and thermal Free Energies=         -911.348069

                     E (Thermal)             CV                S
                      KCal/Mol        Cal/Mol-Kelvin    Cal/Mol-Kelvin
 Total                  112.936             51.280            121.244
 Electronic               0.000              0.000              0.000
 Translational            0.889              2.981             42.328
 Rotational               0.889              2.981             33.039
 Vibrational            111.159             45.319             45.877
 Vibration     1          0.593              1.986              7.330
 Vibration     2          0.594              1.983              5.699
 Vibration     3          0.594              1.982              5.364
 Vibration     4          0.602              1.957              3.679
 Vibration     5          0.613              1.920              2.892
 Vibration     6          0.626              1.878              2.421
 Vibration     7          0.631              1.860              2.273
 Vibration     8          0.660              1.770              1.760
 Vibration     9          0.674              1.729              1.599
 Vibration    10          0.713              1.616              1.261
 Vibration    11          0.715              1.610              1.247
 Vibration    12          0.765              1.472              0.966
 Vibration    13          0.774              1.449              0.928
 Vibration    14          0.806              1.368              0.805
 Vibration    15          0.841              1.283              0.696
 Vibration    16          0.843              1.279              0.692
 Vibration    17          0.866              1.226              0.632
 Vibration    18          0.880              1.194              0.598
 Vibration    19          0.897              1.157              0.561
 Vibration    20          0.937              1.073              0.484

 Optimization completed.
    -- Stationary point found.
 Normal termination of Gaussian 09 at Wed Sep 29 06:19:42 2021.
 Gaussian 09:  AM64L-G09RevA.02 11-Jun-2009

 ----------------------------------------------------------------------
 #p TD(NStates=10, Root=1) b3lyp/6-31G* volume pop=NPA density=current
 Geom=AllCheck Guess=Read
 ----------------------------------------------------------------------

 O=C(C(F)(F)F)Oc1ccc2c(c1)cccc2_conf_0
 -------------------------------------
 Redundant internal coordinates taken from checkpoint file:
 C12H7F3O2_8405_conf_0.chk
 Charge =  0 Multiplicity = 1

                         Standard orientation:
 ---------------------------------------------------------------------
 Center     Atomic      Atomic             Coordinates (Angstroms)
 Number     Number       Type             X           Y           Z
 ---------------------------------------------------------------------
      1          8           0       -1.881853   -1.701693   -0.094028
      2          6           0       -2.182669   -0.538403   -0.032825
      3          6           0       -3.650193   -0.050198    0.007411
      4          9           0       -3.896913    0.591797    1.163554
      5          9           0       -3.896603    0.797420   -1.006865
      6          9           0       -4.480157   -1.089877   -0.091234
      7          8           0       -1.386128    0.537206    0.019180
      8          6           0        0.016945    0.506278    0.006587
      9          6           0        0.583531    1.803553   -0.011293
     10          6           0        1.948677    1.946597   -0.018335
     11          6           0        2.803870    0.811119   -0.007092
     12          6           0        2.210957   -0.492526    0.011975
     13          6           0        0.794726   -0.628066    0.018759
     14          6           0        3.060859   -1.631185    0.023896
     15          6           0        4.430164   -1.487387    0.017195
     16          6           0        5.015596   -0.197935   -0.002025
     17          6           0        4.218924    0.925103   -0.013916
     18          1           0       -0.080836    2.661252   -0.019191
     19          1           0        2.390039    2.939748   -0.032484
     20          1           0        0.349719   -1.612541    0.030497
     21          1           0        2.609893   -2.620214    0.038338
     22          1           0        5.068543   -2.366535    0.026542
     23          1           0        6.097505   -0.098824   -0.007317
     24          1           0        4.663728    1.917255   -0.028713
 ---------------------------------------------------------------------

 SCF Done:  E(RB3LYP) =  -911.471381013     A.U. after    3 cycles

 Excitation energies and oscillator strengths:

 Excited State   1:      Singlet-A      4.1708 eV  297.27 nm  f=0.0351  <S**2>=0.000
      60 -> 62        -0.16437
      60 -> 63         0.12490
      61 -> 62         0.63569
      61 -> 63         0.21991
 This state for optimization and/or second-order correction.
 Total Energy, E(TD-HF/TD-KS) =  -911.318107212
 Copying the excited state density for this state as the 1-particle RhoCI density.

 Excited State   2:      Singlet-A      4.3653 eV  284.02 nm  f=0.0172  <S**2>=0.000
      60 -> 62         0.43651
      61 -> 62         0.26976
      61 -> 63        -0.43424
      61 -> 64        -0.18968

 Excited State   3:      Singlet-A      4.8941 eV  253.34 nm  f=0.2441  <S**2>=0.000
      60 -> 62         0.34980
      61 -> 63         0.47454
      61 -> 64        -0.35789

 Excited State   4:      Singlet-A      5.1944 eV  238.69 nm  f=0.1658  <S**2>=0.000
      60 -> 62         0.30912
      60 -> 63         0.52300
      60 -> 64        -0.15741
      61 -> 64         0.29983

 Excited State   5:      Singlet-A      5.2760 eV  235.00 nm  f=0.0017  <S**2>=0.000
      58 -> 62         0.58284
      58 -> 63         0.34304
      58 -> 64        -0.16774

 Excited State   6:      Singlet-A      5.7273 eV  216.48 nm  f=0.0439  <S**2>=0.000
      59 -> 62         0.53913
      60 -> 63         0.11006
      61 -> 64        -0.12982
      61 -> 65         0.40127

 Excited State   7:      Singlet-A      6.0449 eV  205.10 nm  f=0.5133  <S**2>=0.000
      57 -> 62        -0.17403
      59 -> 62        -0.15225
      59 -> 63        -0.27434
      60 -> 62        -0.15988
      60 -> 63         0.36487
      60 -> 64         0.19350
      60 -> 65        -0.17552
      61 -> 64        -0.34461

 Excited State   8:      Singlet-A      6.1693 eV  200.97 nm  f=0.4676  <S**2>=0.000
      59 -> 63         0.40244
      60 -> 62        -0.16428
      60 -> 63         0.17523
      60 -> 64        -0.26669
      60 -> 65         0.19050
      61 -> 64        -0.28860
      61 -> 65        -0.25208

 Excited State   9:      Singlet-A      6.3293 eV  195.89 nm  f=0.0953  <S**2>=0.000
      59 -> 62         0.25947
      59 -> 63         0.21497
      59 -> 65        -0.11793
      60 -> 64         0.53565
      61 -> 63         0.10611
      61 -> 65        -0.19759

 Excited State  10:      Singlet-A      6.3496 eV  195.26 nm  f=0.0022  <S**2>=0.000
      56 -> 62         0.15019
      58 -> 62        -0.37063
      58 -> 63         0.55447
      58 -> 64        -0.10549

 The electronic state is 1-A.
 Alpha  occ. eigenvalues --  -24.74064 -24.73996 -24.73992 -19.23851 -19.17842
 Alpha  occ. eigenvalues --  -10.45176 -10.35759 -10.27318 -10.21194 -10.20935
 Alpha  occ. eigenvalues --  -10.20807 -10.20738 -10.20414 -10.20083 -10.20051
 Alpha  occ. eigenvalues --  -10.19996 -10.19956  -1.32086  -1.23377  -1.23161
 Alpha  occ. eigenvalues --   -1.14422  -1.06371  -0.88642  -0.83855  -0.78915
 Alpha  occ. eigenvalues --   -0.77704  -0.74333  -0.72726  -0.68067  -0.63902
 Alpha  occ. eigenvalues --   -0.61811  -0.60909  -0.59932  -0.59723  -0.57659
 Alpha  occ. eigenvalues --   -0.52798  -0.52472  -0.50070  -0.49548  -0.47395
 Alpha  occ. eigenvalues --   -0.46924  -0.46671  -0.46537  -0.45354  -0.43933
 Alpha  occ. eigenvalues --   -0.43527  -0.43267  -0.42496  -0.42151  -0.41261
 Alpha  occ. eigenvalues --   -0.40421  -0.39179  -0.39010  -0.37633  -0.35613
 Alpha  occ. eigenvalues --   -0.34643  -0.32539  -0.30460  -0.29496  -0.25002
 Alpha  occ. eigenvalues --   -0.22629
 Alpha virt. eigenvalues --   -0.05606  -0.03700  -0.00938   0.02273   0.07820
 Alpha virt. eigenvalues --    0.09329   0.10148   0.11230   0.13906   0.15827
 Alpha virt. eigenvalues --    0.16288   0.16420   0.17901   0.19002   0.19497

 Mulliken atomic charges:
              1
     1  O   -0.515530
     2  C    0.389000
     3  C    0.755381
     4  F   -0.272527
     5  F   -0.272307
     6  F   -0.258422
     7  O   -0.519748
     8  C    0.358356
     9  C   -0.144768
    10  C   -0.192497
    11  C    0.140631
    12  C    0.123001
    13  C   -0.230267
    14  C   -0.163156
    15  C   -0.115235
    16  C   -0.136558
    17  C   -0.164435
    18  H    0.181424
    19  H    0.158193
    20  H    0.216519
    21  H    0.178328
    22  H    0.165596
    23  H    0.155684
    24  H    0.163337
 Sum of Mulliken atomic charges =  -0.00000

 Dipole moment (field-independent basis, Debye):
    X=             10.7730    Y=              2.2155    Z=              0.0939  Tot=             10.9988
 Quadrupole moment (field-independent basis, Debye-Ang):
   XX=            -83.3125   YY=            -85.4154   ZZ=            -95.8396
   XY=             -5.0887   XZ=             -0.1344   YZ=             -0.5795

 Summary of Natural Population Analysis:

                                       Natural Population
                Natural  -----------------------------------------------
    Atom  No    Charge         Core      Valence    Rydberg      Total
 -----------------------------------------------------------------------
      O    1   -0.64230      1.99979     6.62031    0.02221     8.64230
      C    2    0.56409      1.99937     3.39086    0.04567     5.43591
      C    3    1.02737      1.99937     2.90334    0.06992     4.97263
      F    4   -0.37236      1.99993     7.36593    0.00650     9.37236
      F    5   -0.37185      1.99993     7.36544    0.00648     9.37185
      F    6   -0.35552      1.99993     7.34888    0.00671     9.35552
      O    7   -0.53523      1.99969     6.52321    0.01233     8.53523
      C    8    0.32004      1.99873     3.65891    0.02232     5.67996
      C    9   -0.19551      1.99904     4.18175    0.01472     6.19551
      C   10   -0.16216      1.99907     4.14869    0.01440     6.16216
      C   11   -0.09931      1.99902     4.08587    0.01441     6.09931
      C   12   -0.06158      1.99904     4.04766    0.01489     6.06158
      C   13   -0.23409      1.99897     4.21965    0.01547     6.23409
      C   14   -0.12360      1.99906     4.11039    0.01415     6.12360
      C   15   -0.18283      1.99912     4.16939    0.01432     6.18283
      C   16   -0.25411      1.99912     4.23965    0.01534     6.25411
      C   17   -0.11350      1.99906     4.10072    0.01372     6.11350
      H   18    0.26585      0.00000     0.73319    0.00096     0.73415
      H   19    0.24409      0.00000     0.75489    0.00102     0.75591
      H   20    0.28672      0.00000     0.71119    0.00210     0.71328
      H   21    0.25232      0.00000     0.74675    0.00094     0.74768
      H   22    0.25065      0.00000     0.74866    0.00069     0.74935
      H   23    0.24893      0.00000     0.75034    0.00073     0.75107
      H   24    0.24391      0.00000     0.75507    0.00101     0.75609
 =======================================================================
   * Total *    0.00000     33.98825    87.68077    0.33099   122.00000

 Normal termination of Gaussian 09 at Wed Sep 29 10:56:51 2021.
