 Gaussian 09, Revision A.02,

 -----------------------------------
 #p opt b3lyp/6-31G* scf=(xqc,tight)
 -----------------------------------

 ---------------------------
 COc1ccc(cc1)c1ccccn1_conf_0
 ---------------------------
 Symbolic Z-matrix:
 Charge =  0 Multiplicity = 1

 SCF Done:  E(RB3LYP) =  -593.866510817     A.U. after   14 cycles
 SCF Done:  E(RB3LYP) =  -593.868496092     A.U. after   12 cycles
 SCF Done:  E(RB3LYP) =  -593.868730411     A.U. after   12 cycles
 SCF Done:  E(RB3LYP) =  -593.868778214     A.U. after   11 cycles
 SCF Done:  E(RB3LYP) =  -593.868800299     A.U. after   11 cycles
 SCF Done:  E(RB3LYP) =  -593.868805940     A.U. after   10 cycles
 SCF Done:  E(RB3LYP) =  -593.868806480     A.U. after    8 cycles
 SCF Done:  E(RB3LYP) =  -593.868806538     A.U. after    7 cycles
 Optimization completed.
    -- Stationary point found.
 Normal termination of Gaussian 09 at Thu Sep 30 19:56:16 2021.

 ----------------------------------------------------------------------
 #p freq b3lyp/6-31G* volume NMR pop=NPA density=current Geom=AllCheck
 Guess=Read
 ----------------------------------------------------------------------

 COc1ccc(cc1)c1ccccn1_conf_0
 ---------------------------
 Redundant internal coordinates taken from checkpoint file:
 C12H11NO_6500_conf_0.chk
 Charge =  0 Multiplicity = 1

 SCF Done:  E(RB3LYP) =  -593.868806538     A.U. after    1 cycles

  1  C    Isotropic =   137.3922   Anisotropy =    65.1891

  2  O    Isotropic =   234.1637   Anisotropy =    85.6432

  3  C    Isotropic =    37.9461   Anisotropy =   127.6650

  4  C    Isotropic =    85.8037   Anisotropy =   141.6742

  5  C    Isotropic =    65.8008   Anisotropy =   172.2238

  6  C    Isotropic =    65.0886   Anisotropy =   156.5579

  7  C    Isotropic =    69.6187   Anisotropy =   158.6773

  8  C    Isotropic =    78.7153   Anisotropy =   132.1927

  9  C    Isotropic =    39.3228   Anisotropy =   165.3137

 10  C    Isotropic =    77.9426   Anisotropy =   153.8603

 11  C    Isotropic =    61.0326   Anisotropy =   179.0340

 12  C    Isotropic =    76.0085   Anisotropy =   154.8152

 13  C    Isotropic =    46.6688   Anisotropy =   151.7791

 14  N    Isotropic =   -48.1262   Anisotropy =   510.7248

 15  H    Isotropic =    28.2878   Anisotropy =     7.9364

 16  H    Isotropic =    28.5868   Anisotropy =     8.0034

 17  H    Isotropic =    28.5823   Anisotropy =     7.9420

 18  H    Isotropic =    25.6815   Anisotropy =     7.5201

 19  H    Isotropic =    23.6441   Anisotropy =     8.2999

 20  H    Isotropic =    24.6135   Anisotropy =     7.8663

 21  H    Isotropic =    25.4912   Anisotropy =     6.0615

 22  H    Isotropic =    24.7926   Anisotropy =     9.3423

 23  H    Isotropic =    24.8039   Anisotropy =     5.1324

 24  H    Isotropic =    25.4409   Anisotropy =     4.4146

 25  H    Isotropic =    23.6169   Anisotropy =     5.7487

  Exact polarizability: 238.485  -0.321 130.820  -0.208   0.609  52.604
 Approx polarizability: 336.407   4.416 237.946  -1.116   1.378  81.320

                     1                      2                      3
                     A                      A                      A
 Frequencies --    35.5422                58.9408               104.5492
 Red. masses --     3.7816                 4.0513                 3.9103
 Frc consts  --     0.0028                 0.0083                 0.0252
 IR Inten    --     2.5393                 1.0747                 1.1331

                     4                      5                      6
                     A                      A                      A
 Frequencies --   124.3710               183.1513               242.2666
 Red. masses --     4.4646                 3.7001                 1.9924
 Frc consts  --     0.0407                 0.0731                 0.0689
 IR Inten    --     2.8243                 3.4296                 0.2451

                     7                      8                      9
                     A                      A                      A
 Frequencies --   254.6339               297.3933               336.1800
 Red. masses --     1.6478                 6.4287                 4.2639
 Frc consts  --     0.0629                 0.3350                 0.2839
 IR Inten    --     0.6302                 0.6869                 1.1475

                    10                     11                     12
                     A                      A                      A
 Frequencies --   414.3399               424.5405               426.3112
 Red. masses --     3.6426                 3.3017                 4.6192
 Frc consts  --     0.3684                 0.3506                 0.4946
 IR Inten    --     2.7031                 0.9446                 2.4796

                    13                     14                     15
                     A                      A                      A
 Frequencies --   490.9504               509.3479               568.1063
 Red. masses --     3.6555                 3.5101                 2.3781
 Frc consts  --     0.5191                 0.5365                 0.4522
 IR Inten    --     1.7466                 3.1032                 0.9507

                    16                     17                     18
                     A                      A                      A
 Frequencies --   589.5715               634.5449               654.2314
 Red. masses --     6.1274                 6.9841                 7.0944
 Frc consts  --     1.2549                 1.6569                 1.7891
 IR Inten    --    29.4179                 2.4419                 3.2799

                    19                     20                     21
                     A                      A                      A
 Frequencies --   727.8364               737.4344               757.4176
 Red. masses --     3.8883                 5.6694                 1.7470
 Frc consts  --     1.2136                 1.8165                 0.5905
 IR Inten    --     2.1889                 0.6804                 7.5657

                    22                     23                     24
                     A                      A                      A
 Frequencies --   798.7579               827.6543               828.7698
 Red. masses --     2.1889                 2.1589                 1.9625
 Frc consts  --     0.8228                 0.8713                 0.7942
 IR Inten    --    62.9133                 7.0455                 2.5113

                    25                     26                     27
                     A                      A                      A
 Frequencies --   854.9367               898.4894               953.5052
 Red. masses --     1.8060                 1.3755                 1.2995
 Frc consts  --     0.7778                 0.6543                 0.6961
 IR Inten    --    26.2939                 0.3651                 0.3078

                    28                     29                     30
                     A                      A                      A
 Frequencies --   973.3137               978.9581               999.4353
 Red. masses --     1.3636                 1.3635                 1.2810
 Frc consts  --     0.7611                 0.7699                 0.7539
 IR Inten    --     0.3479                 0.7333                 0.0227

                    31                     32                     33
                     A                      A                      A
 Frequencies --  1007.8135              1025.8648              1054.6024
 Red. masses --     6.6778                 3.6533                 4.1927
 Frc consts  --     3.9961                 2.2652                 2.7474
 IR Inten    --     3.2164                 1.7919                 9.8671

                    34                     35                     36
                     A                      A                      A
 Frequencies --  1080.5166              1091.7019              1127.8124
 Red. masses --     4.7465                 2.0628                 1.5921
 Frc consts  --     3.2651                 1.4485                 1.1932
 IR Inten    --    46.9378                11.1729                 2.2430

                    37                     38                     39
                     A                      A                      A
 Frequencies --  1147.6827              1184.5031              1191.0373
 Red. masses --     1.3227                 1.2708                 1.1407
 Frc consts  --     1.0265                 1.0505                 0.9534
 IR Inten    --     5.6253                 0.7369                 2.2729

                    40                     41                     42
                     A                      A                      A
 Frequencies --  1211.1979              1218.7762              1294.2241
 Red. masses --     1.1662                 1.3790                 2.9683
 Frc consts  --     1.0079                 1.2069                 2.9294
 IR Inten    --   101.7360                 3.1970                82.6667

                    43                     44                     45
                     A                      A                      A
 Frequencies --  1302.4840              1315.6394              1338.3732
 Red. masses --     6.3660                 2.2244                 3.3724
 Frc consts  --     6.3630                 2.2685                 3.5591
 IR Inten    --   215.2658                24.0962                75.7214

                    46                     47                     48
                     A                      A                      A
 Frequencies --  1347.9278              1364.9069              1458.8935
 Red. masses --     1.3689                 3.5754                 2.6205
 Frc consts  --     1.4654                 3.9245                 3.2862
 IR Inten    --     1.2879                35.8499                 8.3216

                    49                     50                     51
                     A                      A                      A
 Frequencies --  1481.8107              1500.0878              1516.7956
 Red. masses --     2.3014                 1.2448                 2.1855
 Frc consts  --     2.9774                 1.6503                 2.9624
 IR Inten    --    76.1159                18.1988               104.6070

                    52                     53                     54
                     A                      A                      A
 Frequencies --  1521.1645              1535.1720              1567.6838
 Red. masses --     1.0489                 1.0703                 2.5777
 Frc consts  --     1.4300                 1.4862                 3.7324
 IR Inten    --     5.4702                29.3974                61.4171

                    55                     56                     57
                     A                      A                      A
 Frequencies --  1618.0197              1633.8309              1645.7760
 Red. masses --     5.1338                 6.4972                 5.3790
 Frc consts  --     7.9187                10.2186                 8.5841
 IR Inten    --     5.8799                47.0108               143.0500

                    58                     59                     60
                     A                      A                      A
 Frequencies --  1671.7794              3027.6633              3087.2570
 Red. masses --     5.7674                 1.0345                 1.1068
 Frc consts  --     9.4971                 5.5873                 6.2152
 IR Inten    --    87.3744                65.5143                42.7176

                    61                     62                     63
                     A                      A                      A
 Frequencies --  3158.0043              3163.8556              3190.1136
 Red. masses --     1.1000                 1.0891                 1.0879
 Frc consts  --     6.4637                 6.4233                 6.5228
 IR Inten    --    30.3028                36.0048                16.7865

                    64                     65                     66
                     A                      A                      A
 Frequencies --  3197.1891              3213.5931              3216.5467
 Red. masses --     1.0880                 1.0932                 1.0947
 Frc consts  --     6.5527                 6.6517                 6.6730
 IR Inten    --     7.6316                14.7439                17.9105

                    67                     68                     69
                     A                      A                      A
 Frequencies --  3218.1977              3223.6200              3234.2563
 Red. masses --     1.0879                 1.0933                 1.0929
 Frc consts  --     6.6387                 6.6936                 6.7355
 IR Inten    --     8.6977                17.3771                 5.5029

 - Thermochemistry -
 -------------------
 Temperature   298.150 Kelvin.  Pressure   1.00000 Atm.
 Atom     1 has atomic number  6 and mass  12.00000

 Molecular mass:   185.08406 amu.
 Principal axes and moments of inertia in atomic units:
                           1         2         3
     Eigenvalues --   685.674515772.604346422.58720
           X            0.99994  -0.01053   0.00047
           Y            0.01053   0.99994  -0.00225
           Z           -0.00044   0.00226   1.00000
 This molecule is an asymmetric top.
 Rotational symmetry number  1.
 Warning -- assumption of classical behavior for rotation
           may cause significant error
 Rotational temperatures (Kelvin)      0.12632     0.01500     0.01349
 Rotational constants (GHZ):           2.63207     0.31264     0.28100
 Zero-point vibrational energy     532768.0 (Joules/Mol)
                                  127.33461 (Kcal/Mol)
 Warning -- explicit consideration of  16 degrees of freedom as
           vibrations may cause significant error
 Vibrational temperatures:     51.14    84.80   150.42   178.94   263.51
          (Kelvin)            348.57   366.36   427.88   483.69   596.14
                              610.82   613.37   706.37   732.84   817.38
                              848.26   912.97   941.29  1047.19  1061.00
                             1089.75  1149.23  1190.81  1192.41  1230.06
                             1292.72  1371.88  1400.38  1408.50  1437.96
                             1450.02  1475.99  1517.34  1554.62  1570.71
                             1622.67  1651.26  1704.23  1713.63  1742.64
                             1753.54  1862.10  1873.98  1892.91  1925.62
                             1939.37  1963.79  2099.02  2131.99  2158.29
                             2182.33  2188.61  2208.77  2255.54  2327.97
                             2350.72  2367.90  2405.31  4356.13  4441.87
                             4543.66  4552.08  4589.86  4600.04  4623.64
                             4627.89  4630.26  4638.06  4653.37

 Zero-point correction=                           0.202921 (Hartree/Particle)
 Thermal correction to Energy=                    0.214306
 Thermal correction to Enthalpy=                  0.215251
 Thermal correction to Gibbs Free Energy=         0.164560
 Sum of electronic and zero-point Energies=           -593.665886
 Sum of electronic and thermal Energies=              -593.654500
 Sum of electronic and thermal Enthalpies=            -593.653556
 Sum of electronic and thermal Free Energies=         -593.704247

                     E (Thermal)             CV                S
                      KCal/Mol        Cal/Mol-Kelvin    Cal/Mol-Kelvin
 Total                  134.479             44.517            106.688
 Electronic               0.000              0.000              0.000
 Translational            0.889              2.981             41.553
 Rotational               0.889              2.981             31.609
 Vibrational            132.702             38.555             33.526
 Vibration     1          0.594              1.982              5.493
 Vibration     2          0.596              1.974              4.492
 Vibration     3          0.605              1.946              3.368
 Vibration     4          0.610              1.929              3.031
 Vibration     5          0.631              1.863              2.296
 Vibration     6          0.658              1.776              1.786
 Vibration     7          0.665              1.755              1.698
 Vibration     8          0.691              1.679              1.432
 Vibration     9          0.717              1.603              1.230
 Vibration    10          0.778              1.439              0.911
 Vibration    11          0.787              1.417              0.877
 Vibration    12          0.788              1.413              0.871
 Vibration    13          0.847              1.270              0.681
 Vibration    14          0.864              1.229              0.635
 Vibration    15          0.924              1.100              0.508
 Vibration    16          0.947              1.054              0.468

 Normal termination of Gaussian 09 at Thu Sep 30 20:40:59 2021.
 Gaussian 09:  AM64L-G09RevA.02 11-Jun-2009

 ----------------------------------------------------------------------
 #p TD(NStates=10, Root=1) b3lyp/6-31G* volume pop=NPA density=current
 Geom=AllCheck Guess=Read
 ----------------------------------------------------------------------

 COc1ccc(cc1)c1ccccn1_conf_0
 ---------------------------
 Redundant internal coordinates taken from checkpoint file:
 C12H11NO_6500_conf_0.chk
 Charge =  0 Multiplicity = 1

                         Standard orientation:
 ---------------------------------------------------------------------
 Center     Atomic      Atomic             Coordinates (Angstroms)
 Number     Number       Type             X           Y           Z
 ---------------------------------------------------------------------
      1          6           0        4.832385   -0.720212    0.090027
      2          8           0        4.009220    0.428276   -0.041126
      3          6           0        2.656181    0.258080   -0.026046
      4          6           0        2.006065   -0.974248    0.116296
      5          6           0        0.613392   -1.024871    0.117202
      6          6           0       -0.167165    0.132229   -0.014946
      7          6           0        0.506971    1.358924   -0.165492
      8          6           0        1.892371    1.425654   -0.171092
      9          6           0       -1.648540    0.032039   -0.000279
     10          6           0       -2.477529    1.152525    0.192670
     11          6           0       -3.859142    0.991019    0.184801
     12          6           0       -4.392878   -0.283241   -0.003275
     13          6           0       -3.497576   -1.340707   -0.166670
     14          7           0       -2.170875   -1.200152   -0.169115
     15          1           0        5.860965   -0.357035    0.049863
     16          1           0        4.666449   -1.431448   -0.729769
     17          1           0        4.664859   -1.229734    1.048064
     18          1           0        2.569823   -1.893650    0.227322
     19          1           0        0.106912   -1.977887    0.221698
     20          1           0       -0.052592    2.279001   -0.303992
     21          1           0        2.409404    2.372027   -0.295310
     22          1           0       -2.049966    2.134227    0.365088
     23          1           0       -4.509620    1.849321    0.332356
     24          1           0       -5.464547   -0.456668   -0.015935
     25          1           0       -3.866527   -2.356439   -0.305751
 ---------------------------------------------------------------------

 SCF Done:  E(RB3LYP) =  -593.868806538     A.U. after    1 cycles

 Excitation energies and oscillator strengths:

 Excited State   1:      Singlet-A      4.3425 eV  285.51 nm  f=0.3813  <S**2>=0.000
      49 -> 50         0.63701
      49 -> 51         0.27922
 This state for optimization and/or second-order correction.
 Total Energy, E(TD-HF/TD-KS) =  -593.709223442
 Copying the excited state density for this state as the 1-particle RhoCI density.

 Excited State   2:      Singlet-A      4.5784 eV  270.80 nm  f=0.1818  <S**2>=0.000
      48 -> 50         0.26796
      49 -> 50        -0.26242
      49 -> 51         0.57633
      49 -> 52        -0.11941

 Excited State   3:      Singlet-A      4.6586 eV  266.14 nm  f=0.0305  <S**2>=0.000
      47 -> 50         0.51605
      48 -> 50         0.43515
      49 -> 51        -0.15042

 Excited State   4:      Singlet-A      4.9082 eV  252.61 nm  f=0.0386  <S**2>=0.000
      47 -> 50         0.30752
      48 -> 50        -0.28100
      49 -> 51         0.19142
      49 -> 52         0.50482

 Excited State   5:      Singlet-A      5.0411 eV  245.95 nm  f=0.0014  <S**2>=0.000
      47 -> 51         0.49820
      48 -> 51         0.47359

 Excited State   6:      Singlet-A      5.5312 eV  224.15 nm  f=0.0734  <S**2>=0.000
      45 -> 50        -0.11770
      45 -> 51         0.13691
      46 -> 50         0.28069
      47 -> 50        -0.31151
      47 -> 51        -0.15464
      48 -> 50         0.33565
      48 -> 51         0.16224
      49 -> 51        -0.12305
      49 -> 52         0.29935

 Excited State   7:      Singlet-A      5.6799 eV  218.29 nm  f=0.0187  <S**2>=0.000
      45 -> 51         0.16418
      46 -> 50         0.51790
      46 -> 51         0.18873
      47 -> 50         0.11923
      47 -> 51         0.12691
      48 -> 50        -0.14110
      48 -> 51        -0.14151
      49 -> 52        -0.22485
      49 -> 53         0.13994

 Excited State   8:      Singlet-A      5.7894 eV  214.16 nm  f=0.0501  <S**2>=0.000
      47 -> 50         0.11984
      47 -> 51        -0.42989
      48 -> 50        -0.12962
      48 -> 51         0.44431
      49 -> 52        -0.23275

 Excited State   9:      Singlet-A      6.0282 eV  205.67 nm  f=0.0225  <S**2>=0.000
      45 -> 50        -0.40793
      46 -> 50        -0.21909
      46 -> 51         0.41751
      49 -> 53        -0.27129

 Excited State  10:      Singlet-A      6.1031 eV  203.15 nm  f=0.0126  <S**2>=0.000
      47 -> 52         0.49716
      48 -> 51        -0.10570
      48 -> 52         0.46892

 The electronic state is 1-A.
 Alpha  occ. eigenvalues --  -19.17873 -14.32178 -10.24670 -10.24148 -10.22750
 Alpha  occ. eigenvalues --  -10.21848 -10.20470 -10.19362 -10.19313 -10.19002
 Alpha  occ. eigenvalues --  -10.18739 -10.18491 -10.18365 -10.18274  -1.06435
 Alpha  occ. eigenvalues --   -0.93632  -0.84909  -0.79795  -0.77894  -0.74694
 Alpha  occ. eigenvalues --   -0.73517  -0.69428  -0.63205  -0.62684  -0.59838
 Alpha  occ. eigenvalues --   -0.57799  -0.53588  -0.51676  -0.48868  -0.48039
 Alpha  occ. eigenvalues --   -0.46849  -0.46202  -0.44374  -0.44121  -0.41704
 Alpha  occ. eigenvalues --   -0.41394  -0.40317  -0.39544  -0.38261  -0.37288
 Alpha  occ. eigenvalues --   -0.35537  -0.35300  -0.32384  -0.32249  -0.28160
 Alpha  occ. eigenvalues --   -0.26429  -0.24962  -0.24673  -0.20572
 Alpha virt. eigenvalues --   -0.03284  -0.01539   0.00611   0.04440   0.09320
 Alpha virt. eigenvalues --    0.09981   0.11104   0.12968   0.14238   0.14451
 Alpha virt. eigenvalues --    0.15493   0.16052   0.16525   0.16719   0.17745

 Mulliken atomic charges:
              1
     1  C   -0.234419
     2  O   -0.460685
     3  C    0.382081
     4  C   -0.176543
     5  C   -0.175281
     6  C    0.133280
     7  C   -0.174042
     8  C   -0.165177
     9  C    0.217068
    10  C   -0.149921
    11  C   -0.160465
    12  C   -0.146470
    13  C    0.034219
    14  N   -0.551493
    15  H    0.188099
    16  H    0.175540
    17  H    0.175054
    18  H    0.151114
    19  H    0.183718
    20  H    0.157187
    21  H    0.160341
    22  H    0.109868
    23  H    0.104730
    24  H    0.111372
    25  H    0.110825
 Sum of Mulliken atomic charges =  -0.00000

 Dipole moment (field-independent basis, Debye):
    X=              7.1624    Y=              0.5382    Z=              0.3533  Tot=              7.1913
 Quadrupole moment (field-independent basis, Debye-Ang):
   XX=            -65.7136   YY=            -75.8487   ZZ=            -84.5366
   XY=             -7.9056   XZ=              0.3619   YZ=             -0.8579

 Summary of Natural Population Analysis:

                                       Natural Population
                Natural  -----------------------------------------------
    Atom  No    Charge         Core      Valence    Rydberg      Total
 -----------------------------------------------------------------------
      C    1   -0.32676      1.99942     4.31315    0.01419     6.32676
      O    2   -0.45091      1.99975     6.43936    0.01180     8.45091
      C    3    0.34453      1.99879     3.63463    0.02204     5.65547
      C    4   -0.28535      1.99904     4.27397    0.01234     6.28535
      C    5   -0.20648      1.99909     4.19035    0.01704     6.20648
      C    6    0.05866      1.99901     3.92599    0.01634     5.94134
      C    7   -0.20723      1.99908     4.19547    0.01268     6.20723
      C    8   -0.23916      1.99905     4.22486    0.01525     6.23916
      C    9    0.08726      1.99908     3.88974    0.02391     5.91274
      C   10   -0.19815      1.99904     4.18698    0.01213     6.19815
      C   11   -0.32446      1.99911     4.30652    0.01883     6.32446
      C   12   -0.27477      1.99908     4.26048    0.01521     6.27477
      C   13    0.02109      1.99922     3.95602    0.02368     5.97891
      N   14   -0.56903      1.99939     5.54617    0.02347     7.56903
      H   15    0.23831      0.00000     0.76119    0.00049     0.76169
      H   16    0.21770      0.00000     0.78044    0.00186     0.78230
      H   17    0.21739      0.00000     0.78080    0.00181     0.78261
      H   18    0.24493      0.00000     0.75423    0.00085     0.75507
      H   19    0.27515      0.00000     0.72268    0.00217     0.72485
      H   20    0.24792      0.00000     0.75113    0.00095     0.75208
      H   21    0.25422      0.00000     0.74467    0.00112     0.74578
      H   22    0.21579      0.00000     0.78295    0.00127     0.78421
      H   23    0.22419      0.00000     0.77504    0.00077     0.77581
      H   24    0.22709      0.00000     0.77182    0.00109     0.77291
      H   25    0.20805      0.00000     0.79073    0.00122     0.79195
 =======================================================================
   * Total *    0.00000     27.98814    69.75935    0.25250    98.00000

 Normal termination of Gaussian 09 at Fri Oct  1 00:22:13 2021.
