 Gaussian 09, Revision A.02,

 -----------------------------------
 #p opt b3lyp/6-31G* scf=(xqc,tight)
 -----------------------------------

 -----------------------------
 CCN(C(=O)Oc1ccccc1C)CC_conf_0
 -----------------------------
 Symbolic Z-matrix:
 Charge =  0 Multiplicity = 1

 SCF Done:  E(RB3LYP) =  -672.738480054     A.U. after   15 cycles
 SCF Done:  E(RB3LYP) =  -672.743349994     A.U. after   12 cycles
 SCF Done:  E(RB3LYP) =  -672.743513470     A.U. after   12 cycles
 SCF Done:  E(RB3LYP) =  -672.744153214     A.U. after   12 cycles
 SCF Done:  E(RB3LYP) =  -672.744416205     A.U. after   11 cycles
 SCF Done:  E(RB3LYP) =  -672.744610493     A.U. after   12 cycles
 SCF Done:  E(RB3LYP) =  -672.744712895     A.U. after   11 cycles
 SCF Done:  E(RB3LYP) =  -672.744735872     A.U. after   10 cycles
 SCF Done:  E(RB3LYP) =  -672.744741161     A.U. after    9 cycles
 SCF Done:  E(RB3LYP) =  -672.744742129     A.U. after    8 cycles
 SCF Done:  E(RB3LYP) =  -672.744742305     A.U. after    7 cycles
 SCF Done:  E(RB3LYP) =  -672.744742354     A.U. after    7 cycles
 SCF Done:  E(RB3LYP) =  -672.744742405     A.U. after    6 cycles
 Optimization completed.
    -- Stationary point found.
 Normal termination of Gaussian 09 at Thu Sep 30 03:39:26 2021.

 ----------------------------------------------------------------------
 #p freq b3lyp/6-31G* volume NMR pop=NPA density=current Geom=AllCheck
 Guess=Read
 ----------------------------------------------------------------------

 CCN(C(=O)Oc1ccccc1C)CC_conf_0
 -----------------------------
 Redundant internal coordinates taken from checkpoint file:
 C12H17NO2_ee7b_conf_0.chk
 Charge =  0 Multiplicity = 1

 SCF Done:  E(RB3LYP) =  -672.744742405     A.U. after    1 cycles

  1  C    Isotropic =   174.6961   Anisotropy =    22.2552

  2  C    Isotropic =   147.2243   Anisotropy =    40.6845

  3  N    Isotropic =   158.4884   Anisotropy =    68.4446

  4  C    Isotropic =    46.8624   Anisotropy =    78.2102

  5  O    Isotropic =    63.8059   Anisotropy =   382.5132

  6  O    Isotropic =   144.5166   Anisotropy =   134.9609

  7  C    Isotropic =    45.7420   Anisotropy =   105.2382

  8  C    Isotropic =    72.3225   Anisotropy =   151.9849

  9  C    Isotropic =    69.7071   Anisotropy =   159.5851

 10  C    Isotropic =    72.5589   Anisotropy =   159.5954

 11  C    Isotropic =    65.9459   Anisotropy =   141.8551

 12  C    Isotropic =    67.3300   Anisotropy =   157.1774

 13  C    Isotropic =   170.5134   Anisotropy =    24.8715

 14  C    Isotropic =   146.3328   Anisotropy =    43.3329

 15  C    Isotropic =   175.6531   Anisotropy =    21.3596

 16  H    Isotropic =    30.9892   Anisotropy =     7.4355

 17  H    Isotropic =    31.3804   Anisotropy =    10.3440

 18  H    Isotropic =    30.7406   Anisotropy =     5.7727

 19  H    Isotropic =    28.3014   Anisotropy =     6.3077

 20  H    Isotropic =    29.3511   Anisotropy =     6.2778

 21  H    Isotropic =    24.9739   Anisotropy =     9.1230

 22  H    Isotropic =    25.1178   Anisotropy =     4.5069

 23  H    Isotropic =    25.2615   Anisotropy =     3.8642

 24  H    Isotropic =    25.1637   Anisotropy =     6.5120

 25  H    Isotropic =    30.4960   Anisotropy =     8.3206

 26  H    Isotropic =    29.7850   Anisotropy =     7.0166

 27  H    Isotropic =    29.8475   Anisotropy =     6.3592

 28  H    Isotropic =    29.5205   Anisotropy =     6.5847

 29  H    Isotropic =    28.3107   Anisotropy =     6.2990

 30  H    Isotropic =    31.1212   Anisotropy =     6.9522

 31  H    Isotropic =    31.4280   Anisotropy =    10.7571

 32  H    Isotropic =    30.7210   Anisotropy =     6.3860

  Exact polarizability: 180.108  -7.454 127.563  -1.092 -17.666 101.846
 Approx polarizability: 239.612 -14.510 201.343  -6.576 -36.007 150.009

                     1                      2                      3
                     A                      A                      A
 Frequencies --    22.0828                36.1253                53.7253
 Red. masses --     3.5484                 3.7836                 3.3315
 Frc consts  --     0.0010                 0.0029                 0.0057
 IR Inten    --     0.1881                 0.8731                 0.8440

                     4                      5                      6
                     A                      A                      A
 Frequencies --    65.8122                90.4516               111.1445
 Red. masses --     2.6800                 3.9034                 4.7557
 Frc consts  --     0.0068                 0.0188                 0.0346
 IR Inten    --     0.0836                 0.8702                 0.6321

                     7                      8                      9
                     A                      A                      A
 Frequencies --   113.6139               125.6667               186.2143
 Red. masses --     3.4569                 1.0690                 2.6927
 Frc consts  --     0.0263                 0.0099                 0.0550
 IR Inten    --     1.8288                 0.2598                 1.5271

                    10                     11                     12
                     A                      A                      A
 Frequencies --   220.2020               234.8718               249.9727
 Red. masses --     1.5436                 1.2007                 2.6557
 Frc consts  --     0.0441                 0.0390                 0.0978
 IR Inten    --     1.1741                 1.3028                 1.2649

                    13                     14                     15
                     A                      A                      A
 Frequencies --   279.3322               301.5406               327.3111
 Red. masses --     2.0229                 4.1623                 2.7368
 Frc consts  --     0.0930                 0.2230                 0.1727
 IR Inten    --     1.2734                 0.4497                 1.8798

                    16                     17                     18
                     A                      A                      A
 Frequencies --   374.8364               436.1117               442.6077
 Red. masses --     2.9667                 3.1548                 3.4068
 Frc consts  --     0.2456                 0.3535                 0.3932
 IR Inten    --    16.0794                 5.9833                 2.5848

                    19                     20                     21
                     A                      A                      A
 Frequencies --   457.9419               504.7297               538.7696
 Red. masses --     3.0279                 3.3854                 4.0005
 Frc consts  --     0.3741                 0.5081                 0.6842
 IR Inten    --     1.4159                 3.0169                 0.2353

                    22                     23                     24
                     A                      A                      A
 Frequencies --   562.5265               615.1046               640.7799
 Red. masses --     4.7436                 4.7508                 4.6991
 Frc consts  --     0.8844                 1.0590                 1.1368
 IR Inten    --     0.7767                 4.7795                 0.5669

                    25                     26                     27
                     A                      A                      A
 Frequencies --   720.7730               743.8588               763.2282
 Red. masses --     3.4002                 8.1334                 1.4165
 Frc consts  --     1.0408                 2.6516                 0.4862
 IR Inten    --     2.7705                13.4202                42.6882

                    28                     29                     30
                     A                      A                      A
 Frequencies --   777.7439               793.3272               796.8737
 Red. masses --     2.8539                 1.1978                 1.4744
 Frc consts  --     1.0171                 0.4442                 0.5516
 IR Inten    --     7.6580                 8.2352                 3.5590

                    31                     32                     33
                     A                      A                      A
 Frequencies --   836.9756               850.2079               870.7395
 Red. masses --     2.9845                 3.8077                 1.4768
 Frc consts  --     1.2318                 1.6217                 0.6597
 IR Inten    --     5.6264                 0.8921                 0.6646

                    34                     35                     36
                     A                      A                      A
 Frequencies --   938.2285               952.8497               972.7072
 Red. masses --     1.3647                 2.2671                 2.6763
 Frc consts  --     0.7078                 1.2128                 1.4919
 IR Inten    --     0.9741                 8.3426                42.2708

                    37                     38                     39
                     A                      A                      A
 Frequencies --   975.3188              1017.5457              1060.2519
 Red. masses --     1.2533                 1.5782                 3.0370
 Frc consts  --     0.7024                 0.9627                 2.0115
 IR Inten    --     0.4067                 3.6497                11.3322

                    40                     41                     42
                     A                      A                      A
 Frequencies --  1076.7343              1077.1618              1102.8797
 Red. masses --     2.0980                 1.4996                 1.9248
 Frc consts  --     1.4331                 1.0252                 1.3794
 IR Inten    --     5.9698                 2.4239                18.6192

                    43                     44                     45
                     A                      A                      A
 Frequencies --  1116.2977              1126.8608              1145.8595
 Red. masses --     1.7859                 1.7197                 1.8311
 Frc consts  --     1.3112                 1.2866                 1.4165
 IR Inten    --    14.5085                34.5914                53.3998

                    46                     47                     48
                     A                      A                      A
 Frequencies --  1188.7558              1194.2046              1212.7102
 Red. masses --     2.3820                 1.1164                 2.6393
 Frc consts  --     1.9833                 0.9381                 2.2869
 IR Inten    --   250.3986                13.4795               169.3435

                    49                     50                     51
                     A                      A                      A
 Frequencies --  1256.3999              1267.9048              1310.4384
 Red. masses --     3.0524                 2.9228                 1.5642
 Frc consts  --     2.8389                 2.7684                 1.5826
 IR Inten    --   212.0935               102.3049               198.3236

                    52                     53                     54
                     A                      A                      A
 Frequencies --  1319.8456              1354.8666              1357.3200
 Red. masses --     1.4818                 5.7949                 1.3596
 Frc consts  --     1.5208                 6.2674                 1.4758
 IR Inten    --     1.5154                 9.7899                16.5058

                    55                     56                     57
                     A                      A                      A
 Frequencies --  1399.8441              1420.6682              1436.0325
 Red. masses --     1.2909                 1.2865                 1.2873
 Frc consts  --     1.4904                 1.5298                 1.5640
 IR Inten    --    21.0753                13.1035                14.0248

                    58                     59                     60
                     A                      A                      A
 Frequencies --  1438.9093              1444.9076              1460.2446
 Red. masses --     1.2680                 1.2469                 2.0382
 Frc consts  --     1.5468                 1.5338                 2.5606
 IR Inten    --    23.3504                 0.1415               261.6108

                    61                     62                     63
                     A                      A                      A
 Frequencies --  1492.2874              1506.2413              1512.1567
 Red. masses --     1.8580                 1.0715                 1.0462
 Frc consts  --     2.4378                 1.4323                 1.4095
 IR Inten    --     1.0123                 6.7355                 7.5660

                    64                     65                     66
                     A                      A                      A
 Frequencies --  1520.3029              1521.9754              1526.5943
 Red. masses --     1.0462                 1.0645                 1.1566
 Frc consts  --     1.4246                 1.4528                 1.5880
 IR Inten    --     1.0073                 4.4401                39.2809

                    67                     68                     69
                     A                      A                      A
 Frequencies --  1527.1408              1535.0719              1536.3859
 Red. masses --     1.2259                 1.0576                 1.1588
 Frc consts  --     1.6845                 1.4684                 1.6117
 IR Inten    --    17.5443                 6.5191                38.8082

                    70                     71                     72
                     A                      A                      A
 Frequencies --  1546.3730              1645.3870              1664.1735
 Red. masses --     2.0314                 5.8079                 6.3349
 Frc consts  --     2.8620                 9.2641                10.3368
 IR Inten    --    16.7289                 5.3902                 2.9651

                    73                     74                     75
                     A                      A                      A
 Frequencies --  1811.0156              3048.0574              3052.0202
 Red. masses --    11.3030                 1.0369                 1.0363
 Frc consts  --    21.8417                 5.6759                 5.6875
 IR Inten    --   362.9699                25.4198                19.0140

                    76                     77                     78
                     A                      A                      A
 Frequencies --  3052.9813              3062.7208              3072.5639
 Red. masses --     1.0359                 1.0678                 1.0683
 Frc consts  --     5.6890                 5.9015                 5.9424
 IR Inten    --    19.3557                29.3485                36.1943

                    79                     80                     81
                     A                      A                      A
 Frequencies --  3099.6509              3112.7156              3115.0112
 Red. masses --     1.1005                 1.1019                 1.1021
 Frc consts  --     6.2296                 6.2904                 6.3009
 IR Inten    --    17.5092                18.6448                20.1204

                    82                     83                     84
                     A                      A                      A
 Frequencies --  3129.4229              3132.8410              3133.6398
 Red. masses --     1.1018                 1.0978                 1.0976
 Frc consts  --     6.3574                 6.3483                 6.3506
 IR Inten    --    24.3909                20.9329                19.5791

                    85                     86                     87
                     A                      A                      A
 Frequencies --  3145.6572              3147.0747              3179.5966
 Red. masses --     1.1021                 1.1026                 1.0867
 Frc consts  --     6.4254                 6.4338                 6.4731
 IR Inten    --    17.2568                39.4833                 7.2040

                    88                     89                     90
                     A                      A                      A
 Frequencies --  3193.1661              3208.4381              3244.2260
 Red. masses --     1.0895                 1.0958                 1.0932
 Frc consts  --     6.5455                 6.6461                 6.7792
 IR Inten    --    16.5213                31.1673                 3.1415

 - Thermochemistry -
 -------------------
 Temperature   298.150 Kelvin.  Pressure   1.00000 Atm.
 Atom     1 has atomic number  6 and mass  12.00000

 Molecular mass:   207.12593 amu.
 Principal axes and moments of inertia in atomic units:
                           1         2         3
     Eigenvalues --  1621.412935423.353515858.11484
           X            1.00000  -0.00016  -0.00174
           Y            0.00014   0.99996  -0.00927
           Z            0.00174   0.00927   0.99996
 This molecule is an asymmetric top.
 Rotational symmetry number  1.
 Warning -- assumption of classical behavior for rotation
           may cause significant error
 Rotational temperatures (Kelvin)      0.05342     0.01597     0.01479
 Rotational constants (GHZ):           1.11307     0.33277     0.30808
 Zero-point vibrational energy     719229.8 (Joules/Mol)
                                  171.90006 (Kcal/Mol)
 Warning -- explicit consideration of  23 degrees of freedom as
           vibrations may cause significant error
 Vibrational temperatures:     31.77    51.98    77.30    94.69   130.14
          (Kelvin)            159.91   163.46   180.81   267.92   316.82
                              337.93   359.65   401.90   433.85   470.93
                              539.31   627.47   636.81   658.88   726.19
                              775.17   809.35   885.00   921.94  1037.03
                             1070.25  1098.11  1119.00  1141.42  1146.52
                             1204.22  1223.26  1252.80  1349.90  1370.94
                             1399.51  1403.26  1464.02  1525.46  1549.18
                             1549.79  1586.80  1606.10  1621.30  1648.63
                             1710.35  1718.19  1744.82  1807.68  1824.23
                             1885.43  1898.96  1949.35  1952.88  2014.06
                             2044.02  2066.13  2070.27  2078.90  2100.96
                             2147.07  2167.14  2175.65  2187.37  2189.78
                             2196.43  2197.21  2208.62  2210.51  2224.88
                             2367.34  2394.37  2605.64  4385.47  4391.17
                             4392.55  4406.57  4420.73  4459.70  4478.50
                             4481.80  4502.54  4507.45  4508.60  4525.89
                             4527.93  4574.72  4594.25  4616.22  4667.71

 Zero-point correction=                           0.273940 (Hartree/Particle)
 Thermal correction to Energy=                    0.289727
 Thermal correction to Enthalpy=                  0.290671
 Thermal correction to Gibbs Free Energy=         0.229089
 Sum of electronic and zero-point Energies=           -672.470802
 Sum of electronic and thermal Energies=              -672.455016
 Sum of electronic and thermal Enthalpies=            -672.454072
 Sum of electronic and thermal Free Energies=         -672.515654

                     E (Thermal)             CV                S
                      KCal/Mol        Cal/Mol-Kelvin    Cal/Mol-Kelvin
 Total                  181.806             57.788            129.610
 Electronic               0.000              0.000              0.000
 Translational            0.889              2.981             41.889
 Rotational               0.889              2.981             32.310
 Vibrational            180.029             51.826             55.412
 Vibration     1          0.593              1.985              6.438
 Vibration     2          0.594              1.982              5.461
 Vibration     3          0.596              1.976              4.675
 Vibration     4          0.597              1.971              4.275
 Vibration     5          0.602              1.956              3.650
 Vibration     6          0.607              1.940              3.249
 Vibration     7          0.607              1.938              3.206
 Vibration     8          0.611              1.927              3.011
 Vibration     9          0.632              1.859              2.265
 Vibration    10          0.647              1.810              1.957
 Vibration    11          0.655              1.787              1.841
 Vibration    12          0.663              1.763              1.731
 Vibration    13          0.680              1.712              1.538
 Vibration    14          0.694              1.671              1.408
 Vibration    15          0.711              1.621              1.273
 Vibration    16          0.746              1.524              1.060
 Vibration    17          0.797              1.391              0.839
 Vibration    18          0.802              1.377              0.818
 Vibration    19          0.816              1.343              0.772
 Vibration    20          0.860              1.240              0.646
 Vibration    21          0.894              1.164              0.568
 Vibration    22          0.918              1.112              0.519
 Vibration    23          0.975              1.000              0.424

 Normal termination of Gaussian 09 at Thu Sep 30 04:40:40 2021.
 Gaussian 09:  AM64L-G09RevA.02 11-Jun-2009

 ----------------------------------------------------------------------
 #p TD(NStates=10, Root=1) b3lyp/6-31G* volume pop=NPA density=current
 Geom=AllCheck Guess=Read
 ----------------------------------------------------------------------

 CCN(C(=O)Oc1ccccc1C)CC_conf_0
 -----------------------------
 Redundant internal coordinates taken from checkpoint file:
 C12H17NO2_ee7b_conf_0.chk
 Charge =  0 Multiplicity = 1

                         Standard orientation:
 ---------------------------------------------------------------------
 Center     Atomic      Atomic             Coordinates (Angstroms)
 Number     Number       Type             X           Y           Z
 ---------------------------------------------------------------------
      1          6           0       -2.450310    1.735037    1.842205
      2          6           0       -2.392448    1.387793    0.351974
      3          7           0       -2.158734   -0.037184    0.096773
      4          6           0       -0.920176   -0.596448   -0.003887
      5          8           0       -0.695663   -1.768310   -0.242304
      6          8           0        0.059698    0.355383    0.205738
      7          6           0        1.404997   -0.013964    0.165945
      8          6           0        1.893487   -1.078563    0.920539
      9          6           0        3.261561   -1.349833    0.909622
     10          6           0        4.125952   -0.555062    0.156993
     11          6           0        3.616074    0.509585   -0.586638
     12          6           0        2.247327    0.802090   -0.602086
     13          6           0        1.693292    1.952628   -1.405605
     14          6           0       -3.314752   -0.924197   -0.069278
     15          6           0       -3.768098   -1.051381   -1.525633
     16          1           0       -3.231453    1.161671    2.354169
     17          1           0       -2.668110    2.800950    1.977710
     18          1           0       -1.491958    1.516209    2.322828
     19          1           0       -1.608813    1.966867   -0.139752
     20          1           0       -3.338574    1.649367   -0.135675
     21          1           0        1.207673   -1.690451    1.493213
     22          1           0        3.646705   -2.182257    1.491960
     23          1           0        5.192567   -0.761676    0.147535
     24          1           0        4.288990    1.130564   -1.173424
     25          1           0        2.486404    2.440613   -1.980107
     26          1           0        1.228669    2.708308   -0.760591
     27          1           0        0.921351    1.617346   -2.108287
     28          1           0       -4.124421   -0.528217    0.554430
     29          1           0       -3.042589   -1.906139    0.323671
     30          1           0       -4.032704   -0.075898   -1.950159
     31          1           0       -4.648007   -1.701421   -1.596214
     32          1           0       -2.968306   -1.488240   -2.131103
 ---------------------------------------------------------------------

 SCF Done:  E(RB3LYP) =  -672.744742405     A.U. after    2 cycles

 Excitation energies and oscillator strengths:

 Excited State   1:      Singlet-A      5.3280 eV  232.70 nm  f=0.0027  <S**2>=0.000
      54 -> 58        -0.10769
      55 -> 57        -0.45354
      56 -> 58         0.52878
 This state for optimization and/or second-order correction.
 Total Energy, E(TD-HF/TD-KS) =  -672.548942217
 Copying the excited state density for this state as the 1-particle RhoCI density.

 Excited State   2:      Singlet-A      5.8619 eV  211.51 nm  f=0.1305  <S**2>=0.000
      54 -> 57         0.15865
      55 -> 58         0.26438
      56 -> 57         0.62748

 Excited State   3:      Singlet-A      6.1197 eV  202.60 nm  f=0.0202  <S**2>=0.000
      54 -> 57         0.46986
      54 -> 58        -0.46224
      55 -> 58        -0.18816
      56 -> 58        -0.13975

 Excited State   4:      Singlet-A      6.1397 eV  201.94 nm  f=0.0026  <S**2>=0.000
      54 -> 57         0.45003
      54 -> 58         0.47550
      55 -> 57         0.10009
      55 -> 58        -0.15907
      56 -> 58         0.17269

 Excited State   5:      Singlet-A      6.4181 eV  193.18 nm  f=0.0187  <S**2>=0.000
      53 -> 57         0.57006
      53 -> 58        -0.15192
      53 -> 59        -0.24854
      54 -> 57         0.10699
      55 -> 57        -0.17138
      55 -> 59         0.11322
      56 -> 58        -0.10684

 Excited State   6:      Singlet-A      6.6607 eV  186.14 nm  f=0.3565  <S**2>=0.000
      53 -> 57         0.16706
      53 -> 58         0.42741
      54 -> 57        -0.10428
      55 -> 57        -0.14694
      55 -> 58        -0.35954
      56 -> 57         0.14989
      56 -> 58        -0.10950
      56 -> 59        -0.26837

 Excited State   7:      Singlet-A      6.7825 eV  182.80 nm  f=0.1658  <S**2>=0.000
      53 -> 57         0.13925
      53 -> 58         0.46416
      55 -> 57         0.20603
      55 -> 58         0.16882
      56 -> 58         0.16691
      56 -> 59         0.36397

 Excited State   8:      Singlet-A      6.8940 eV  179.84 nm  f=0.2642  <S**2>=0.000
      52 -> 58        -0.15900
      53 -> 57         0.23356
      53 -> 58        -0.20488
      54 -> 58        -0.15540
      55 -> 57         0.37692
      55 -> 58        -0.21827
      55 -> 59        -0.15110
      56 -> 57         0.11466
      56 -> 58         0.29672
      56 -> 59        -0.16981

 Excited State   9:      Singlet-A      7.0493 eV  175.88 nm  f=0.1442  <S**2>=0.000
      53 -> 57         0.22887
      53 -> 59         0.46572
      55 -> 58         0.26639
      55 -> 59        -0.25546
      56 -> 57        -0.15241
      56 -> 59        -0.21121

 Excited State  10:      Singlet-A      7.1329 eV  173.82 nm  f=0.0815  <S**2>=0.000
      52 -> 57        -0.29120
      53 -> 58        -0.13448
      53 -> 59         0.24559
      54 -> 59        -0.12274
      55 -> 58        -0.21035
      55 -> 59        -0.22563
      56 -> 57         0.11594
      56 -> 59         0.41623

 The electronic state is 1-A.
 Alpha  occ. eigenvalues --  -19.19087 -19.11332 -14.36266 -10.32820 -10.24179
 Alpha  occ. eigenvalues --  -10.22695 -10.22162 -10.19430 -10.18445 -10.18438
 Alpha  occ. eigenvalues --  -10.18318 -10.18316 -10.18253 -10.18238 -10.17879
 Alpha  occ. eigenvalues --   -1.10063  -1.01059  -0.93870  -0.84950  -0.77351
 Alpha  occ. eigenvalues --   -0.76886  -0.75496  -0.72979  -0.68540  -0.65610
 Alpha  occ. eigenvalues --   -0.64406  -0.61204  -0.58495  -0.55091  -0.52571
 Alpha  occ. eigenvalues --   -0.49285  -0.48785  -0.47728  -0.45576  -0.45085
 Alpha  occ. eigenvalues --   -0.44107  -0.43374  -0.42512  -0.41774  -0.40986
 Alpha  occ. eigenvalues --   -0.40155  -0.39674  -0.39032  -0.38417  -0.37728
 Alpha  occ. eigenvalues --   -0.37168  -0.35803  -0.35075  -0.35007  -0.34736
 Alpha  occ. eigenvalues --   -0.33843  -0.30629  -0.26896  -0.24187  -0.23928
 Alpha  occ. eigenvalues --   -0.22678
 Alpha virt. eigenvalues --    0.00577   0.00739   0.05666   0.07917   0.09893
 Alpha virt. eigenvalues --    0.10170   0.11787   0.13401   0.14202   0.14300
 Alpha virt. eigenvalues --    0.14883   0.15206   0.15629   0.16499   0.17022

 Mulliken atomic charges:
              1
     1  C   -0.443021
     2  C   -0.144674
     3  N   -0.436893
     4  C    0.787859
     5  O   -0.509763
     6  O   -0.542711
     7  C    0.287385
     8  C   -0.142862
     9  C   -0.157175
    10  C   -0.115530
    11  C   -0.212926
    12  C    0.143603
    13  C   -0.520879
    14  C   -0.145184
    15  C   -0.444245
    16  H    0.150476
    17  H    0.147932
    18  H    0.167648
    19  H    0.176313
    20  H    0.149751
    21  H    0.146977
    22  H    0.131485
    23  H    0.129959
    24  H    0.121414
    25  H    0.153884
    26  H    0.162152
    27  H    0.162870
    28  H    0.144486
    29  H    0.182964
    30  H    0.144470
    31  H    0.148241
    32  H    0.175991
 Sum of Mulliken atomic charges =  -0.00000

 Dipole moment (field-independent basis, Debye):
    X=             -2.2224    Y=              2.3522    Z=              0.3410  Tot=              3.2539
 Quadrupole moment (field-independent basis, Debye-Ang):
   XX=            -77.3696   YY=            -91.1274   ZZ=            -89.1573
   XY=             -1.5369   XZ=             -1.1798   YZ=             -3.5998

 Summary of Natural Population Analysis:

                                       Natural Population
                Natural  -----------------------------------------------
    Atom  No    Charge         Core      Valence    Rydberg      Total
 -----------------------------------------------------------------------
      C    1   -0.68768      1.99945     4.68074    0.00748     6.68768
      C    2   -0.25910      1.99934     4.24459    0.01516     6.25910
      N    3   -0.49434      1.99930     5.48147    0.01357     7.49434
      C    4    0.93591      1.99936     3.01916    0.04557     5.06409
      O    5   -0.63830      1.99978     6.61941    0.01912     8.63830
      O    6   -0.53861      1.99969     6.52869    0.01023     8.53861
      C    7    0.30895      1.99867     3.66935    0.02302     5.69105
      C    8   -0.27533      1.99904     4.25797    0.01831     6.27533
      C    9   -0.23394      1.99914     4.21689    0.01791     6.23394
      C   10   -0.21425      1.99913     4.19765    0.01746     6.21425
      C   11   -0.24848      1.99908     4.23175    0.01765     6.24848
      C   12   -0.05353      1.99898     4.03774    0.01680     6.05353
      C   13   -0.69117      1.99941     4.68359    0.00818     6.69117
      C   14   -0.25511      1.99935     4.24029    0.01547     6.25511
      C   15   -0.68845      1.99945     4.68156    0.00744     6.68845
      H   16    0.22803      0.00000     0.77104    0.00093     0.77197
      H   17    0.23508      0.00000     0.76400    0.00092     0.76492
      H   18    0.23948      0.00000     0.75920    0.00132     0.76052
      H   19    0.25186      0.00000     0.74665    0.00149     0.74814
      H   20    0.23122      0.00000     0.76733    0.00144     0.76878
      H   21    0.24721      0.00000     0.75162    0.00117     0.75279
      H   22    0.23114      0.00000     0.76803    0.00083     0.76886
      H   23    0.23030      0.00000     0.76885    0.00085     0.76970
      H   24    0.22620      0.00000     0.77279    0.00101     0.77380
      H   25    0.23808      0.00000     0.76110    0.00082     0.76192
      H   26    0.24167      0.00000     0.75634    0.00199     0.75833
      H   27    0.24379      0.00000     0.75450    0.00171     0.75621
      H   28    0.22729      0.00000     0.77135    0.00136     0.77271
      H   29    0.25827      0.00000     0.73978    0.00195     0.74173
      H   30    0.22406      0.00000     0.77500    0.00094     0.77594
      H   31    0.23545      0.00000     0.76368    0.00087     0.76455
      H   32    0.24427      0.00000     0.75446    0.00127     0.75573
 =======================================================================
   * Total *    0.00000     29.98919    81.73657    0.27424   112.00000

 Normal termination of Gaussian 09 at Thu Sep 30 09:50:02 2021.
