 Gaussian 09, Revision A.02,

 -----------------------------------
 #p opt b3lyp/6-31G* scf=(xqc,tight)
 -----------------------------------

 -------------------------------
 COC(=O)Oc1ccc2c(c1)cccc2_conf_0
 -------------------------------
 Symbolic Z-matrix:
 Charge =  0 Multiplicity = 1

 SCF Done:  E(RB3LYP) =  -688.982244930     A.U. after   15 cycles
 SCF Done:  E(RB3LYP) =  -688.988317414     A.U. after   12 cycles
 SCF Done:  E(RB3LYP) =  -688.986656618     A.U. after   12 cycles
 SCF Done:  E(RB3LYP) =  -688.988635886     A.U. after   12 cycles
 SCF Done:  E(RB3LYP) =  -688.988774521     A.U. after   12 cycles
 SCF Done:  E(RB3LYP) =  -688.988900227     A.U. after   12 cycles
 SCF Done:  E(RB3LYP) =  -688.988913089     A.U. after   11 cycles
 SCF Done:  E(RB3LYP) =  -688.988918089     A.U. after    9 cycles
 SCF Done:  E(RB3LYP) =  -688.988921953     A.U. after   10 cycles
 SCF Done:  E(RB3LYP) =  -688.988926573     A.U. after   11 cycles
 SCF Done:  E(RB3LYP) =  -688.988927845     A.U. after    9 cycles
 SCF Done:  E(RB3LYP) =  -688.988928376     A.U. after    9 cycles
 SCF Done:  E(RB3LYP) =  -688.988928735     A.U. after    8 cycles
 SCF Done:  E(RB3LYP) =  -688.988929007     A.U. after    8 cycles
 Optimization completed.
    -- Stationary point found.
 Normal termination of Gaussian 09 at Thu Sep 30 02:30:47 2021.

 ----------------------------------------------------------------------
 #p freq b3lyp/6-31G* volume NMR pop=NPA density=current Geom=AllCheck
 Guess=Read
 ----------------------------------------------------------------------

 COC(=O)Oc1ccc2c(c1)cccc2_conf_0
 -------------------------------
 Redundant internal coordinates taken from checkpoint file:
 C12H10O3_1f88_conf_0.chk
 Charge =  0 Multiplicity = 1

 SCF Done:  E(RB3LYP) =  -688.988929007     A.U. after    1 cycles

  1  C    Isotropic =   136.5966   Anisotropy =    68.5322

  2  O    Isotropic =   191.0695   Anisotropy =   145.6565

  3  C    Isotropic =    44.3960   Anisotropy =    90.8776

  4  O    Isotropic =    49.3630   Anisotropy =   391.6359

  5  O    Isotropic =   143.8640   Anisotropy =   125.2310

  6  C    Isotropic =    46.1906   Anisotropy =   101.1951

  7  C    Isotropic =    76.7027   Anisotropy =   137.0475

  8  C    Isotropic =    66.7902   Anisotropy =   143.7364

  9  C    Isotropic =    66.1607   Anisotropy =   195.8821

 10  C    Isotropic =    62.7944   Anisotropy =   194.8541

 11  C    Isotropic =    77.7746   Anisotropy =   134.2108

 12  C    Isotropic =    67.2798   Anisotropy =   146.1053

 13  C    Isotropic =    69.7541   Anisotropy =   162.8252

 14  C    Isotropic =    70.8651   Anisotropy =   161.1668

 15  C    Isotropic =    68.0203   Anisotropy =   145.9572

 16  H    Isotropic =    28.3652   Anisotropy =     8.1723

 17  H    Isotropic =    28.3024   Anisotropy =     8.0954

 18  H    Isotropic =    28.6460   Anisotropy =     7.7342

 19  H    Isotropic =    25.1784   Anisotropy =     6.6214

 20  H    Isotropic =    24.5952   Anisotropy =     6.6597

 21  H    Isotropic =    23.9565   Anisotropy =    11.1402

 22  H    Isotropic =    24.5286   Anisotropy =     7.6915

 23  H    Isotropic =    24.7796   Anisotropy =     5.2691

 24  H    Isotropic =    24.8239   Anisotropy =     5.0004

 25  H    Isotropic =    24.6053   Anisotropy =     6.8047

  Exact polarizability: 212.645 -12.695 139.347   4.516   4.360  53.284
 Approx polarizability: 309.534 -30.584 254.081  11.474   5.893  83.516

                     1                      2                      3
                     A                      A                      A
 Frequencies --    19.1205                46.8446                89.8849
 Red. masses --     5.9829                 5.0769                 4.5946
 Frc consts  --     0.0013                 0.0066                 0.0219
 IR Inten    --     0.2153                 1.9641                 0.9478

                     4                      5                      6
                     A                      A                      A
 Frequencies --   128.0871               141.0212               179.4618
 Red. masses --     1.3816                 2.9152                 3.6817
 Frc consts  --     0.0134                 0.0342                 0.0699
 IR Inten    --     0.9911                 0.6629                 2.9897

                     7                      8                      9
                     A                      A                      A
 Frequencies --   186.3230               257.8527               291.2573
 Red. masses --     3.7008                 5.0314                 6.7665
 Frc consts  --     0.0757                 0.1971                 0.3382
 IR Inten    --     0.2931                 5.8937                 3.1797

                    10                     11                     12
                     A                      A                      A
 Frequencies --   316.3870               361.4173               410.6522
 Red. masses --     5.4012                 5.3920                 3.3881
 Frc consts  --     0.3185                 0.4150                 0.3366
 IR Inten    --     0.5838                21.2113                 0.0244

                    13                     14                     15
                     A                      A                      A
 Frequencies --   434.8610               487.5290               524.0223
 Red. masses --     4.5249                 2.5931                 6.5541
 Frc consts  --     0.5042                 0.3631                 1.0604
 IR Inten    --     6.5814                10.5967                 0.1481

                    16                     17                     18
                     A                      A                      A
 Frequencies --   537.7713               557.0968               637.8678
 Red. masses --     4.0892                 6.6414                 6.4281
 Frc consts  --     0.6968                 1.2144                 1.5410
 IR Inten    --     0.1132                 0.7032                 4.6767

                    19                     20                     21
                     A                      A                      A
 Frequencies --   645.6638               725.3870               758.9272
 Red. masses --     3.5100                 5.6146                 5.3529
 Frc consts  --     0.8621                 1.7406                 1.8165
 IR Inten    --     0.4426                 0.1254                 3.6221

                    22                     23                     24
                     A                      A                      A
 Frequencies --   766.4296               768.9925               772.3733
 Red. masses --     1.4481                 6.6036                 3.7433
 Frc consts  --     0.5012                 2.3008                 1.3157
 IR Inten    --    30.2070                15.7416                 2.1000

                    25                     26                     27
                     A                      A                      A
 Frequencies --   785.9599               831.1076               874.8821
 Red. masses --     4.8534                 1.3831                 1.4761
 Frc consts  --     1.7664                 0.5629                 0.6657
 IR Inten    --     0.3655                25.8867                22.8831

                    28                     29                     30
                     A                      A                      A
 Frequencies --   901.1695               918.8152               953.9237
 Red. masses --     1.5897                 5.1025                 1.3715
 Frc consts  --     0.7606                 2.5380                 0.7353
 IR Inten    --    10.2213                11.2367                 1.8919

                    31                     32                     33
                     A                      A                      A
 Frequencies --   961.1966               966.0922               981.5608
 Red. masses --     4.8982                 1.3457                 4.3272
 Frc consts  --     2.6663                 0.7400                 2.4564
 IR Inten    --    26.8251                 0.8103                51.5982

                    34                     35                     36
                     A                      A                      A
 Frequencies --   990.8267              1051.8816              1099.7180
 Red. masses --     1.2727                 2.3139                 4.0588
 Frc consts  --     0.7361                 1.5084                 2.8921
 IR Inten    --     0.0960                 0.7661                46.6941

                    37                     38                     39
                     A                      A                      A
 Frequencies --  1155.2260              1177.4139              1188.4889
 Red. masses --     1.6664                 1.2362                 1.1800
 Frc consts  --     1.3102                 1.0097                 0.9820
 IR Inten    --     5.0954                 1.7231                 2.3885

                    40                     41                     42
                     A                      A                      A
 Frequencies --  1189.1704              1204.2495              1228.7953
 Red. masses --     1.2649                 1.7156                 1.6121
 Frc consts  --     1.0539                 1.4659                 1.4342
 IR Inten    --     0.7668                50.0608                11.8986

                    43                     44                     45
                     A                      A                      A
 Frequencies --  1254.8474              1287.3623              1295.9452
 Red. masses --     2.6941                 2.1305                 1.9404
 Frc consts  --     2.4995                 2.0804                 1.9200
 IR Inten    --    46.5456               356.9987                60.1144

                    46                     47                     48
                     A                      A                      A
 Frequencies --  1306.8345              1399.1770              1413.9940
 Red. masses --     5.2429                 1.9149                 5.3648
 Frc consts  --     5.2755                 2.2088                 6.3197
 IR Inten    --  1214.6386                 9.1257                15.0089

                    49                     50                     51
                     A                      A                      A
 Frequencies --  1426.5441              1489.5974              1497.2977
 Red. masses --     4.9110                 2.5384                 1.2070
 Frc consts  --     5.8883                 3.3186                 1.5944
 IR Inten    --    43.2794                 1.0281                54.6677

                    52                     53                     54
                     A                      A                      A
 Frequencies --  1514.3018              1516.9661              1526.1227
 Red. masses --     1.0481                 2.2187                 1.0530
 Frc consts  --     1.4161                 3.0081                 1.4450
 IR Inten    --     6.5527                23.7704                 6.5283

                    55                     56                     57
                     A                      A                      A
 Frequencies --  1567.0045              1633.6410              1660.1109
 Red. masses --     3.4863                 7.3646                 5.3347
 Frc consts  --     5.0438                11.5800                 8.6623
 IR Inten    --    18.0320                 5.2679                38.9930

                    58                     59                     60
                     A                      A                      A
 Frequencies --  1685.9753              1836.9781              3077.6969
 Red. masses --     6.1560                11.6600                 1.0298
 Frc consts  --    10.3098                23.1823                 5.7474
 IR Inten    --    21.2757               213.2809                36.4276

                    61                     62                     63
                     A                      A                      A
 Frequencies --  3153.7403              3178.6985              3184.2630
 Red. masses --     1.1081                 1.0859                 1.0880
 Frc consts  --     6.4936                 6.4646                 6.4995
 IR Inten    --    20.2410                 2.9742                 0.7546

                    64                     65                     66
                     A                      A                      A
 Frequencies --  3187.4428              3189.7681              3197.1408
 Red. masses --     1.1069                 1.0888                 1.0934
 Frc consts  --     6.6257                 6.5270                 6.5852
 IR Inten    --    17.0952                 8.3523                33.8166

                    67                     68                     69
                     A                      A                      A
 Frequencies --  3209.6840              3221.8602              3260.6092
 Red. masses --     1.0972                 1.0939                 1.0913
 Frc consts  --     6.6600                 6.6904                 6.8360
 IR Inten    --    30.4944                 6.4587                 0.2357

 - Thermochemistry -
 -------------------
 Temperature   298.150 Kelvin.  Pressure   1.00000 Atm.
 Atom     1 has atomic number  6 and mass  12.00000

 Molecular mass:   202.06299 amu.
 Principal axes and moments of inertia in atomic units:
                           1         2         3
     Eigenvalues --   983.502116204.770737113.48871
           X            0.99999   0.00471  -0.00030
           Y           -0.00471   0.99993   0.01043
           Z            0.00035  -0.01043   0.99995
 This molecule is an asymmetric top.
 Rotational symmetry number  1.
 Warning -- assumption of classical behavior for rotation
           may cause significant error
 Rotational temperatures (Kelvin)      0.08807     0.01396     0.01218
 Rotational constants (GHZ):           1.83502     0.29086     0.25371
 Zero-point vibrational energy     512476.1 (Joules/Mol)
                                  122.48473 (Kcal/Mol)
 Warning -- explicit consideration of  17 degrees of freedom as
           vibrations may cause significant error
 Vibrational temperatures:     27.51    67.40   129.32   184.29   202.90
          (Kelvin)            258.21   268.08   370.99   419.05   455.21
                              520.00   590.84   625.67   701.44   753.95
                              773.73   801.54   917.75   928.96  1043.67
                             1091.93  1102.72  1106.41  1111.27  1130.82
                             1195.78  1258.76  1296.58  1321.97  1372.48
                             1382.95  1389.99  1412.25  1425.58  1513.42
                             1582.25  1662.11  1694.03  1709.97  1710.95
                             1732.64  1767.96  1805.44  1852.22  1864.57
                             1880.24  2013.10  2034.42  2052.48  2143.20
                             2154.27  2178.74  2182.57  2195.75  2254.57
                             2350.44  2388.53  2425.74  2643.00  4428.11
                             4537.52  4573.43  4581.44  4586.01  4589.36
                             4599.97  4618.01  4635.53  4691.28

 Zero-point correction=                           0.195192 (Hartree/Particle)
 Thermal correction to Energy=                    0.207615
 Thermal correction to Enthalpy=                  0.208559
 Thermal correction to Gibbs Free Energy=         0.154685
 Sum of electronic and zero-point Energies=           -688.793737
 Sum of electronic and thermal Energies=              -688.781314
 Sum of electronic and thermal Enthalpies=            -688.780370
 Sum of electronic and thermal Free Energies=         -688.834244

                     E (Thermal)             CV                S
                      KCal/Mol        Cal/Mol-Kelvin    Cal/Mol-Kelvin
 Total                  130.280             47.394            113.387
 Electronic               0.000              0.000              0.000
 Translational            0.889              2.981             41.815
 Rotational               0.889              2.981             32.140
 Vibrational            128.503             41.432             39.432
 Vibration     1          0.593              1.986              6.724
 Vibration     2          0.595              1.979              4.946
 Vibration     3          0.602              1.956              3.663
 Vibration     4          0.611              1.925              2.975
 Vibration     5          0.615              1.912              2.790
 Vibration     6          0.629              1.868              2.334
 Vibration     7          0.632              1.859              2.264
 Vibration     8          0.667              1.749              1.676
 Vibration     9          0.687              1.690              1.467
 Vibration    10          0.703              1.642              1.329
 Vibration    11          0.736              1.552              1.116
 Vibration    12          0.775              1.447              0.924
 Vibration    13          0.795              1.394              0.843
 Vibration    14          0.843              1.278              0.690
 Vibration    15          0.879              1.197              0.601
 Vibration    16          0.893              1.167              0.570
 Vibration    17          0.913              1.124              0.530

 Optimization completed.
    -- Stationary point found.
 Normal termination of Gaussian 09 at Thu Sep 30 03:22:57 2021.
 Gaussian 09:  AM64L-G09RevA.02 11-Jun-2009

 ----------------------------------------------------------------------
 #p TD(NStates=10, Root=1) b3lyp/6-31G* volume pop=NPA density=current
 Geom=AllCheck Guess=Read
 ----------------------------------------------------------------------

 COC(=O)Oc1ccc2c(c1)cccc2_conf_0
 -------------------------------
 Redundant internal coordinates taken from checkpoint file:
 C12H10O3_1f88_conf_0.chk
 Charge =  0 Multiplicity = 1

                         Standard orientation:
 ---------------------------------------------------------------------
 Center     Atomic      Atomic             Coordinates (Angstroms)
 Number     Number       Type             X           Y           Z
 ---------------------------------------------------------------------
      1          6           0       -5.085841   -0.626025    0.088022
      2          8           0       -4.022629    0.291525   -0.215667
      3          6           0       -2.794362   -0.171238    0.054979
      4          8           0       -2.532558   -1.256620    0.517388
      5          8           0       -1.933076    0.811364   -0.288691
      6          6           0       -0.550536    0.681853   -0.141305
      7          6           0        0.111482    1.922286    0.022863
      8          6           0        1.480982    1.956450    0.121340
      9          6           0        2.248849    0.762259    0.060959
     10          6           0        1.562883   -0.484078   -0.107999
     11          6           0        0.145171   -0.501818   -0.214131
     12          6           0        2.326798   -1.680901   -0.171021
     13          6           0        3.699655   -1.647573   -0.071722
     14          6           0        4.376728   -0.414887    0.096295
     15          6           0        3.665294    0.762108    0.161275
     16          1           0       -5.093143   -0.866993    1.154175
     17          1           0       -4.974147   -1.548245   -0.488095
     18          1           0       -6.001443   -0.106007   -0.193830
     19          1           0       -0.486284    2.826897    0.065936
     20          1           0        1.993076    2.907010    0.247935
     21          1           0       -0.371311   -1.444610   -0.332653
     22          1           0        1.805847   -2.626700   -0.298182
     23          1           0        4.270304   -2.571019   -0.121520
     24          1           0        5.460443   -0.402449    0.173937
     25          1           0        4.180139    1.711352    0.290739
 ---------------------------------------------------------------------

 SCF Done:  E(RB3LYP) =  -688.988929007     A.U. after    1 cycles

 Excitation energies and oscillator strengths:

 Excited State   1:      Singlet-A      4.3573 eV  284.54 nm  f=0.0326  <S**2>=0.000
      52 -> 54         0.25142
      52 -> 55         0.15199
      53 -> 54         0.59195
      53 -> 55        -0.24058
 This state for optimization and/or second-order correction.
 Total Energy, E(TD-HF/TD-KS) =  -688.828799991
 Copying the excited state density for this state as the 1-particle RhoCI density.

 Excited State   2:      Singlet-A      4.4932 eV  275.94 nm  f=0.0115  <S**2>=0.000
      52 -> 54         0.44721
      53 -> 54        -0.34314
      53 -> 55        -0.41834

 Excited State   3:      Singlet-A      5.7112 eV  217.09 nm  f=1.0538  <S**2>=0.000
      51 -> 54         0.13879
      52 -> 54         0.42129
      52 -> 55         0.12106
      53 -> 55         0.46365
      53 -> 56         0.12656
      53 -> 57         0.19623

 Excited State   4:      Singlet-A      5.7377 eV  216.09 nm  f=0.0066  <S**2>=0.000
      51 -> 54        -0.45632
      53 -> 56         0.51576
      53 -> 57        -0.12715

 Excited State   5:      Singlet-A      6.0169 eV  206.06 nm  f=0.1117  <S**2>=0.000
      50 -> 54         0.31569
      50 -> 56         0.10328
      51 -> 54        -0.20270
      52 -> 55         0.51966
      53 -> 54        -0.10326
      53 -> 56        -0.15259
      53 -> 57        -0.12287

 Excited State   6:      Singlet-A      6.0728 eV  204.16 nm  f=0.1123  <S**2>=0.000
      50 -> 54         0.50868
      51 -> 54        -0.14567
      51 -> 55        -0.10969
      51 -> 56        -0.10142
      52 -> 55        -0.37990

 Excited State   7:      Singlet-A      6.2157 eV  199.47 nm  f=0.0173  <S**2>=0.000
      49 -> 54        -0.17205
      51 -> 55        -0.35066
      52 -> 56         0.40130
      52 -> 57        -0.11697
      53 -> 57        -0.37781

 Excited State   8:      Singlet-A      6.3262 eV  195.98 nm  f=0.3020  <S**2>=0.000
      50 -> 54         0.17625
      51 -> 54         0.20882
      51 -> 55        -0.22369
      52 -> 54        -0.19419
      52 -> 55         0.13297
      52 -> 56         0.22312
      53 -> 55        -0.17454
      53 -> 56         0.32075
      53 -> 57         0.33293

 Excited State   9:      Singlet-A      6.5854 eV  188.27 nm  f=0.0067  <S**2>=0.000
      49 -> 54        -0.17698
      50 -> 54         0.19259
      50 -> 55         0.10168
      51 -> 54         0.37875
      51 -> 55         0.10344
      52 -> 56        -0.22637
      52 -> 57         0.10559
      53 -> 56         0.26332
      53 -> 57        -0.34146

 Excited State  10:      Singlet-A      6.6583 eV  186.21 nm  f=0.0002  <S**2>=0.000
      47 -> 54         0.15457
      49 -> 54        -0.10653
      50 -> 54        -0.20054
      50 -> 55         0.49373
      50 -> 56         0.20608
      50 -> 57         0.23598
      51 -> 55        -0.17305
      52 -> 57         0.11084
      53 -> 57         0.10161

 The electronic state is 1-A.
 Alpha  occ. eigenvalues --  -19.21196 -19.20360 -19.14391 -10.36880 -10.25796
 Alpha  occ. eigenvalues --  -10.24882 -10.20126 -10.19857 -10.19677 -10.19575
 Alpha  occ. eigenvalues --  -10.19172 -10.19148 -10.19102 -10.19069 -10.19020
 Alpha  occ. eigenvalues --   -1.14958  -1.06729  -1.02769  -0.87454  -0.82489
 Alpha  occ. eigenvalues --   -0.77592  -0.76163  -0.73142  -0.71614  -0.65728
 Alpha  occ. eigenvalues --   -0.62057  -0.59939  -0.58205  -0.55021  -0.51792
 Alpha  occ. eigenvalues --   -0.51302  -0.50480  -0.48801  -0.46700  -0.45188
 Alpha  occ. eigenvalues --   -0.44816  -0.44211  -0.43767  -0.42218  -0.41304
 Alpha  occ. eigenvalues --   -0.40043  -0.38892  -0.38087  -0.37151  -0.35614
 Alpha  occ. eigenvalues --   -0.34506  -0.33506  -0.31234  -0.31187  -0.29170
 Alpha  occ. eigenvalues --   -0.28276  -0.23845  -0.21442
 Alpha virt. eigenvalues --   -0.03880  -0.01019   0.02729   0.04036   0.08840
 Alpha virt. eigenvalues --    0.10194   0.10484   0.11132   0.12012   0.12982
 Alpha virt. eigenvalues --    0.14992   0.16663   0.16838   0.17060   0.18271

 Mulliken atomic charges:
              1
     1  C   -0.219514
     2  O   -0.440295
     3  C    0.790746
     4  O   -0.467993
     5  O   -0.492414
     6  C    0.349480
     7  C   -0.191289
     8  C   -0.215881
     9  C    0.157061
    10  C    0.123732
    11  C   -0.227850
    12  C   -0.193550
    13  C   -0.155596
    14  C   -0.110620
    15  C   -0.206072
    16  H    0.177496
    17  H    0.176084
    18  H    0.175321
    19  H    0.137128
    20  H    0.130349
    21  H    0.174853
    22  H    0.132491
    23  H    0.124469
    24  H    0.138910
    25  H    0.132955
 Sum of Mulliken atomic charges =   0.00000

 Dipole moment (field-independent basis, Debye):
    X=             -1.1063    Y=             -0.0454    Z=             -0.1790  Tot=              1.1216
 Quadrupole moment (field-independent basis, Debye-Ang):
   XX=            -62.7613   YY=            -82.4511   ZZ=            -88.6042
   XY=              3.4905   XZ=              0.4853   YZ=              3.0126

 Summary of Natural Population Analysis:

                                       Natural Population
                Natural  -----------------------------------------------
    Atom  No    Charge         Core      Valence    Rydberg      Total
 -----------------------------------------------------------------------
      C    1   -0.31829      1.99942     4.30531    0.01357     6.31829
      O    2   -0.53494      1.99974     6.52390    0.01130     8.53494
      C    3    1.05065      1.99954     2.89912    0.05069     4.94935
      O    4   -0.62535      1.99977     6.60508    0.02050     8.62535
      O    5   -0.50252      1.99967     6.49143    0.01141     8.50252
      C    6    0.36267      1.99870     3.61705    0.02158     5.63733
      C    7   -0.32845      1.99904     4.31214    0.01726     6.32845
      C    8   -0.21491      1.99907     4.20010    0.01574     6.21491
      C    9   -0.05266      1.99903     4.03857    0.01506     6.05266
      C   10   -0.04912      1.99903     4.03468    0.01541     6.04912
      C   11   -0.25812      1.99897     4.24429    0.01486     6.25812
      C   12   -0.20039      1.99906     4.18592    0.01540     6.20039
      C   13   -0.29429      1.99912     4.27881    0.01636     6.29429
      C   14   -0.16062      1.99911     4.14677    0.01475     6.16062
      C   15   -0.22209      1.99907     4.20765    0.01538     6.22209
      H   16    0.22165      0.00000     0.77696    0.00140     0.77835
      H   17    0.22091      0.00000     0.77768    0.00141     0.77909
      H   18    0.22776      0.00000     0.77165    0.00058     0.77224
      H   19    0.24732      0.00000     0.75171    0.00097     0.75268
      H   20    0.23392      0.00000     0.76500    0.00108     0.76608
      H   21    0.26172      0.00000     0.73674    0.00154     0.73828
      H   22    0.23240      0.00000     0.76648    0.00112     0.76760
      H   23    0.23479      0.00000     0.76442    0.00079     0.76521
      H   24    0.23537      0.00000     0.76377    0.00086     0.76463
      H   25    0.23258      0.00000     0.76628    0.00114     0.76742
 =======================================================================
   * Total *   -0.00000     29.98833    75.73151    0.28016   106.00000

 Normal termination of Gaussian 09 at Thu Sep 30 07:37:39 2021.
