 Gaussian 09, Revision A.02,

 -----------------------------------
 #p opt b3lyp/6-31G* scf=(xqc,tight)
 -----------------------------------

 ------------------------------------
 COc1ccc(cc1)Oc1nc(OC)nc(n1)OC_conf_0
 ------------------------------------
 Symbolic Z-matrix:
 Charge =  0 Multiplicity = 1

 SCF Done:  E(RB3LYP) =  -930.229048916     A.U. after   14 cycles
 SCF Done:  E(RB3LYP) =  -930.238849329     A.U. after   13 cycles
 SCF Done:  E(RB3LYP) =  -930.244699153     A.U. after   14 cycles
 SCF Done:  E(RB3LYP) =  -930.246217932     A.U. after   12 cycles
 SCF Done:  E(RB3LYP) =  -930.246913519     A.U. after   12 cycles
 SCF Done:  E(RB3LYP) =  -930.247281682     A.U. after   12 cycles
 SCF Done:  E(RB3LYP) =  -930.247517371     A.U. after   11 cycles
 SCF Done:  E(RB3LYP) =  -930.247663498     A.U. after   12 cycles
 SCF Done:  E(RB3LYP) =  -930.247702861     A.U. after   11 cycles
 SCF Done:  E(RB3LYP) =  -930.247718302     A.U. after   11 cycles
 SCF Done:  E(RB3LYP) =  -930.247731243     A.U. after   11 cycles
 SCF Done:  E(RB3LYP) =  -930.247741765     A.U. after   12 cycles
 SCF Done:  E(RB3LYP) =  -930.247747146     A.U. after   10 cycles
 SCF Done:  E(RB3LYP) =  -930.247754662     A.U. after   10 cycles
 SCF Done:  E(RB3LYP) =  -930.247756345     A.U. after    9 cycles
 SCF Done:  E(RB3LYP) =  -930.247756727     A.U. after    7 cycles
 SCF Done:  E(RB3LYP) =  -930.247756842     A.U. after    7 cycles
 Optimization completed.
    -- Stationary point found.
 Normal termination of Gaussian 09 at Tue Sep 28 21:54:35 2021.

 ----------------------------------------------------------------------
 #p freq b3lyp/6-31G* volume NMR pop=NPA density=current Geom=AllCheck
 Guess=Read
 ----------------------------------------------------------------------

 COc1ccc(cc1)Oc1nc(OC)nc(n1)OC_conf_0
 ------------------------------------
 Redundant internal coordinates taken from checkpoint file:
 C12H13N3O4_bf2b_conf_0.chk
 Charge =  0 Multiplicity = 1

 SCF Done:  E(RB3LYP) =  -930.247756842     A.U. after    1 cycles

  1  C    Isotropic =   137.3403   Anisotropy =    65.3306

  2  O    Isotropic =   238.8431   Anisotropy =    79.2390

  3  C    Isotropic =    41.1615   Anisotropy =   126.6471

  4  C    Isotropic =    86.1380   Anisotropy =   143.4216

  5  C    Isotropic =    73.3305   Anisotropy =   144.5210

  6  C    Isotropic =    50.2869   Anisotropy =   101.5475

  7  C    Isotropic =    71.5938   Anisotropy =   147.7821

  8  C    Isotropic =    77.7036   Anisotropy =   135.1572

  9  O    Isotropic =   141.1412   Anisotropy =    82.7020

 10  C    Isotropic =    22.5354   Anisotropy =    95.0533

 11  N    Isotropic =    56.8929   Anisotropy =   280.4499

 12  C    Isotropic =    22.6085   Anisotropy =   100.4252

 13  O    Isotropic =   191.3361   Anisotropy =    87.7503

 14  C    Isotropic =   136.3974   Anisotropy =    64.4293

 15  N    Isotropic =    63.1731   Anisotropy =   283.2952

 16  C    Isotropic =    24.0833   Anisotropy =    99.0866

 17  N    Isotropic =    66.4388   Anisotropy =   282.1238

 18  O    Isotropic =   191.6915   Anisotropy =    86.4075

 19  C    Isotropic =   136.7481   Anisotropy =    63.5806

 20  H    Isotropic =    28.2727   Anisotropy =     8.2001

 21  H    Isotropic =    28.6500   Anisotropy =     8.1709

 22  H    Isotropic =    28.6449   Anisotropy =     7.8524

 23  H    Isotropic =    25.7796   Anisotropy =     6.8592

 24  H    Isotropic =    25.3445   Anisotropy =     6.5976

 25  H    Isotropic =    25.3236   Anisotropy =     6.7826

 26  H    Isotropic =    25.4681   Anisotropy =     5.3466

 27  H    Isotropic =    28.5355   Anisotropy =     7.7334

 28  H    Isotropic =    28.3155   Anisotropy =     7.9883

 29  H    Isotropic =    28.3243   Anisotropy =     7.9706

 30  H    Isotropic =    28.7362   Anisotropy =     7.3961

 31  H    Isotropic =    28.6681   Anisotropy =     6.6426

 32  H    Isotropic =    28.7417   Anisotropy =     6.4789

  Exact polarizability: 233.833 -20.550 125.475   4.876   6.307 114.906
 Approx polarizability: 297.660 -33.481 204.313   3.789  14.894 192.950

                     1                      2                      3
                     A                      A                      A
 Frequencies --    17.3090                25.1206                41.7532
 Red. masses --     3.8037                 4.8506                 4.9902
 Frc consts  --     0.0007                 0.0018                 0.0051
 IR Inten    --     0.6593                 0.2514                 0.0898

                     4                      5                      6
                     A                      A                      A
 Frequencies --    86.3840               100.0790               112.7457
 Red. masses --     3.5368                 3.3752                 3.2149
 Frc consts  --     0.0155                 0.0199                 0.0241
 IR Inten    --     2.4930                 5.8493                 0.1237

                     7                      8                      9
                     A                      A                      A
 Frequencies --   143.3345               151.3400               160.7436
 Red. masses --     1.2289                 4.3501                 1.2081
 Frc consts  --     0.0149                 0.0587                 0.0184
 IR Inten    --     0.0428                 0.8786                 0.0058

                    10                     11                     12
                     A                      A                      A
 Frequencies --   189.8478               192.9773               206.3371
 Red. masses --     3.8747                 3.9483                 4.0801
 Frc consts  --     0.0823                 0.0866                 0.1023
 IR Inten    --     4.2989                 3.2193                 2.7976

                    13                     14                     15
                     A                      A                      A
 Frequencies --   227.2069               242.4270               253.1781
 Red. masses --     5.5174                 3.7527                 2.5102
 Frc consts  --     0.1678                 0.1299                 0.0948
 IR Inten    --     0.0628                 1.7569                 2.8428

                    16                     17                     18
                     A                      A                      A
 Frequencies --   261.4806               307.2696               366.7072
 Red. masses --     1.7071                 4.1159                 5.3462
 Frc consts  --     0.0688                 0.2290                 0.4236
 IR Inten    --     1.6577                 6.3198                 0.6156

                    19                     20                     21
                     A                      A                      A
 Frequencies --   400.5208               431.9938               456.1440
 Red. masses --     5.9831                 3.2299                 5.3456
 Frc consts  --     0.5655                 0.3551                 0.6553
 IR Inten    --     3.3357                 0.0084                 5.5124

                    22                     23                     24
                     A                      A                      A
 Frequencies --   479.8600               520.9158               545.8777
 Red. masses --     4.9259                 3.6200                 3.9590
 Frc consts  --     0.6683                 0.5788                 0.6951
 IR Inten    --     7.0874                 2.1601                 7.8878

                    25                     26                     27
                     A                      A                      A
 Frequencies --   577.4060               603.7069               650.5007
 Red. masses --     7.5091                 7.0909                 6.8048
 Frc consts  --     1.4750                 1.5227                 1.6965
 IR Inten    --    13.5966                 6.2481                 0.7524

                    28                     29                     30
                     A                      A                      A
 Frequencies --   663.8195               707.7595               733.7547
 Red. masses --     5.0769                 6.0527                 5.1099
 Frc consts  --     1.3181                 1.7864                 1.6209
 IR Inten    --     2.8689                 9.8542                 5.1763

                    31                     32                     33
                     A                      A                      A
 Frequencies --   738.7764               749.3224               791.6225
 Red. masses --    11.2633                11.9755                 5.1551
 Frc consts  --     3.6220                 3.9617                 1.9034
 IR Inten    --     0.7767                 0.0701                 4.8865

                    34                     35                     36
                     A                      A                      A
 Frequencies --   817.0401               828.3701               849.8725
 Red. masses --     1.2742                11.1602                 2.0177
 Frc consts  --     0.5011                 4.5120                 0.8587
 IR Inten    --     2.3902                40.3947                42.3829

                    37                     38                     39
                     A                      A                      A
 Frequencies --   874.4787               937.0085               952.0030
 Red. masses --     4.9991                 1.3288                 1.2994
 Frc consts  --     2.2524                 0.6874                 0.6939
 IR Inten    --     8.9547                 0.3690                 0.1510

                    40                     41                     42
                     A                      A                      A
 Frequencies --   980.5556               997.8701              1030.0541
 Red. masses --     7.6275                13.7548                 2.9148
 Frc consts  --     4.3209                 8.0696                 1.8221
 IR Inten    --    17.4230                 0.3475                 3.5840

                    43                     44                     45
                     A                      A                      A
 Frequencies --  1040.0758              1079.5465              1131.5089
 Red. masses --     6.3153                 6.3307                 4.0630
 Frc consts  --     4.0251                 4.3469                 3.0648
 IR Inten    --     7.1263                54.1772               101.3428

                    46                     47                     48
                     A                      A                      A
 Frequencies --  1134.3646              1157.2833              1183.9252
 Red. masses --     1.3507                 3.4828                 1.2660
 Frc consts  --     1.0240                 2.7483                 1.0455
 IR Inten    --    18.2013               122.8846                 0.2781

                    49                     50                     51
                     A                      A                      A
 Frequencies --  1184.7671              1186.0956              1193.6958
 Red. masses --     1.2660                 1.2702                 1.1657
 Frc consts  --     1.0470                 1.0528                 0.9786
 IR Inten    --     0.8671                 0.7893                 0.4083

                    52                     53                     54
                     A                      A                      A
 Frequencies --  1219.0946              1220.4015              1237.8705
 Red. masses --     1.3999                 1.5667                 2.0063
 Frc consts  --     1.2258                 1.3748                 1.8113
 IR Inten    --    31.9564                11.4006                61.0095

                    55                     56                     57
                     A                      A                      A
 Frequencies --  1245.8749              1299.3731              1322.4219
 Red. masses --     3.8998                 6.6049                 8.7049
 Frc consts  --     3.5665                 6.5703                 8.9692
 IR Inten    --   695.6757               164.8766                36.1946

                    58                     59                     60
                     A                      A                      A
 Frequencies --  1332.8939              1360.5790              1407.9130
 Red. masses --     1.3339                 8.9613                 4.3419
 Frc consts  --     1.3962                 9.7739                 5.0709
 IR Inten    --     5.7909                38.2172               961.9899

                    61                     62                     63
                     A                      A                      A
 Frequencies --  1420.0684              1464.6697              1471.2373
 Red. masses --     3.4921                 3.1446                 1.7868
 Frc consts  --     4.1491                 3.9746                 2.2788
 IR Inten    --   459.0711                 0.8388                41.9559

                    64                     65                     66
                     A                      A                      A
 Frequencies --  1500.8075              1511.5203              1511.9989
 Red. masses --     1.2023                 1.0482                 1.0485
 Frc consts  --     1.5955                 1.4110                 1.4123
 IR Inten    --    35.4535                 6.9693                 6.2486

                    67                     68                     69
                     A                      A                      A
 Frequencies --  1518.7033              1521.2680              1521.9787
 Red. masses --     1.2896                 1.0803                 1.0479
 Frc consts  --     1.7525                 1.4730                 1.4302
 IR Inten    --   124.6764                27.0146                 6.7216

                    70                     71                     72
                     A                      A                      A
 Frequencies --  1524.3174              1535.2107              1558.8348
 Red. masses --     1.2736                 1.0776                 2.4590
 Frc consts  --     1.7435                 1.4964                 3.5205
 IR Inten    --    12.2182                61.1151               250.6833

                    73                     74                     75
                     A                      A                      A
 Frequencies --  1564.6435              1604.1187              1629.5159
 Red. masses --     3.2678                 8.5094                10.1416
 Frc consts  --     4.7134                12.9010                15.8662
 IR Inten    --    32.7181               594.4899               833.7938

                    76                     77                     78
                     A                      A                      A
 Frequencies --  1645.7519              1674.1021              3024.9574
 Red. masses --     7.0375                 6.0864                 1.0349
 Frc consts  --    11.2304                10.0502                 5.5793
 IR Inten    --     0.8463                54.3464                56.6175

                    79                     80                     81
                     A                      A                      A
 Frequencies --  3075.0481              3075.9094              3083.4638
 Red. masses --     1.0293                 1.0293                 1.1067
 Frc consts  --     5.7347                 5.7375                 6.1994
 IR Inten    --    43.9993                25.5754                43.8069

                    82                     83                     84
                     A                      A                      A
 Frequencies --  3150.8489              3152.0269              3158.2852
 Red. masses --     1.1076                 1.1077                 1.0996
 Frc consts  --     6.4789                 6.4839                 6.4624
 IR Inten    --    19.2158                19.4131                26.9354

                    85                     86                     87
                     A                      A                      A
 Frequencies --  3179.3260              3179.9657              3209.7586
 Red. masses --     1.1072                 1.1074                 1.0879
 Frc consts  --     6.5942                 6.5979                 6.6038
 IR Inten    --    24.8515                22.5364                11.0485

                    88                     89                     90
                     A                      A                      A
 Frequencies --  3212.8804              3224.2428              3232.8404
 Red. masses --     1.0895                 1.0953                 1.0925
 Frc consts  --     6.6261                 6.7090                 6.7271
 IR Inten    --     3.7369                 5.0975                 7.4016

 - Thermochemistry -
 -------------------
 Temperature   298.150 Kelvin.  Pressure   1.00000 Atm.
 Atom     1 has atomic number  6 and mass  12.00000

 Molecular mass:   263.09061 amu.
 Principal axes and moments of inertia in atomic units:
                           1         2         3
     Eigenvalues --  1952.64944********************
           X            0.99998  -0.00132   0.00557
           Y            0.00130   0.99999   0.00419
           Z           -0.00558  -0.00419   0.99998
 This molecule is an asymmetric top.
 Rotational symmetry number  1.
 Warning -- assumption of classical behavior for rotation
           may cause significant error
 Rotational temperatures (Kelvin)      0.04436     0.00814     0.00731
 Rotational constants (GHZ):           0.92425     0.16962     0.15229
 Zero-point vibrational energy     654844.6 (Joules/Mol)
                                  156.51160 (Kcal/Mol)
 Warning -- explicit consideration of  26 degrees of freedom as
           vibrations may cause significant error
 Vibrational temperatures:     24.90    36.14    60.07   124.29   143.99
          (Kelvin)            162.22   206.23   217.74   231.27   273.15
                              277.65   296.87   326.90   348.80   364.27
                              376.21   442.09   527.61   576.26   621.54
                              656.29   690.41   749.48   785.40   830.76
                              868.60   935.92   955.09  1018.31  1055.71
                             1062.93  1078.11  1138.97  1175.54  1191.84
                             1222.78  1258.18  1348.14  1369.72  1410.80
                             1435.71  1482.02  1496.44  1553.22  1627.99
                             1632.10  1665.07  1703.40  1704.61  1706.52
                             1717.46  1754.00  1755.88  1781.02  1792.53
                             1869.51  1902.67  1917.73  1957.57  2025.67
                             2043.16  2107.33  2116.78  2159.32  2174.74
                             2175.43  2185.07  2188.76  2189.79  2193.15
                             2208.82  2242.81  2251.17  2307.97  2344.51
                             2367.87  2408.66  4352.23  4424.30  4425.54
                             4436.41  4533.36  4535.06  4544.06  4574.34
                             4575.26  4618.12  4622.61  4638.96  4651.33

 Zero-point correction=                           0.249417 (Hartree/Particle)
 Thermal correction to Energy=                    0.266851
 Thermal correction to Enthalpy=                  0.267795
 Thermal correction to Gibbs Free Energy=         0.201904
 Sum of electronic and zero-point Energies=           -929.998340
 Sum of electronic and thermal Energies=              -929.980906
 Sum of electronic and thermal Enthalpies=            -929.979962
 Sum of electronic and thermal Free Energies=         -930.045852

                     E (Thermal)             CV                S
                      KCal/Mol        Cal/Mol-Kelvin    Cal/Mol-Kelvin
 Total                  167.451             63.898            138.679
 Electronic               0.000              0.000              0.000
 Translational            0.889              2.981             42.601
 Rotational               0.889              2.981             33.865
 Vibrational            165.674             57.937             62.213
 Vibration     1          0.593              1.986              6.921
 Vibration     2          0.593              1.985              6.182
 Vibration     3          0.594              1.980              5.174
 Vibration     4          0.601              1.959              3.740
 Vibration     5          0.604              1.949              3.453
 Vibration     6          0.607              1.939              3.221
 Vibration     7          0.616              1.910              2.759
 Vibration     8          0.619              1.901              2.655
 Vibration     9          0.622              1.890              2.541
 Vibration    10          0.633              1.854              2.229
 Vibration    11          0.635              1.850              2.199
 Vibration    12          0.641              1.831              2.076
 Vibration    13          0.651              1.800              1.901
 Vibration    14          0.659              1.775              1.785
 Vibration    15          0.664              1.757              1.708
 Vibration    16          0.669              1.743              1.652
 Vibration    17          0.697              1.660              1.377
 Vibration    18          0.740              1.541              1.094
 Vibration    19          0.766              1.469              0.961
 Vibration    20          0.793              1.401              0.852
 Vibration    21          0.814              1.347              0.777
 Vibration    22          0.836              1.295              0.710
 Vibration    23          0.876              1.204              0.608
 Vibration    24          0.901              1.149              0.553
 Vibration    25          0.934              1.080              0.490
 Vibration    26          0.962              1.024              0.443

 Normal termination of Gaussian 09 at Tue Sep 28 23:09:43 2021.
 Gaussian 09:  AM64L-G09RevA.02 11-Jun-2009

 ----------------------------------------------------------------------
 #p TD(NStates=10, Root=1) b3lyp/6-31G* volume pop=NPA density=current
 Geom=AllCheck Guess=Read
 ----------------------------------------------------------------------

 COc1ccc(cc1)Oc1nc(OC)nc(n1)OC_conf_0
 ------------------------------------
 Redundant internal coordinates taken from checkpoint file:
 C12H13N3O4_bf2b_conf_0.chk
 Charge =  0 Multiplicity = 1

                         Standard orientation:
 ---------------------------------------------------------------------
 Center     Atomic      Atomic             Coordinates (Angstroms)
 Number     Number       Type             X           Y           Z
 ---------------------------------------------------------------------
      1          6           0       -5.983933    0.347056   -0.730320
      2          8           0       -5.125128    0.333395    0.398259
      3          6           0       -3.853834   -0.138655    0.236372
      4          6           0       -3.325096   -0.606462   -0.971912
      5          6           0       -2.005593   -1.067482   -1.018634
      6          6           0       -1.227745   -1.058688    0.129704
      7          6           0       -1.748545   -0.603161    1.341378
      8          6           0       -3.056894   -0.141553    1.392242
      9          8           0        0.054678   -1.618747    0.080064
     10          6           0        1.136244   -0.818610    0.030251
     11          7           0        2.291478   -1.470259    0.013523
     12          6           0        3.352527   -0.654760   -0.041720
     13          8           0        4.525679   -1.287280   -0.061062
     14          6           0        5.711987   -0.482637   -0.120003
     15          7           0        3.335794    0.679322   -0.077169
     16          6           0        2.101723    1.193699   -0.054003
     17          7           0        0.958483    0.507833   -0.001084
     18          8           0        2.058196    2.525876   -0.089802
     19          6           0        0.764114    3.146644   -0.070086
     20          1           0       -6.934186    0.752948   -0.378666
     21          1           0       -6.146551   -0.664101   -1.126774
     22          1           0       -5.590438    0.988254   -1.530494
     23          1           0       -3.922069   -0.621891   -1.876243
     24          1           0       -1.583869   -1.440333   -1.946662
     25          1           0       -1.130089   -0.617288    2.233031
     26          1           0       -3.489010    0.217639    2.320765
     27          1           0        6.535932   -1.197218   -0.127316
     28          1           0        5.780730    0.174561    0.750800
     29          1           0        5.724189    0.127720   -1.026782
     30          1           0        0.965813    4.217911   -0.104626
     31          1           0        0.220792    2.886685    0.842017
     32          1           0        0.171342    2.838555   -0.935242
 ---------------------------------------------------------------------

 SCF Done:  E(RB3LYP) =  -930.247756842     A.U. after    2 cycles

 Excitation energies and oscillator strengths:

 Excited State   1:      Singlet-A      4.8958 eV  253.25 nm  f=0.0230  <S**2>=0.000
      68 -> 73        -0.14796
      69 -> 70         0.67462
      69 -> 71         0.10756
 This state for optimization and/or second-order correction.
 Total Energy, E(TD-HF/TD-KS) =  -930.067839320
 Copying the excited state density for this state as the 1-particle RhoCI density.

 Excited State   2:      Singlet-A      5.0831 eV  243.92 nm  f=0.0192  <S**2>=0.000
      68 -> 73         0.15782
      69 -> 71         0.60157
      69 -> 72        -0.31358

 Excited State   3:      Singlet-A      5.1956 eV  238.63 nm  f=0.0130  <S**2>=0.000
      68 -> 73        -0.16662
      69 -> 70        -0.10313
      69 -> 71         0.33483
      69 -> 72         0.57918

 Excited State   4:      Singlet-A      5.6668 eV  218.79 nm  f=0.0031  <S**2>=0.000
      64 -> 70        -0.18685
      66 -> 70         0.39207
      66 -> 71         0.51100
      66 -> 72        -0.12577

 Excited State   5:      Singlet-A      5.7071 eV  217.24 nm  f=0.0017  <S**2>=0.000
      64 -> 70         0.22263
      64 -> 72        -0.12511
      66 -> 70         0.48421
      66 -> 71        -0.31963
      66 -> 72        -0.29168

 Excited State   6:      Singlet-A      5.8156 eV  213.19 nm  f=0.0288  <S**2>=0.000
      64 -> 70         0.37226
      64 -> 72        -0.17178
      66 -> 71         0.30139
      67 -> 71         0.17199
      68 -> 70         0.33827
      69 -> 73         0.25290

 Excited State   7:      Singlet-A      5.8458 eV  212.09 nm  f=0.0248  <S**2>=0.000
      64 -> 70        -0.27846
      64 -> 72         0.13322
      65 -> 70         0.35467
      65 -> 72        -0.18333
      66 -> 71        -0.14138
      67 -> 70         0.11460
      67 -> 71         0.39257
      68 -> 70         0.11176
      69 -> 73         0.16436

 Excited State   8:      Singlet-A      5.8989 eV  210.18 nm  f=0.1633  <S**2>=0.000
      64 -> 70        -0.18854
      65 -> 70        -0.21333
      67 -> 71        -0.17347
      68 -> 72         0.21920
      69 -> 73         0.53833

 Excited State   9:      Singlet-A      5.9743 eV  207.53 nm  f=0.0012  <S**2>=0.000
      64 -> 71         0.61048
      64 -> 72         0.10476
      65 -> 71        -0.11750
      68 -> 71         0.27721

 Excited State  10:      Singlet-A      6.1017 eV  203.20 nm  f=0.0929  <S**2>=0.000
      64 -> 70        -0.21398
      64 -> 71        -0.14725
      67 -> 71        -0.14931
      68 -> 70         0.48457
      68 -> 71         0.24126
      68 -> 72        -0.26337
      69 -> 73        -0.13809

 The electronic state is 1-A.
 Alpha  occ. eigenvalues --  -19.19944 -19.19704 -19.19236 -19.18242 -14.33521
 Alpha  occ. eigenvalues --  -14.33126 -14.32719 -10.32498 -10.32403 -10.31979
 Alpha  occ. eigenvalues --  -10.25264 -10.24676 -10.24585 -10.24272 -10.23854
 Alpha  occ. eigenvalues --  -10.19800 -10.19781 -10.19636 -10.19285  -1.11072
 Alpha  occ. eigenvalues --   -1.09640  -1.09163  -1.06837  -0.99379  -0.89825
 Alpha  occ. eigenvalues --   -0.89363  -0.85575  -0.76644  -0.75595  -0.73963
 Alpha  occ. eigenvalues --   -0.73091  -0.70665  -0.65754  -0.63441  -0.62381
 Alpha  occ. eigenvalues --   -0.60060  -0.57672  -0.56182  -0.53799  -0.51960
 Alpha  occ. eigenvalues --   -0.50565  -0.50385  -0.49291  -0.47417  -0.47295
 Alpha  occ. eigenvalues --   -0.45779  -0.44781  -0.44541  -0.43579  -0.43368
 Alpha  occ. eigenvalues --   -0.42858  -0.42247  -0.39791  -0.38912  -0.38581
 Alpha  occ. eigenvalues --   -0.37619  -0.37140  -0.36592  -0.35801  -0.35328
 Alpha  occ. eigenvalues --   -0.33384  -0.31894  -0.30211  -0.27811  -0.27524
 Alpha  occ. eigenvalues --   -0.27143  -0.26769  -0.25761  -0.21965
 Alpha virt. eigenvalues --   -0.01534  -0.00861  -0.00421   0.01036   0.08450
 Alpha virt. eigenvalues --    0.10232   0.11329   0.11847   0.12449   0.12660
 Alpha virt. eigenvalues --    0.13199   0.14097   0.14540   0.15099   0.15365

 Mulliken atomic charges:
              1
     1  C   -0.246374
     2  O   -0.435745
     3  C    0.394060
     4  C   -0.188657
     5  C   -0.153181
     6  C    0.428013
     7  C   -0.127210
     8  C   -0.180534
     9  O   -0.538016
    10  C    0.571536
    11  N   -0.543631
    12  C    0.661613
    13  O   -0.468869
    14  C   -0.196998
    15  N   -0.560938
    16  C    0.604996
    17  N   -0.553415
    18  O   -0.477557
    19  C   -0.186970
    20  H    0.201072
    21  H    0.187124
    22  H    0.189247
    23  H    0.164693
    24  H    0.186854
    25  H    0.189318
    26  H    0.174040
    27  H    0.148706
    28  H    0.162013
    29  H    0.162068
    30  H    0.149321
    31  H    0.141737
    32  H    0.141686
 Sum of Mulliken atomic charges =  -0.00000

 Dipole moment (field-independent basis, Debye):
    X=            -13.3191    Y=              1.2476    Z=             -1.0242  Tot=             13.4165
 Quadrupole moment (field-independent basis, Debye-Ang):
   XX=            -70.1303   YY=           -116.8180   ZZ=            -99.7443
   XY=              0.4202   XZ=              8.2958   YZ=              1.1560

 Summary of Natural Population Analysis:

                                       Natural Population
                Natural  -----------------------------------------------
    Atom  No    Charge         Core      Valence    Rydberg      Total
 -----------------------------------------------------------------------
      C    1   -0.33290      1.99941     4.31915    0.01433     6.33290
      O    2   -0.41394      1.99975     6.40266    0.01153     8.41394
      C    3    0.37231      1.99879     3.60737    0.02153     5.62769
      C    4   -0.28625      1.99905     4.27344    0.01376     6.28625
      C    5   -0.25305      1.99899     4.23634    0.01771     6.25305
      C    6    0.44711      1.99869     3.53055    0.02365     5.55289
      C    7   -0.24303      1.99898     4.22804    0.01601     6.24303
      C    8   -0.26009      1.99906     4.24410    0.01692     6.26009
      O    9   -0.51351      1.99965     6.50188    0.01198     8.51351
      C   10    0.63367      1.99915     3.32964    0.03754     5.36633
      N   11   -0.62936      1.99925     5.60669    0.02342     7.62936
      C   12    0.76582      1.99921     3.19701    0.03796     5.23418
      O   13   -0.51420      1.99972     6.50249    0.01199     8.51420
      C   14   -0.31614      1.99941     4.30316    0.01357     6.31614
      N   15   -0.66416      1.99927     5.64256    0.02233     7.66416
      C   16    0.66489      1.99923     3.29915    0.03673     5.33511
      N   17   -0.63993      1.99926     5.62266    0.01802     7.63993
      O   18   -0.52380      1.99972     6.51196    0.01212     8.52380
      C   19   -0.31192      1.99942     4.29902    0.01348     6.31192
      H   20    0.24561      0.00000     0.75401    0.00038     0.75439
      H   21    0.22553      0.00000     0.77310    0.00137     0.77447
      H   22    0.22671      0.00000     0.77201    0.00128     0.77329
      H   23    0.25019      0.00000     0.74899    0.00081     0.74981
      H   24    0.27152      0.00000     0.72765    0.00083     0.72848
      H   25    0.27461      0.00000     0.72471    0.00067     0.72539
      H   26    0.26116      0.00000     0.73783    0.00102     0.73884
      H   27    0.21292      0.00000     0.78638    0.00070     0.78708
      H   28    0.21591      0.00000     0.78245    0.00164     0.78409
      H   29    0.21594      0.00000     0.78243    0.00163     0.78406
      H   30    0.21372      0.00000     0.78561    0.00067     0.78628
      H   31    0.20230      0.00000     0.79560    0.00210     0.79770
      H   32    0.20236      0.00000     0.79547    0.00217     0.79764
 =======================================================================
   * Total *    0.00000     37.98604    99.62412    0.38984   138.00000

 Normal termination of Gaussian 09 at Wed Sep 29 04:29:14 2021.
