 Gaussian 09, Revision A.02,

 -----------------------------------
 #p opt b3lyp/6-31G* scf=(xqc,tight)
 -----------------------------------

 ---------------------------------------
 O=C(C(C)(C)C)Oc1cccc(c1)C(F)(F)F_conf_0
 ---------------------------------------
 Symbolic Z-matrix:
 Charge =  0 Multiplicity = 1

 SCF Done:  E(RB3LYP) =  -915.099626222     A.U. after   15 cycles
 SCF Done:  E(RB3LYP) =  -915.103199798     A.U. after   12 cycles
 SCF Done:  E(RB3LYP) =  -915.103627226     A.U. after   12 cycles
 SCF Done:  E(RB3LYP) =  -915.103710985     A.U. after   12 cycles
 SCF Done:  E(RB3LYP) =  -915.103487023     A.U. after   12 cycles
 SCF Done:  E(RB3LYP) =  -915.103844842     A.U. after   11 cycles
 SCF Done:  E(RB3LYP) =  -915.104009733     A.U. after   11 cycles
 SCF Done:  E(RB3LYP) =  -915.104110357     A.U. after   11 cycles
 SCF Done:  E(RB3LYP) =  -915.104126986     A.U. after   11 cycles
 SCF Done:  E(RB3LYP) =  -915.104136876     A.U. after   10 cycles
 SCF Done:  E(RB3LYP) =  -915.104279051     A.U. after   11 cycles
 SCF Done:  E(RB3LYP) =  -915.104293595     A.U. after    9 cycles
 SCF Done:  E(RB3LYP) =  -915.104311420     A.U. after   10 cycles
 SCF Done:  E(RB3LYP) =  -915.104313170     A.U. after    9 cycles
 SCF Done:  E(RB3LYP) =  -915.104311620     A.U. after    9 cycles
 SCF Done:  E(RB3LYP) =  -915.104313179     A.U. after    9 cycles
 SCF Done:  E(RB3LYP) =  -915.104313257     A.U. after    8 cycles
 SCF Done:  E(RB3LYP) =  -915.104313214     A.U. after    7 cycles
 Optimization completed.
    -- Stationary point found.
 Normal termination of Gaussian 09 at Wed Sep 29 09:54:02 2021.

 ----------------------------------------------------------------------
 #p freq b3lyp/6-31G* volume NMR pop=NPA density=current Geom=AllCheck
 Guess=Read
 ----------------------------------------------------------------------

 O=C(C(C)(C)C)Oc1cccc(c1)C(F)(F)F_conf_0
 ---------------------------------------
 Redundant internal coordinates taken from checkpoint file:
 C12H13F3O2_a772_conf_0.chk
 Charge =  0 Multiplicity = 1

 SCF Done:  E(RB3LYP) =  -915.104313214     A.U. after    1 cycles

  1  O    Isotropic =   -62.7998   Anisotropy =   576.0806

  2  C    Isotropic =    22.6853   Anisotropy =    75.8882

  3  C    Isotropic =   148.7319   Anisotropy =    24.4154

  4  C    Isotropic =   162.4312   Anisotropy =    37.1980

  5  C    Isotropic =   162.1980   Anisotropy =    38.0996

  6  C    Isotropic =   162.9564   Anisotropy =    31.5140

  7  O    Isotropic =   109.1307   Anisotropy =   168.0407

  8  C    Isotropic =    44.7308   Anisotropy =   111.6928

  9  C    Isotropic =    70.2929   Anisotropy =   159.5276

 10  C    Isotropic =    67.2495   Anisotropy =   165.6083

 11  C    Isotropic =    73.4978   Anisotropy =   164.8822

 12  C    Isotropic =    61.9900   Anisotropy =   147.1451

 13  C    Isotropic =    77.3591   Anisotropy =   142.5797

 14  C    Isotropic =    63.2826   Anisotropy =    12.4064

 15  F    Isotropic =   273.5104   Anisotropy =   122.8270

 16  F    Isotropic =   248.7883   Anisotropy =   126.3847

 17  F    Isotropic =   273.8234   Anisotropy =   122.0051

 18  H    Isotropic =    30.4480   Anisotropy =     6.2471

 19  H    Isotropic =    30.8540   Anisotropy =     8.1552

 20  H    Isotropic =    31.0764   Anisotropy =     7.9103

 21  H    Isotropic =    30.3902   Anisotropy =     7.5027

 22  H    Isotropic =    31.0661   Anisotropy =     7.8951

 23  H    Isotropic =    30.8664   Anisotropy =     7.8674

 24  H    Isotropic =    30.6472   Anisotropy =     8.2518

 25  H    Isotropic =    30.6535   Anisotropy =     7.9417

 26  H    Isotropic =    31.4483   Anisotropy =     7.8833

 27  H    Isotropic =    24.6549   Anisotropy =     8.8570

 28  H    Isotropic =    24.8597   Anisotropy =     4.5941

 29  H    Isotropic =    24.8971   Anisotropy =     7.2973

 30  H    Isotropic =    25.1510   Anisotropy =    10.5015

  Exact polarizability: 171.335  -5.579 131.661   0.322  -0.979  83.310
 Approx polarizability: 226.594  -2.488 215.776   1.529  -8.135 127.428

                     1                      2                      3
                     A                      A                      A
 Frequencies --    15.4180                26.8603                41.0999
 Red. masses --     3.6458                12.8729                 4.4401
 Frc consts  --     0.0005                 0.0055                 0.0044
 IR Inten    --     0.5616                 0.0046                 0.8179

                     4                      5                      6
                     A                      A                      A
 Frequencies --    46.6333                86.7662               128.6240
 Red. masses --     7.7340                 4.9610                 7.1577
 Frc consts  --     0.0099                 0.0220                 0.0698
 IR Inten    --     0.3175                 1.8637                 0.0756

                     7                      8                      9
                     A                      A                      A
 Frequencies --   168.0211               194.9006               208.4981
 Red. masses --     6.1673                 3.5731                 1.3155
 Frc consts  --     0.1026                 0.0800                 0.0337
 IR Inten    --     0.3335                 0.5425                 0.2368

                    10                     11                     12
                     A                      A                      A
 Frequencies --   231.4541               250.1294               268.4845
 Red. masses --     1.8520                 2.2850                 1.2029
 Frc consts  --     0.0585                 0.0842                 0.0511
 IR Inten    --     0.3348                 0.6749                 0.1193

                    13                     14                     15
                     A                      A                      A
 Frequencies --   277.3870               308.9832               324.1076
 Red. masses --     1.3378                 3.5736                 4.8210
 Frc consts  --     0.0606                 0.2010                 0.2984
 IR Inten    --     0.8141                 4.0991                 0.5410

                    16                     17                     18
                     A                      A                      A
 Frequencies --   335.4287               355.7237               364.8470
 Red. masses --     5.8211                 3.1588                 6.0085
 Frc consts  --     0.3859                 0.2355                 0.4712
 IR Inten    --     0.1167                 4.6213                 5.8306

                    19                     20                     21
                     A                      A                      A
 Frequencies --   378.5215               437.3716               452.8931
 Red. masses --     2.6938                 5.5254                 3.5035
 Frc consts  --     0.2274                 0.6228                 0.4234
 IR Inten    --     1.4147                 2.6651                 4.5240

                    22                     23                     24
                     A                      A                      A
 Frequencies --   464.6321               520.9524               567.3513
 Red. masses --     4.1275                 7.6221                 6.0732
 Frc consts  --     0.5250                 1.2188                 1.1518
 IR Inten    --     0.2771                 2.1047                 3.8757

                    25                     26                     27
                     A                      A                      A
 Frequencies --   583.9385               615.5591               651.1886
 Red. masses --     7.3601                 5.4180                 5.4391
 Frc consts  --     1.4787                 1.2096                 1.3589
 IR Inten    --     2.9355                 0.2926                 1.5537

                    28                     29                     30
                     A                      A                      A
 Frequencies --   663.8474               708.6462               752.2428
 Red. masses --     8.7991                 2.4803                10.1831
 Frc consts  --     2.2847                 0.7339                 3.3951
 IR Inten    --    11.8344                13.2077                 9.8527

                    31                     32                     33
                     A                      A                      A
 Frequencies --   757.8359               797.1634               822.0675
 Red. masses --     6.9100                 1.9239                 2.4463
 Frc consts  --     2.3382                 0.7203                 0.9741
 IR Inten    --     1.1702                21.1222                 8.0902

                    34                     35                     36
                     A                      A                      A
 Frequencies --   867.1249               912.8900               919.5188
 Red. masses --     3.6669                 1.6429                 1.5936
 Frc consts  --     1.6245                 0.8067                 0.7939
 IR Inten    --    13.9129                22.1794                 9.7351

                    37                     38                     39
                     A                      A                      A
 Frequencies --   935.9763               949.9128               956.5352
 Red. masses --     3.0527                 1.7698                 1.6347
 Frc consts  --     1.5757                 0.9409                 0.8812
 IR Inten    --    24.0349                 1.4306                 1.2109

                    40                     41                     42
                     A                      A                      A
 Frequencies --   981.1593               981.3726              1020.4615
 Red. masses --     1.2850                 1.1989                 6.2137
 Frc consts  --     0.7289                 0.6803                 3.8123
 IR Inten    --     0.2166                 0.0155                 2.5530

                    43                     44                     45
                     A                      A                      A
 Frequencies --  1058.0885              1060.0863              1092.1451
 Red. masses --     1.4897                 1.4335                 2.4108
 Frc consts  --     0.9826                 0.9491                 1.6942
 IR Inten    --    56.3791                 4.7596                70.3584

                    46                     47                     48
                     A                      A                      A
 Frequencies --  1124.2879              1139.7279              1187.4684
 Red. masses --     1.6346                 3.7204                 9.7873
 Frc consts  --     1.2174                 2.8473                 8.1312
 IR Inten    --    20.3480               617.4622               256.3674

                    49                     50                     51
                     A                      A                      A
 Frequencies --  1203.3832              1213.8363              1229.3462
 Red. masses --     1.2131                 6.7975                 3.4619
 Frc consts  --     1.0351                 5.9009                 3.0826
 IR Inten    --    20.1781               156.0491               130.9334

                    52                     53                     54
                     A                      A                      A
 Frequencies --  1241.6599              1264.2194              1306.3989
 Red. masses --     2.6629                 2.8382                 3.0087
 Frc consts  --     2.4189                 2.6726                 3.0254
 IR Inten    --     1.9003                 7.4384               116.1102

                    55                     56                     57
                     A                      A                      A
 Frequencies --  1321.3110              1348.6949              1369.2078
 Red. masses --     1.7729                 3.8293                 4.8499
 Frc consts  --     1.8237                 4.1039                 5.3570
 IR Inten    --    94.5617               294.7573                 5.4857

                    58                     59                     60
                     A                      A                      A
 Frequencies --  1422.7583              1429.9898              1458.7322
 Red. masses --     1.2057                 1.2317                 1.2214
 Frc consts  --     1.4379                 1.4839                 1.5312
 IR Inten    --     3.9667                 4.8204                14.5320

                    61                     62                     63
                     A                      A                      A
 Frequencies --  1491.2679              1508.2112              1515.3335
 Red. masses --     3.3098                 1.0484                 1.0453
 Frc consts  --     4.3368                 1.4051                 1.4141
 IR Inten    --    80.5773                 0.0419                 0.1605

                    64                     65                     66
                     A                      A                      A
 Frequencies --  1520.7518              1529.6795              1532.8929
 Red. masses --     1.0456                 1.0486                 1.0545
 Frc consts  --     1.4247                 1.4457                 1.4599
 IR Inten    --     0.1088                 6.0796                 7.9993

                    67                     68                     69
                     A                      A                      A
 Frequencies --  1538.3219              1550.1426              1647.2995
 Red. masses --     2.5394                 1.0692                 6.1896
 Frc consts  --     3.5406                 1.5137                 9.8959
 IR Inten    --    31.5843                19.8315                27.2136

                    70                     71                     72
                     A                      A                      A
 Frequencies --  1672.0892              1833.4913              3051.4751
 Red. masses --     6.1794                12.6855                 1.0355
 Frc consts  --    10.1792                25.1255                 5.6812
 IR Inten    --     3.4886               179.8453                26.5499

                    73                     74                     75
                     A                      A                      A
 Frequencies --  3053.3919              3062.4213              3115.2799
 Red. masses --     1.0359                 1.0364                 1.1030
 Frc consts  --     5.6905                 5.7265                 6.3068
 IR Inten    --    10.9662                24.2735                13.4264

                    76                     77                     78
                     A                      A                      A
 Frequencies --  3117.5531              3130.5112              3139.3215
 Red. masses --     1.1026                 1.1021                 1.1027
 Frc consts  --     6.3140                 6.3634                 6.4030
 IR Inten    --    19.6724                37.7441                 6.4734

                    79                     80                     81
                     A                      A                      A
 Frequencies --  3140.4905              3144.0195              3204.9603
 Red. masses --     1.1022                 1.1011                 1.0888
 Frc consts  --     6.4050                 6.4125                 6.5894
 IR Inten    --    17.8679                41.4679                 8.1735

                    82                     83                     84
                     A                      A                      A
 Frequencies --  3229.0804              3236.4076              3256.9648
 Red. masses --     1.0933                 1.0915                 1.0932
 Frc consts  --     6.7167                 6.7361                 6.8325
 IR Inten    --     5.0736                 0.4497                 1.0630

 - Thermochemistry -
 -------------------
 Temperature   298.150 Kelvin.  Pressure   1.00000 Atm.
 Atom     1 has atomic number  8 and mass  15.99491

 Molecular mass:   246.08676 amu.
 Principal axes and moments of inertia in atomic units:
                           1         2         3
     Eigenvalues --  1766.247708709.378159585.92328
           X            0.99973  -0.02340   0.00114
           Y            0.02340   0.99971   0.00576
           Z           -0.00127  -0.00573   0.99998
 This molecule is an asymmetric top.
 Rotational symmetry number  1.
 Warning -- assumption of classical behavior for rotation
           may cause significant error
 Rotational temperatures (Kelvin)      0.04904     0.00994     0.00904
 Rotational constants (GHZ):           1.02179     0.20722     0.18827
 Zero-point vibrational energy     610246.4 (Joules/Mol)
                                  145.85239 (Kcal/Mol)
 Warning -- explicit consideration of  26 degrees of freedom as
           vibrations may cause significant error
 Vibrational temperatures:     22.18    38.65    59.13    67.09   124.84
          (Kelvin)            185.06   241.74   280.42   299.98   333.01
                              359.88   386.29   399.10   444.56   466.32
                              482.61   511.81   524.93   544.61   629.28
                              651.61   668.50   749.53   816.29   840.16
                              885.65   936.91   955.13  1019.58  1082.31
                             1090.36  1146.94  1182.77  1247.60  1313.44
                             1322.98  1346.66  1366.71  1376.24  1411.67
                             1411.97  1468.21  1522.35  1525.23  1571.35
                             1617.60  1639.81  1708.50  1731.40  1746.44
                             1768.75  1786.47  1818.93  1879.61  1901.07
                             1940.47  1969.98  2047.03  2057.43  2098.79
                             2145.60  2169.98  2180.22  2188.02  2200.86
                             2205.49  2213.30  2230.31  2370.09  2405.76
                             2637.98  4390.39  4393.14  4406.14  4482.19
                             4485.46  4504.10  4516.78  4518.46  4523.54
                             4611.22  4645.92  4656.46  4686.04

 Zero-point correction=                           0.232431 (Hartree/Particle)
 Thermal correction to Energy=                    0.248976
 Thermal correction to Enthalpy=                  0.249921
 Thermal correction to Gibbs Free Energy=         0.185972
 Sum of electronic and zero-point Energies=           -914.871883
 Sum of electronic and thermal Energies=              -914.855337
 Sum of electronic and thermal Enthalpies=            -914.854393
 Sum of electronic and thermal Free Energies=         -914.918341

                     E (Thermal)             CV                S
                      KCal/Mol        Cal/Mol-Kelvin    Cal/Mol-Kelvin
 Total                  156.235             61.663            134.591
 Electronic               0.000              0.000              0.000
 Translational            0.889              2.981             42.402
 Rotational               0.889              2.981             33.355
 Vibrational            154.458             55.701             58.834
 Vibration     1          0.593              1.986              7.151
 Vibration     2          0.593              1.984              6.049
 Vibration     3          0.594              1.981              5.205
 Vibration     4          0.595              1.979              4.955
 Vibration     5          0.601              1.958              3.732
 Vibration     6          0.611              1.925              2.967
 Vibration     7          0.625              1.882              2.458
 Vibration     8          0.636              1.847              2.181
 Vibration     9          0.642              1.828              2.057
 Vibration    10          0.653              1.793              1.868
 Vibration    11          0.663              1.763              1.730
 Vibration    12          0.673              1.731              1.606
 Vibration    13          0.678              1.715              1.550
 Vibration    14          0.698              1.657              1.368
 Vibration    15          0.709              1.627              1.289
 Vibration    16          0.717              1.605              1.234
 Vibration    17          0.731              1.564              1.141
 Vibration    18          0.738              1.545              1.101
 Vibration    19          0.749              1.516              1.045
 Vibration    20          0.798              1.389              0.835
 Vibration    21          0.811              1.354              0.787
 Vibration    22          0.822              1.329              0.753
 Vibration    23          0.876              1.204              0.608
 Vibration    24          0.923              1.102              0.509
 Vibration    25          0.941              1.066              0.478
 Vibration    26          0.975              0.999              0.424

 Optimization completed.
    -- Stationary point found.
 Normal termination of Gaussian 09 at Wed Sep 29 11:06:24 2021.
 Gaussian 09:  AM64L-G09RevA.02 11-Jun-2009

 ----------------------------------------------------------------------
 #p TD(NStates=10, Root=1) b3lyp/6-31G* volume pop=NPA density=current
 Geom=AllCheck Guess=Read
 ----------------------------------------------------------------------

 O=C(C(C)(C)C)Oc1cccc(c1)C(F)(F)F_conf_0
 ---------------------------------------
 Redundant internal coordinates taken from checkpoint file:
 C12H13F3O2_a772_conf_0.chk
 Charge =  0 Multiplicity = 1

                         Standard orientation:
 ---------------------------------------------------------------------
 Center     Atomic      Atomic             Coordinates (Angstroms)
 Number     Number       Type             X           Y           Z
 ---------------------------------------------------------------------
      1          8           0        2.378889    1.292615   -1.065152
      2          6           0        2.403725    0.361215   -0.299034
      3          6           0        3.622441   -0.503563    0.034031
      4          6           0        3.894426   -0.432628    1.553671
      5          6           0        3.330291   -1.964670   -0.377766
      6          6           0        4.830704    0.035161   -0.748273
      7          8           0        1.299978   -0.072755    0.401551
      8          6           0        0.059307    0.539223    0.247329
      9          6           0       -0.116356    1.923780    0.268450
     10          6           0       -1.410256    2.439499    0.187203
     11          6           0       -2.514224    1.593284    0.092173
     12          6           0       -2.318387    0.210269    0.079665
     13          6           0       -1.030756   -0.322096    0.155619
     14          6           0       -3.494032   -0.716744   -0.077236
     15          9           0       -4.618183   -0.199376    0.465705
     16          9           0       -3.765273   -0.962773   -1.380282
     17          9           0       -3.272849   -1.914614    0.508990
     18          1           0        3.047823   -0.814832    2.130574
     19          1           0        4.093937    0.596473    1.874370
     20          1           0        4.776863   -1.035639    1.795967
     21          1           0        2.479574   -2.373732    0.174246
     22          1           0        4.207932   -2.586505   -0.167719
     23          1           0        3.115049   -2.039339   -1.449878
     24          1           0        5.047857    1.073284   -0.478964
     25          1           0        4.651455    0.003993   -1.827059
     26          1           0        5.714811   -0.572475   -0.525774
     27          1           0        0.739159    2.582470    0.340232
     28          1           0       -1.555399    3.515600    0.203691
     29          1           0       -3.518251    1.999846    0.037975
     30          1           0       -0.866285   -1.393539    0.156431
 ---------------------------------------------------------------------

 SCF Done:  E(RB3LYP) =  -915.104313214     A.U. after    1 cycles

 Excitation energies and oscillator strengths:

 Excited State   1:      Singlet-A      5.2310 eV  237.02 nm  f=0.0105  <S**2>=0.000
      63 -> 65         0.24901
      63 -> 66         0.34084
      64 -> 65         0.49694
      64 -> 66        -0.23933
 This state for optimization and/or second-order correction.
 Total Energy, E(TD-HF/TD-KS) =  -914.912076326
 Copying the excited state density for this state as the 1-particle RhoCI density.

 Excited State   2:      Singlet-A      5.4798 eV  226.26 nm  f=0.0122  <S**2>=0.000
      62 -> 65         0.32180
      62 -> 66         0.39224
      62 -> 67         0.27895
      63 -> 65         0.14864
      63 -> 66         0.18119
      63 -> 67         0.24525
      64 -> 65        -0.10169
      64 -> 66         0.17395

 Excited State   3:      Singlet-A      5.7050 eV  217.33 nm  f=0.0884  <S**2>=0.000
      63 -> 65        -0.32238
      64 -> 65         0.33781
      64 -> 66         0.49753
      64 -> 67         0.13804

 Excited State   4:      Singlet-A      6.1061 eV  203.05 nm  f=0.1249  <S**2>=0.000
      62 -> 65         0.43653
      62 -> 66        -0.28942
      63 -> 65         0.27243
      63 -> 66        -0.28177
      64 -> 65         0.13742
      64 -> 66         0.15026
      64 -> 67         0.12922

 Excited State   5:      Singlet-A      6.3335 eV  195.76 nm  f=0.0484  <S**2>=0.000
      62 -> 65        -0.34891
      63 -> 65         0.25427
      63 -> 66        -0.14717
      64 -> 67         0.51728

 Excited State   6:      Singlet-A      6.5307 eV  189.85 nm  f=0.0316  <S**2>=0.000
      62 -> 66        -0.43801
      63 -> 66         0.22284
      63 -> 67         0.45302
      64 -> 65        -0.10616
      64 -> 66         0.12204

 Excited State   7:      Singlet-A      6.5629 eV  188.92 nm  f=0.0902  <S**2>=0.000
      61 -> 65        -0.10679
      62 -> 67         0.49790
      63 -> 65        -0.22408
      63 -> 66        -0.30670
      63 -> 67         0.13917
      64 -> 65         0.13969
      64 -> 66        -0.20544

 Excited State   8:      Singlet-A      6.9248 eV  179.04 nm  f=0.4918  <S**2>=0.000
      61 -> 65         0.21739
      61 -> 66         0.23781
      62 -> 65         0.21326
      62 -> 66        -0.13607
      63 -> 65        -0.29844
      63 -> 66         0.22212
      64 -> 65        -0.11109
      64 -> 66        -0.18235
      64 -> 67         0.35938

 Excited State   9:      Singlet-A      7.0687 eV  175.40 nm  f=0.0877  <S**2>=0.000
      61 -> 65         0.38579
      61 -> 66        -0.20266
      62 -> 66        -0.11100
      62 -> 67         0.32966
      63 -> 67        -0.33664
      64 -> 65        -0.13021
      64 -> 66         0.14208

 Excited State  10:      Singlet-A      7.4147 eV  167.21 nm  f=0.1956  <S**2>=0.000
      57 -> 65        -0.13626
      58 -> 65        -0.19577
      60 -> 65        -0.10327
      61 -> 65         0.47402
      62 -> 66         0.13810
      62 -> 67        -0.14903
      63 -> 66        -0.18830
      63 -> 67         0.25934
      64 -> 65         0.18552

 The electronic state is 1-A.
 Alpha  occ. eigenvalues --  -24.72467 -24.72444 -24.71823 -19.21121 -19.15112
 Alpha  occ. eigenvalues --  -10.43292 -10.32675 -10.26841 -10.22191 -10.22170
 Alpha  occ. eigenvalues --  -10.21213 -10.21034 -10.20972 -10.20912 -10.18889
 Alpha  occ. eigenvalues --  -10.18881 -10.18057  -1.30003  -1.21487  -1.20968
 Alpha  occ. eigenvalues --   -1.11765  -1.03522  -0.87947  -0.83222  -0.78945
 Alpha  occ. eigenvalues --   -0.77006  -0.70053  -0.69834  -0.69465  -0.67397
 Alpha  occ. eigenvalues --   -0.63355  -0.61222  -0.58292  -0.57797  -0.57631
 Alpha  occ. eigenvalues --   -0.52779  -0.51341  -0.49947  -0.49009  -0.48395
 Alpha  occ. eigenvalues --   -0.46223  -0.45739  -0.45273  -0.45004  -0.44070
 Alpha  occ. eigenvalues --   -0.43723  -0.41989  -0.41632  -0.41336  -0.40745
 Alpha  occ. eigenvalues --   -0.39796  -0.39661  -0.39252  -0.38317  -0.37878
 Alpha  occ. eigenvalues --   -0.37475  -0.36555  -0.35923  -0.34277  -0.34127
 Alpha  occ. eigenvalues --   -0.33038  -0.28292  -0.26934  -0.25566
 Alpha virt. eigenvalues --   -0.03096  -0.02286   0.00655   0.07687   0.08583
 Alpha virt. eigenvalues --    0.11905   0.12729   0.12917   0.13513   0.14349
 Alpha virt. eigenvalues --    0.14566   0.14834   0.15587   0.16362   0.17110

 Mulliken atomic charges:
              1
     1  O   -0.440070
     2  C    0.624813
     3  C   -0.011251
     4  C   -0.452849
     5  C   -0.451911
     6  C   -0.436316
     7  O   -0.504585
     8  C    0.339950
     9  C   -0.144909
    10  C   -0.155241
    11  C   -0.143373
    12  C   -0.030299
    13  C   -0.200188
    14  C    0.776183
    15  F   -0.272834
    16  F   -0.262169
    17  F   -0.272649
    18  H    0.165849
    19  H    0.152708
    20  H    0.153139
    21  H    0.162933
    22  H    0.152955
    23  H    0.155823
    24  H    0.156604
    25  H    0.159988
    26  H    0.141909
    27  H    0.159037
    28  H    0.149430
    29  H    0.161725
    30  H    0.165598
 Sum of Mulliken atomic charges =  -0.00000

 Dipole moment (field-independent basis, Debye):
    X=              2.8326    Y=              0.2506    Z=              1.2813  Tot=              3.1190
 Quadrupole moment (field-independent basis, Debye-Ang):
   XX=            -96.9801   YY=            -93.2248   ZZ=           -100.3132
   XY=             -9.9816   XZ=              2.5585   YZ=              2.7314

 Summary of Natural Population Analysis:

                                       Natural Population
                Natural  -----------------------------------------------
    Atom  No    Charge         Core      Valence    Rydberg      Total
 -----------------------------------------------------------------------
      O    1   -0.54300      1.99977     6.52308    0.02015     8.54300
      C    2    0.81820      1.99927     3.13409    0.04845     5.18180
      C    3   -0.14911      1.99905     4.13771    0.01235     6.14911
      C    4   -0.67089      1.99938     4.66168    0.00984     6.67089
      C    5   -0.66998      1.99938     4.66073    0.00987     6.66998
      C    6   -0.67091      1.99939     4.66045    0.01106     6.67091
      O    7   -0.50561      1.99969     6.49464    0.01128     8.50561
      C    8    0.31998      1.99875     3.65734    0.02393     5.68002
      C    9   -0.29507      1.99904     4.27858    0.01744     6.29507
      C   10   -0.21147      1.99915     4.19474    0.01758     6.21147
      C   11   -0.18161      1.99908     4.16541    0.01712     6.18161
      C   12   -0.18175      1.99889     4.16499    0.01786     6.18175
      C   13   -0.22687      1.99899     4.20914    0.01874     6.22687
      C   14    1.10750      1.99908     2.82272    0.07071     4.89250
      F   15   -0.36541      1.99993     7.35931    0.00617     9.36541
      F   16   -0.36548      1.99993     7.35926    0.00630     9.36548
      F   17   -0.36658      1.99993     7.36047    0.00618     9.36658
      H   18    0.24472      0.00000     0.75427    0.00101     0.75528
      H   19    0.23698      0.00000     0.76211    0.00092     0.76302
      H   20    0.23802      0.00000     0.76085    0.00113     0.76198
      H   21    0.24290      0.00000     0.75600    0.00110     0.75710
      H   22    0.23763      0.00000     0.76134    0.00103     0.76237
      H   23    0.23855      0.00000     0.76056    0.00089     0.76145
      H   24    0.24276      0.00000     0.75624    0.00100     0.75724
      H   25    0.24474      0.00000     0.75425    0.00101     0.75526
      H   26    0.23289      0.00000     0.76623    0.00088     0.76711
      H   27    0.25454      0.00000     0.74440    0.00106     0.74546
      H   28    0.24078      0.00000     0.75843    0.00079     0.75922
      H   29    0.24825      0.00000     0.75034    0.00141     0.75175
      H   30    0.25532      0.00000     0.74287    0.00182     0.74468
 =======================================================================
   * Total *   -0.00000     33.98872    93.67222    0.33906   128.00000

 Normal termination of Gaussian 09 at Wed Sep 29 16:50:55 2021.
