 Gaussian 09, Revision A.02,

 -----------------------------------
 #p opt b3lyp/6-31G* scf=(xqc,tight)
 -----------------------------------

 ----------------------------------
 COc1nc(OC)nc(n1)Oc1ccccc1OC_conf_0
 ----------------------------------
 Symbolic Z-matrix:
 Charge =  0 Multiplicity = 1

 SCF Done:  E(RB3LYP) =  -930.219132111     A.U. after   14 cycles
 SCF Done:  E(RB3LYP) =  -930.229299225     A.U. after   12 cycles
 SCF Done:  E(RB3LYP) =  -930.237686807     A.U. after   14 cycles
 SCF Done:  E(RB3LYP) =  -930.239563396     A.U. after   12 cycles
 SCF Done:  E(RB3LYP) =  -930.240372219     A.U. after   12 cycles
 SCF Done:  E(RB3LYP) =  -930.240672182     A.U. after   12 cycles
 SCF Done:  E(RB3LYP) =  -930.240897809     A.U. after   11 cycles
 SCF Done:  E(RB3LYP) =  -930.241001971     A.U. after   11 cycles
 SCF Done:  E(RB3LYP) =  -930.241030027     A.U. after   10 cycles
 SCF Done:  E(RB3LYP) =  -930.241035595     A.U. after    9 cycles
 SCF Done:  E(RB3LYP) =  -930.241038995     A.U. after    8 cycles
 SCF Done:  E(RB3LYP) =  -930.241043136     A.U. after   10 cycles
 SCF Done:  E(RB3LYP) =  -930.241045559     A.U. after    8 cycles
 SCF Done:  E(RB3LYP) =  -930.241047496     A.U. after    8 cycles
 SCF Done:  E(RB3LYP) =  -930.241047911     A.U. after    7 cycles
 SCF Done:  E(RB3LYP) =  -930.241048080     A.U. after    7 cycles
 SCF Done:  E(RB3LYP) =  -930.241048098     A.U. after    6 cycles
 Optimization completed.
    -- Stationary point found.
 Normal termination of Gaussian 09 at Tue Sep 28 18:56:17 2021.

 ----------------------------------------------------------------------
 #p freq b3lyp/6-31G* volume NMR pop=NPA density=current Geom=AllCheck
 Guess=Read
 ----------------------------------------------------------------------

 COc1nc(OC)nc(n1)Oc1ccccc1OC_conf_0
 ----------------------------------
 Redundant internal coordinates taken from checkpoint file:
 C12H13N3O4_14b8_conf_0.chk
 Charge =  0 Multiplicity = 1

 SCF Done:  E(RB3LYP) =  -930.241048098     A.U. after    1 cycles

  1  C    Isotropic =   136.2780   Anisotropy =    64.9052

  2  O    Isotropic =   189.9803   Anisotropy =    90.2798

  3  C    Isotropic =    22.5242   Anisotropy =   100.6419

  4  N    Isotropic =    62.4239   Anisotropy =   283.8696

  5  C    Isotropic =    23.9331   Anisotropy =    99.6162

  6  O    Isotropic =   190.1425   Anisotropy =    89.7112

  7  C    Isotropic =   136.4363   Anisotropy =    63.8445

  8  N    Isotropic =    66.0479   Anisotropy =   284.0965

  9  C    Isotropic =    22.4998   Anisotropy =    95.7963

 10  N    Isotropic =    56.0746   Anisotropy =   281.1256

 11  O    Isotropic =   148.0094   Anisotropy =   117.8979

 12  C    Isotropic =    53.7774   Anisotropy =    91.8767

 13  C    Isotropic =    70.5028   Anisotropy =   144.7449

 14  C    Isotropic =    75.5413   Anisotropy =   153.2410

 15  C    Isotropic =    70.2816   Anisotropy =   161.5711

 16  C    Isotropic =    73.4701   Anisotropy =   136.5052

 17  C    Isotropic =    45.8626   Anisotropy =   120.1768

 18  O    Isotropic =   247.4458   Anisotropy =    93.3014

 19  C    Isotropic =   132.7612   Anisotropy =    74.0655

 20  H    Isotropic =    28.5105   Anisotropy =     7.7923

 21  H    Isotropic =    28.3326   Anisotropy =     7.9676

 22  H    Isotropic =    28.3029   Anisotropy =     8.0632

 23  H    Isotropic =    28.6686   Anisotropy =     7.5719

 24  H    Isotropic =    28.6590   Anisotropy =     6.3453

 25  H    Isotropic =    28.5681   Anisotropy =     6.6662

 26  H    Isotropic =    25.3991   Anisotropy =     7.8965

 27  H    Isotropic =    25.4150   Anisotropy =     4.0486

 28  H    Isotropic =    25.1964   Anisotropy =     3.4892

 29  H    Isotropic =    25.3944   Anisotropy =     5.8776

 30  H    Isotropic =    28.5649   Anisotropy =     8.0268

 31  H    Isotropic =    28.9103   Anisotropy =     4.8734

 32  H    Isotropic =    27.7066   Anisotropy =     5.5796

  Exact polarizability: 210.893 -22.357 142.507  -4.642 -11.549 114.672
 Approx polarizability: 283.058 -29.201 232.413 -12.869 -16.690 182.131

                     1                      2                      3
                     A                      A                      A
 Frequencies --    22.1427                35.0635                52.9180
 Red. masses --     4.8656                 4.9823                 3.6865
 Frc consts  --     0.0014                 0.0036                 0.0061
 IR Inten    --     0.0019                 0.1166                 1.6256

                     4                      5                      6
                     A                      A                      A
 Frequencies --    71.5886               101.9665               111.9981
 Red. masses --     3.8812                 3.4425                 3.1024
 Frc consts  --     0.0117                 0.0211                 0.0229
 IR Inten    --     4.3297                 6.4492                 0.1421

                     7                      8                      9
                     A                      A                      A
 Frequencies --   148.2236               155.1876               161.4349
 Red. masses --     1.3803                 2.8800                 1.2458
 Frc consts  --     0.0179                 0.0409                 0.0191
 IR Inten    --     0.0715                 1.8936                 0.0971

                    10                     11                     12
                     A                      A                      A
 Frequencies --   189.1429               191.9875               208.4818
 Red. masses --     4.1220                 2.9807                 3.8742
 Frc consts  --     0.0869                 0.0647                 0.0992
 IR Inten    --     1.5356                 4.4485                 1.6576

                    13                     14                     15
                     A                      A                      A
 Frequencies --   229.0975               232.1004               248.5763
 Red. masses --     4.3540                 1.5062                 5.3349
 Frc consts  --     0.1346                 0.0478                 0.1942
 IR Inten    --     0.0479                 0.0600                 2.6543

                    16                     17                     18
                     A                      A                      A
 Frequencies --   269.5046               280.8898               324.2915
 Red. masses --     4.3289                 3.1020                 4.2236
 Frc consts  --     0.1852                 0.1442                 0.2617
 IR Inten    --     0.9438                 5.6237                 6.4689

                    19                     20                     21
                     A                      A                      A
 Frequencies --   376.6461               450.4974               463.9645
 Red. masses --     5.5899                 5.3706                 4.4093
 Frc consts  --     0.4672                 0.6422                 0.5592
 IR Inten    --     1.0923                 2.5092                 6.2523

                    22                     23                     24
                     A                      A                      A
 Frequencies --   499.0402               524.1550               557.0165
 Red. masses --     4.6563                 5.7141                 6.0437
 Frc consts  --     0.6832                 0.9249                 1.1048
 IR Inten    --     8.5717                 2.7988                 0.5486

                    25                     26                     27
                     A                      A                      A
 Frequencies --   598.7825               600.8383               617.6755
 Red. masses --     5.2341                 7.0768                 7.7119
 Frc consts  --     1.1057                 1.5052                 1.7335
 IR Inten    --     5.8993                 1.9622                 4.5165

                    28                     29                     30
                     A                      A                      A
 Frequencies --   669.3454               715.3782               731.2657
 Red. masses --     5.8259                 6.2343                 5.0208
 Frc consts  --     1.5379                 1.8798                 1.5819
 IR Inten    --     2.3290                 4.9004                 5.4405

                    31                     32                     33
                     A                      A                      A
 Frequencies --   742.0992               750.2354               768.0385
 Red. masses --     9.3680                11.9143                 1.4564
 Frc consts  --     3.0396                 3.9511                 0.5062
 IR Inten    --     2.3265                 0.0467                36.0643

                    34                     35                     36
                     A                      A                      A
 Frequencies --   799.2251               828.8409               859.2464
 Red. masses --     4.3585                12.2768                 1.9056
 Frc consts  --     1.6403                 4.9691                 0.8289
 IR Inten    --    21.1702                41.4419                 3.4368

                    37                     38                     39
                     A                      A                      A
 Frequencies --   872.0169               937.6702               969.9443
 Red. masses --     3.1326                 1.3426                 1.2364
 Frc consts  --     1.4035                 0.6955                 0.6853
 IR Inten    --     5.0309                 1.8767                 0.1589

                    40                     41                     42
                     A                      A                      A
 Frequencies --   979.2133               997.4752              1036.1734
 Red. masses --     7.6793                13.7447                 8.4952
 Frc consts  --     4.3384                 8.0573                 5.3739
 IR Inten    --    17.0646                 0.1577                 4.5565

                    43                     44                     45
                     A                      A                      A
 Frequencies --  1048.9362              1075.3099              1121.7207
 Red. masses --     5.8526                 2.1918                 3.4957
 Frc consts  --     3.7940                 1.4932                 2.5915
 IR Inten    --    37.3351                31.2339                39.2455

                    46                     47                     48
                     A                      A                      A
 Frequencies --  1140.1079              1159.0422              1180.0144
 Red. masses --     2.5241                 3.0763                 1.2503
 Frc consts  --     1.9331                 2.4349                 1.0258
 IR Inten    --    91.3586               135.9834                 2.2528

                    49                     50                     51
                     A                      A                      A
 Frequencies --  1184.5011              1185.0743              1187.6699
 Red. masses --     1.2653                 1.2662                 1.0922
 Frc consts  --     1.0459                 1.0477                 0.9077
 IR Inten    --     0.2334                 0.9672                 1.6501

                    52                     53                     54
                     A                      A                      A
 Frequencies --  1209.5551              1220.7336              1235.6463
 Red. masses --     1.5254                 1.5589                 2.3718
 Frc consts  --     1.3149                 1.3687                 2.1336
 IR Inten    --    54.5984                26.6355               156.1792

                    55                     56                     57
                     A                      A                      A
 Frequencies --  1239.1660              1298.2891              1306.2880
 Red. masses --     2.1701                 2.0662                 2.6023
 Frc consts  --     1.9633                 2.0519                 2.6163
 IR Inten    --   183.5299                92.3306                92.8742

                    58                     59                     60
                     A                      A                      A
 Frequencies --  1321.4387              1358.5813              1405.7060
 Red. masses --     9.6480                 6.9865                 4.9874
 Frc consts  --     9.9262                 7.5977                 5.8065
 IR Inten    --    44.7991                85.2419               952.1295

                    61                     62                     63
                     A                      A                      A
 Frequencies --  1420.3004              1469.0042              1486.5341
 Red. masses --     3.3383                 1.6995                 1.5724
 Frc consts  --     3.9677                 2.1608                 2.0472
 IR Inten    --   449.3522                11.2573                33.9607

                    64                     65                     66
                     A                      A                      A
 Frequencies --  1508.6319              1512.6434              1512.6805
 Red. masses --     1.6650                 1.0512                 1.0484
 Frc consts  --     2.2327                 1.4172                 1.4134
 IR Inten    --    39.3615                 4.6343                 9.0087

                    67                     68                     69
                     A                      A                      A
 Frequencies --  1518.7178              1521.2529              1522.5030
 Red. masses --     1.2194                 1.0792                 1.0968
 Frc consts  --     1.6571                 1.4715                 1.4979
 IR Inten    --    94.6298                17.1799                 6.5717

                    70                     71                     72
                     A                      A                      A
 Frequencies --  1525.1471              1540.6892              1548.6241
 Red. masses --     1.3216                 1.0555                 2.4872
 Frc consts  --     1.8113                 1.4762                 3.5144
 IR Inten    --    36.2006                33.4089               154.7581

                    73                     74                     75
                     A                      A                      A
 Frequencies --  1565.6465              1600.8557              1626.6974
 Red. masses --     3.3577                 8.2844                 9.1340
 Frc consts  --     4.8493                12.5088                14.2404
 IR Inten    --     7.2941               613.4119               780.5274

                    76                     77                     78
                     A                      A                      A
 Frequencies --  1641.4499              1663.2609              3049.2660
 Red. masses --     7.5900                 6.0079                 1.0341
 Frc consts  --    12.0489                 9.7926                 5.6652
 IR Inten    --   114.0210                39.6393                50.4356

                    79                     80                     81
                     A                      A                      A
 Frequencies --  3076.5083              3077.5604              3130.6705
 Red. masses --     1.0293                 1.0293                 1.1011
 Frc consts  --     5.7400                 5.7440                 6.3582
 IR Inten    --    41.1891                25.8219                31.6705

                    82                     83                     84
                     A                      A                      A
 Frequencies --  3151.9024              3152.8997              3154.1860
 Red. masses --     1.1073                 1.1077                 1.1077
 Frc consts  --     6.4816                 6.4879                 6.4928
 IR Inten    --    24.3403                18.4717                18.9348

                    85                     86                     87
                     A                      A                      A
 Frequencies --  3181.4487              3182.6291              3192.7130
 Red. masses --     1.1074                 1.1075                 1.0858
 Frc consts  --     6.6037                 6.6095                 6.5210
 IR Inten    --    23.0469                21.6403                 1.9223

                    88                     89                     90
                     A                      A                      A
 Frequencies --  3205.6154              3216.2977              3221.7141
 Red. masses --     1.0899                 1.0931                 1.0970
 Frc consts  --     6.5985                 6.6623                 6.7089
 IR Inten    --    16.4511                15.2457                 7.4771

 - Thermochemistry -
 -------------------
 Temperature   298.150 Kelvin.  Pressure   1.00000 Atm.
 Atom     1 has atomic number  6 and mass  12.00000

 Molecular mass:   263.09061 amu.
 Principal axes and moments of inertia in atomic units:
                           1         2         3
     Eigenvalues --  2697.975617765.647378853.66981
           X            0.99996  -0.00885  -0.00031
           Y            0.00884   0.99967  -0.02431
           Z            0.00053   0.02431   0.99970
 This molecule is an asymmetric top.
 Rotational symmetry number  1.
 Warning -- assumption of classical behavior for rotation
           may cause significant error
 Rotational temperatures (Kelvin)      0.03210     0.01115     0.00978
 Rotational constants (GHZ):           0.66892     0.23240     0.20384
 Zero-point vibrational energy     654567.9 (Joules/Mol)
                                  156.44549 (Kcal/Mol)
 Warning -- explicit consideration of  27 degrees of freedom as
           vibrations may cause significant error
 Vibrational temperatures:     31.86    50.45    76.14   103.00   146.71
          (Kelvin)            161.14   213.26   223.28   232.27   272.13
                              276.23   299.96   329.62   333.94   357.65
                              387.76   404.14   466.58   541.91   648.16
                              667.54   718.01   754.14   801.42   861.51
                              864.47   888.70   963.04  1029.27  1052.13
                             1067.71  1079.42  1105.03  1149.91  1192.52
                             1236.26  1254.64  1349.10  1395.53  1408.87
                             1435.14  1490.82  1509.18  1547.13  1613.90
                             1640.36  1667.60  1697.78  1704.23  1705.06
                             1708.79  1740.28  1756.36  1777.82  1782.88
                             1867.95  1879.45  1901.25  1954.69  2022.49
                             2043.49  2113.57  2138.79  2170.58  2176.35
                             2176.41  2185.09  2188.74  2190.54  2194.34
                             2216.71  2228.12  2252.61  2303.27  2340.45
                             2361.68  2393.06  4387.21  4426.40  4427.92
                             4504.33  4534.88  4536.31  4538.16  4577.39
                             4579.09  4593.60  4612.16  4627.53  4635.32

 Zero-point correction=                           0.249312 (Hartree/Particle)
 Thermal correction to Energy=                    0.266775
 Thermal correction to Enthalpy=                  0.267719
 Thermal correction to Gibbs Free Energy=         0.202462
 Sum of electronic and zero-point Energies=           -929.991736
 Sum of electronic and thermal Energies=              -929.974273
 Sum of electronic and thermal Enthalpies=            -929.973329
 Sum of electronic and thermal Free Energies=         -930.038586

                     E (Thermal)             CV                S
                      KCal/Mol        Cal/Mol-Kelvin    Cal/Mol-Kelvin
 Total                  167.404             64.007            137.345
 Electronic               0.000              0.000              0.000
 Translational            0.889              2.981             42.601
 Rotational               0.889              2.981             33.583
 Vibrational            165.626             58.045             61.161
 Vibration     1          0.593              1.985              6.432
 Vibration     2          0.594              1.982              5.520
 Vibration     3          0.596              1.976              4.705
 Vibration     4          0.598              1.968              4.109
 Vibration     5          0.604              1.948              3.416
 Vibration     6          0.607              1.940              3.234
 Vibration     7          0.618              1.905              2.695
 Vibration     8          0.620              1.897              2.608
 Vibration     9          0.622              1.890              2.533
 Vibration    10          0.633              1.855              2.236
 Vibration    11          0.634              1.851              2.209
 Vibration    12          0.642              1.828              2.057
 Vibration    13          0.652              1.797              1.886
 Vibration    14          0.653              1.792              1.863
 Vibration    15          0.662              1.765              1.741
 Vibration    16          0.674              1.729              1.599
 Vibration    17          0.681              1.709              1.528
 Vibration    18          0.709              1.627              1.288
 Vibration    19          0.747              1.520              1.053
 Vibration    20          0.809              1.360              0.794
 Vibration    21          0.822              1.330              0.755
 Vibration    22          0.854              1.252              0.661
 Vibration    23          0.879              1.197              0.600
 Vibration    24          0.913              1.124              0.530
 Vibration    25          0.957              1.034              0.452
 Vibration    26          0.959              1.030              0.448
 Vibration    27          0.977              0.995              0.420

 Optimization completed.
    -- Stationary point found.
 Normal termination of Gaussian 09 at Tue Sep 28 20:26:44 2021.
 Gaussian 09:  AM64L-G09RevA.02 11-Jun-2009

 ----------------------------------------------------------------------
 #p TD(NStates=10, Root=1) b3lyp/6-31G* volume pop=NPA density=current
 Geom=AllCheck Guess=Read
 ----------------------------------------------------------------------

 COc1nc(OC)nc(n1)Oc1ccccc1OC_conf_0
 ----------------------------------
 Redundant internal coordinates taken from checkpoint file:
 C12H13N3O4_14b8_conf_0.chk
 Charge =  0 Multiplicity = 1

                         Standard orientation:
 ---------------------------------------------------------------------
 Center     Atomic      Atomic             Coordinates (Angstroms)
 Number     Number       Type             X           Y           Z
 ---------------------------------------------------------------------
      1          6           0        5.124922   -0.780161   -0.344289
      2          8           0        3.848421   -1.356895   -0.657772
      3          6           0        2.762501   -0.634190   -0.390153
      4          7           0        2.905995    0.576624    0.152274
      5          6           0        1.743765    1.197428    0.379722
      6          8           0        1.860033    2.406143    0.927336
      7          6           0        0.650287    3.131820    1.197202
      8          7           0        0.525767    0.718601    0.114365
      9          6           0        0.543279   -0.500031   -0.437634
     10          7           0        1.609794   -1.237526   -0.713550
     11          8           0       -0.627206   -1.096330   -0.741546
     12          6           0       -1.835092   -0.399629   -0.615777
     13          6           0       -2.138584    0.612414   -1.526004
     14          6           0       -3.387791    1.225058   -1.510083
     15          6           0       -4.342904    0.808174   -0.578402
     16          6           0       -4.038904   -0.199084    0.330161
     17          6           0       -2.780402   -0.820652    0.333204
     18          8           0       -2.619733   -1.825893    1.239519
     19          6           0       -1.340461   -2.077511    1.825126
     20          1           0        5.854229   -1.533298   -0.644519
     21          1           0        5.205437   -0.571372    0.725595
     22          1           0        5.279092    0.148181   -0.900204
     23          1           0        0.980873    4.081059    1.619985
     24          1           0        0.023602    2.590640    1.910764
     25          1           0        0.081352    3.295549    0.278656
     26          1           0       -1.384400    0.895892   -2.253356
     27          1           0       -3.616446    2.009334   -2.225302
     28          1           0       -5.325542    1.270971   -0.556644
     29          1           0       -4.763359   -0.536635    1.064674
     30          1           0       -1.545228   -2.644154    2.736674
     31          1           0       -0.835884   -1.140471    2.089273
     32          1           0       -0.700433   -2.667603    1.164047
 ---------------------------------------------------------------------

 SCF Done:  E(RB3LYP) =  -930.241048098     A.U. after    1 cycles

 Excitation energies and oscillator strengths:

 Excited State   1:      Singlet-A      4.8229 eV  257.07 nm  f=0.0148  <S**2>=0.000
      69 -> 70         0.66662
      69 -> 71        -0.20067
 This state for optimization and/or second-order correction.
 Total Energy, E(TD-HF/TD-KS) =  -930.063808632
 Copying the excited state density for this state as the 1-particle RhoCI density.

 Excited State   2:      Singlet-A      4.9687 eV  249.53 nm  f=0.0193  <S**2>=0.000
      68 -> 70        -0.13249
      68 -> 73        -0.15463
      69 -> 70         0.19706
      69 -> 71         0.62380
      69 -> 72        -0.15516

 Excited State   3:      Singlet-A      5.1833 eV  239.20 nm  f=0.0017  <S**2>=0.000
      68 -> 70         0.24920
      68 -> 73         0.23174
      69 -> 71         0.23111
      69 -> 72         0.55544

 Excited State   4:      Singlet-A      5.4187 eV  228.81 nm  f=0.0566  <S**2>=0.000
      64 -> 70         0.20335
      68 -> 70         0.58537
      68 -> 73        -0.17174
      69 -> 72        -0.22122

 Excited State   5:      Singlet-A      5.5385 eV  223.86 nm  f=0.0033  <S**2>=0.000
      64 -> 71         0.17768
      68 -> 71         0.64988

 Excited State   6:      Singlet-A      5.6629 eV  218.94 nm  f=0.0125  <S**2>=0.000
      66 -> 70         0.55917
      66 -> 71        -0.33110
      67 -> 70         0.13374
      68 -> 70         0.14642

 Excited State   7:      Singlet-A      5.7004 eV  217.50 nm  f=0.0024  <S**2>=0.000
      64 -> 70         0.16099
      66 -> 70         0.36622
      66 -> 71         0.52606
      66 -> 72         0.11675
      67 -> 71         0.11772

 Excited State   8:      Singlet-A      5.8436 eV  212.17 nm  f=0.0006  <S**2>=0.000
      64 -> 70         0.29292
      64 -> 71         0.11300
      65 -> 70         0.38166
      65 -> 71         0.22541
      66 -> 70        -0.11689
      67 -> 70         0.19987
      67 -> 71        -0.35202

 Excited State   9:      Singlet-A      5.8624 eV  211.49 nm  f=0.0484  <S**2>=0.000
      64 -> 71        -0.14871
      68 -> 72        -0.34893
      69 -> 73         0.55929

 Excited State  10:      Singlet-A      5.9186 eV  209.48 nm  f=0.0391  <S**2>=0.000
      64 -> 70         0.51837
      65 -> 71        -0.17743
      66 -> 71        -0.16930
      67 -> 70        -0.22114
      67 -> 71         0.16524
      68 -> 70        -0.18731
      69 -> 73        -0.13322

 The electronic state is 1-A.
 Alpha  occ. eigenvalues --  -19.20695 -19.20295 -19.19837 -19.17357 -14.34234
 Alpha  occ. eigenvalues --  -14.33769 -14.33429 -10.33151 -10.33068 -10.32642
 Alpha  occ. eigenvalues --  -10.25260 -10.25204 -10.24738 -10.24330 -10.23427
 Alpha  occ. eigenvalues --  -10.19637 -10.19307 -10.19051 -10.18910  -1.11777
 Alpha  occ. eigenvalues --   -1.10357  -1.09784  -1.05699  -1.00019  -0.90452
 Alpha  occ. eigenvalues --   -0.90037  -0.85362  -0.76187  -0.75870  -0.74336
 Alpha  occ. eigenvalues --   -0.73323  -0.69703  -0.66744  -0.64023  -0.61615
 Alpha  occ. eigenvalues --   -0.60547  -0.58147  -0.56526  -0.53236  -0.51519
 Alpha  occ. eigenvalues --   -0.51055  -0.50769  -0.49227  -0.47951  -0.47351
 Alpha  occ. eigenvalues --   -0.46239  -0.44885  -0.44735  -0.43836  -0.43621
 Alpha  occ. eigenvalues --   -0.42561  -0.41486  -0.40168  -0.39283  -0.37969
 Alpha  occ. eigenvalues --   -0.37677  -0.36829  -0.36612  -0.35997  -0.35684
 Alpha  occ. eigenvalues --   -0.33633  -0.31332  -0.30207  -0.28564  -0.28204
 Alpha  occ. eigenvalues --   -0.27825  -0.27439  -0.24565  -0.22283
 Alpha virt. eigenvalues --   -0.02046  -0.01698  -0.00177   0.00819   0.08082
 Alpha virt. eigenvalues --    0.09991   0.11439   0.11757   0.12235   0.12629
 Alpha virt. eigenvalues --    0.13126   0.13797   0.14476   0.15149   0.15409

 Mulliken atomic charges:
              1
     1  C   -0.191720
     2  O   -0.475383
     3  C    0.637596
     4  N   -0.590546
     5  C    0.601983
     6  O   -0.478135
     7  C   -0.178152
     8  N   -0.580917
     9  C    0.502647
    10  N   -0.555057
    11  O   -0.563365
    12  C    0.423768
    13  C   -0.128434
    14  C   -0.104933
    15  C   -0.121197
    16  C   -0.159794
    17  C    0.366496
    18  O   -0.427041
    19  C   -0.267026
    20  H    0.141108
    21  H    0.156106
    22  H    0.158484
    23  H    0.146849
    24  H    0.130175
    25  H    0.132959
    26  H    0.211155
    27  H    0.192174
    28  H    0.177280
    29  H    0.187064
    30  H    0.188037
    31  H    0.222548
    32  H    0.245268
 Sum of Mulliken atomic charges =  -0.00000

 Dipole moment (field-independent basis, Debye):
    X=            -12.5723    Y=              0.9462    Z=              1.2598  Tot=             12.6707
 Quadrupole moment (field-independent basis, Debye-Ang):
   XX=            -86.9832   YY=           -107.3962   ZZ=            -99.8128
   XY=             -5.8067   XZ=              2.9809   YZ=            -12.7080

 Summary of Natural Population Analysis:

                                       Natural Population
                Natural  -----------------------------------------------
    Atom  No    Charge         Core      Valence    Rydberg      Total
 -----------------------------------------------------------------------
      C    1   -0.31414      1.99942     4.30120    0.01352     6.31414
      O    2   -0.52274      1.99972     6.51105    0.01197     8.52274
      C    3    0.74860      1.99921     3.21383    0.03836     5.25140
      N    4   -0.71170      1.99926     5.68937    0.02308     7.71170
      C    5    0.68685      1.99923     3.27660    0.03733     5.31315
      O    6   -0.52629      1.99972     6.51465    0.01191     8.52629
      C    7   -0.30875      1.99942     4.29599    0.01334     6.30875
      N    8   -0.68085      1.99928     5.66393    0.01764     7.68085
      C    9    0.51790      1.99916     3.44489    0.03805     5.48210
      N   10   -0.63272      1.99927     5.61085    0.02260     7.63272
      O   11   -0.54134      1.99967     6.52974    0.01193     8.54134
      C   12    0.38486      1.99868     3.59440    0.02205     5.61514
      C   13   -0.25002      1.99902     4.23641    0.01459     6.25002
      C   14   -0.10642      1.99910     4.09385    0.01347     6.10642
      C   15   -0.22817      1.99913     4.21479    0.01425     6.22817
      C   16   -0.23286      1.99907     4.21938    0.01441     6.23286
      C   17    0.37258      1.99864     3.60675    0.02202     5.62742
      O   18   -0.38748      1.99975     6.37638    0.01135     8.38748
      C   19   -0.33348      1.99938     4.31991    0.01420     6.33348
      H   20    0.20830      0.00000     0.79100    0.00070     0.79170
      H   21    0.21267      0.00000     0.78572    0.00161     0.78733
      H   22    0.21409      0.00000     0.78431    0.00160     0.78591
      H   23    0.21207      0.00000     0.78724    0.00068     0.78793
      H   24    0.19639      0.00000     0.80117    0.00245     0.80361
      H   25    0.19801      0.00000     0.79931    0.00268     0.80199
      H   26    0.28831      0.00000     0.71133    0.00036     0.71169
      H   27    0.25884      0.00000     0.74068    0.00048     0.74116
      H   28    0.25997      0.00000     0.73948    0.00055     0.74003
      H   29    0.26756      0.00000     0.73155    0.00089     0.73244
      H   30    0.23425      0.00000     0.76520    0.00055     0.76575
      H   31    0.25045      0.00000     0.74873    0.00082     0.74955
      H   32    0.26528      0.00000     0.73338    0.00135     0.73472
 =======================================================================
   * Total *    0.00000     37.98612    99.63309    0.38079   138.00000

 Normal termination of Gaussian 09 at Wed Sep 29 01:49:55 2021.
