 Gaussian 09, Revision A.02,

 -----------------------------------
 #p opt b3lyp/6-31G* scf=(xqc,tight)
 -----------------------------------

 ---------------------------------
 COc1ccc(cc1)OC(=O)C(C)(C)C_conf_0
 ---------------------------------
 Symbolic Z-matrix:
 Charge =  0 Multiplicity = 1

 SCF Done:  E(RB3LYP) =  -692.583250758     A.U. after   15 cycles
 SCF Done:  E(RB3LYP) =  -692.586956224     A.U. after   12 cycles
 SCF Done:  E(RB3LYP) =  -692.585720449     A.U. after   13 cycles
 SCF Done:  E(RB3LYP) =  -692.587413546     A.U. after   12 cycles
 SCF Done:  E(RB3LYP) =  -692.588084140     A.U. after   12 cycles
 SCF Done:  E(RB3LYP) =  -692.588504610     A.U. after   12 cycles
 SCF Done:  E(RB3LYP) =  -692.588733497     A.U. after   11 cycles
 SCF Done:  E(RB3LYP) =  -692.588915827     A.U. after   11 cycles
 SCF Done:  E(RB3LYP) =  -692.588955037     A.U. after   11 cycles
 SCF Done:  E(RB3LYP) =  -692.588962916     A.U. after   10 cycles
 SCF Done:  E(RB3LYP) =  -692.588966810     A.U. after    9 cycles
 SCF Done:  E(RB3LYP) =  -692.588969134     A.U. after    9 cycles
 SCF Done:  E(RB3LYP) =  -692.588970742     A.U. after    9 cycles
 SCF Done:  E(RB3LYP) =  -692.588971160     A.U. after    9 cycles
 SCF Done:  E(RB3LYP) =  -692.588971190     A.U. after    8 cycles
 SCF Done:  E(RB3LYP) =  -692.588971088     A.U. after    8 cycles
 SCF Done:  E(RB3LYP) =  -692.588970983     A.U. after    7 cycles
 Optimization completed.
    -- Stationary point found.
 Normal termination of Gaussian 09 at Tue Sep 28 19:02:23 2021.

 ----------------------------------------------------------------------
 #p freq b3lyp/6-31G* volume NMR pop=NPA density=current Geom=AllCheck
 Guess=Read
 ----------------------------------------------------------------------

 COc1ccc(cc1)OC(=O)C(C)(C)C_conf_0
 ---------------------------------
 Redundant internal coordinates taken from checkpoint file:
 C12H16O3_1fc3_conf_0.chk
 Charge =  0 Multiplicity = 1

 SCF Done:  E(RB3LYP) =  -692.588970983     A.U. after    1 cycles

  1  C    Isotropic =   137.3440   Anisotropy =    65.2418

  2  O    Isotropic =   239.8765   Anisotropy =    76.9943

  3  C    Isotropic =    41.9074   Anisotropy =   125.0370

  4  C    Isotropic =    86.5721   Anisotropy =   141.8345

  5  C    Isotropic =    72.2590   Anisotropy =   153.0138

  6  C    Isotropic =    51.8843   Anisotropy =   101.6077

  7  C    Isotropic =    74.8499   Anisotropy =   140.1961

  8  C    Isotropic =    78.3196   Anisotropy =   134.4567

  9  O    Isotropic =   112.9156   Anisotropy =   160.7922

 10  C    Isotropic =    22.7019   Anisotropy =    77.5819

 11  O    Isotropic =   -60.7709   Anisotropy =   575.6005

 12  C    Isotropic =   149.0030   Anisotropy =    23.8686

 13  C    Isotropic =   162.0989   Anisotropy =    37.2347

 14  C    Isotropic =   162.8325   Anisotropy =    31.1876

 15  C    Isotropic =   162.0935   Anisotropy =    38.0973

 16  H    Isotropic =    28.2957   Anisotropy =     8.1841

 17  H    Isotropic =    28.6505   Anisotropy =     8.0045

 18  H    Isotropic =    28.6344   Anisotropy =     7.9720

 19  H    Isotropic =    25.8214   Anisotropy =     7.2935

 20  H    Isotropic =    24.9907   Anisotropy =     9.0151

 21  H    Isotropic =    25.4639   Anisotropy =     6.7522

 22  H    Isotropic =    25.5077   Anisotropy =     5.6527

 23  H    Isotropic =    30.8948   Anisotropy =     8.0656

 24  H    Isotropic =    30.4585   Anisotropy =     6.2329

 25  H    Isotropic =    31.1368   Anisotropy =     7.8408

 26  H    Isotropic =    30.6767   Anisotropy =     8.0936

 27  H    Isotropic =    31.5068   Anisotropy =     7.7867

 28  H    Isotropic =    30.6938   Anisotropy =     7.9180

 29  H    Isotropic =    30.4026   Anisotropy =     7.2829

 30  H    Isotropic =    30.9073   Anisotropy =     8.0022

 31  H    Isotropic =    31.1316   Anisotropy =     7.9040

  Exact polarizability: 191.207   3.030 127.032   1.959  -5.372  85.670
 Approx polarizability: 242.579   2.100 213.087   6.937  -7.161 128.341

                     1                      2                      3
                     A                      A                      A
 Frequencies --    18.2888                38.8744                43.2030
 Red. masses --     3.2493                 4.6351                 4.9324
 Frc consts  --     0.0006                 0.0041                 0.0054
 IR Inten    --     0.7911                 0.3685                 0.9233

                     4                      5                      6
                     A                      A                      A
 Frequencies --    69.5771               102.6884               165.8915
 Red. masses --     4.2331                 3.8468                 3.6966
 Frc consts  --     0.0121                 0.0239                 0.0599
 IR Inten    --     2.4463                 1.5700                 2.0150

                     7                      8                      9
                     A                      A                      A
 Frequencies --   187.2998               202.3306               225.7826
 Red. masses --     3.0633                 1.2068                 1.6870
 Frc consts  --     0.0633                 0.0291                 0.0507
 IR Inten    --     0.9822                 0.4645                 0.7599

                    10                     11                     12
                     A                      A                      A
 Frequencies --   253.5259               254.0335               263.3011
 Red. masses --     1.7401                 1.2688                 1.2091
 Frc consts  --     0.0659                 0.0482                 0.0494
 IR Inten    --     0.2353                 0.2798                 0.3418

                    13                     14                     15
                     A                      A                      A
 Frequencies --   279.2533               299.5699               353.0658
 Red. masses --     1.6677                 2.7146                 2.9202
 Frc consts  --     0.0766                 0.1435                 0.2145
 IR Inten    --     0.5716                 3.8627                 3.1972

                    16                     17                     18
                     A                      A                      A
 Frequencies --   364.8953               375.0053               406.4457
 Red. masses --     3.8660                 2.7563                 5.1643
 Frc consts  --     0.3033                 0.2284                 0.5026
 IR Inten    --     5.8733                 1.6722                 0.3745

                    19                     20                     21
                     A                      A                      A
 Frequencies --   429.8217               439.2030               482.2121
 Red. masses --     3.2513                 3.8571                 3.8945
 Frc consts  --     0.3539                 0.4384                 0.5335
 IR Inten    --     0.3936                 7.5993                 0.5468

                    22                     23                     24
                     A                      A                      A
 Frequencies --   531.8423               555.1480               596.6403
 Red. masses --     2.4910                 4.9685                 3.4975
 Frc consts  --     0.4151                 0.9022                 0.7336
 IR Inten    --     6.4674                11.2983                 0.9275

                    25                     26                     27
                     A                      A                      A
 Frequencies --   649.7037               709.9274               756.4845
 Red. masses --     6.9043                 4.3501                 5.3041
 Frc consts  --     1.7171                 1.2918                 1.7884
 IR Inten    --     1.3938                 0.9083                18.6240

                    28                     29                     30
                     A                      A                      A
 Frequencies --   759.3915               805.8264               815.1520
 Red. masses --     6.8249                 2.1131                 1.6345
 Frc consts  --     2.3189                 0.8085                 0.6399
 IR Inten    --     2.6481                 9.9101                 0.6918

                    31                     32                     33
                     A                      A                      A
 Frequencies --   842.2707               861.3936               903.9390
 Red. masses --     2.2751                 3.7800                 3.0500
 Frc consts  --     0.9510                 1.6525                 1.4684
 IR Inten    --    23.0405                17.7736                15.0363

                    34                     35                     36
                     A                      A                      A
 Frequencies --   932.0392               948.1691               951.4601
 Red. masses --     1.4148                 1.7512                 1.3089
 Frc consts  --     0.7241                 0.9276                 0.6982
 IR Inten    --     1.5465                 1.3921                 0.4128

                    37                     38                     39
                     A                      A                      A
 Frequencies --   957.0161               981.3521              1031.4580
 Red. masses --     1.6302                 1.1980                 2.6631
 Frc consts  --     0.8797                 0.6797                 1.6693
 IR Inten    --     3.0434                 0.0141                 2.2460

                    40                     41                     42
                     A                      A                      A
 Frequencies --  1059.2152              1060.6017              1080.1714
 Red. masses --     1.4588                 1.4428                 6.1562
 Frc consts  --     0.9643                 0.9562                 4.2320
 IR Inten    --    24.6347                10.2773                54.1369

                    43                     44                     45
                     A                      A                      A
 Frequencies --  1137.2633              1152.0995              1185.7727
 Red. masses --     1.2591                 3.8363                 1.2702
 Frc consts  --     0.9594                 3.0002                 1.0522
 IR Inten    --    21.2757               534.0065                 0.7630

                    46                     47                     48
                     A                      A                      A
 Frequencies --  1198.7186              1218.5833              1231.9614
 Red. masses --     1.2455                 1.3807                 3.2184
 Frc consts  --     1.0545                 1.2080                 2.8779
 IR Inten    --    38.7225                13.9221               386.4007

                    49                     50                     51
                     A                      A                      A
 Frequencies --  1242.8821              1264.8122              1300.7893
 Red. masses --     2.6726                 2.8481                 6.0687
 Frc consts  --     2.4324                 2.6845                 6.0500
 IR Inten    --     2.6616                31.7720               143.6225

                    52                     53                     54
                     A                      A                      A
 Frequencies --  1310.2033              1337.5221              1362.3699
 Red. masses --     3.2046                 1.3044                 8.8752
 Frc consts  --     3.2412                 1.3749                 9.7055
 IR Inten    --    40.1210                 2.3677                14.8431

                    55                     56                     57
                     A                      A                      A
 Frequencies --  1421.8699              1430.0702              1458.3603
 Red. masses --     1.2086                 1.2326                 1.2223
 Frc consts  --     1.4397                 1.4852                 1.5317
 IR Inten    --     3.7888                 4.6144                15.3333

                    58                     59                     60
                     A                      A                      A
 Frequencies --  1467.4338              1500.1649              1507.5623
 Red. masses --     3.2489                 1.1989                 1.0485
 Frc consts  --     4.1219                 1.5897                 1.4040
 IR Inten    --     0.4155                30.2446                 0.0302

                    61                     62                     63
                     A                      A                      A
 Frequencies --  1515.4012              1520.7418              1520.9311
 Red. masses --     1.0452                 1.0456                 1.0481
 Frc consts  --     1.4141                 1.4247                 1.4285
 IR Inten    --     0.1603                 0.1793                 5.5258

                    64                     65                     66
                     A                      A                      A
 Frequencies --  1529.0464              1531.9973              1534.8808
 Red. masses --     1.0492                 1.0550                 1.0712
 Frc consts  --     1.4453                 1.4589                 1.4868
 IR Inten    --     5.5409                11.5922                57.1593

                    67                     68                     69
                     A                      A                      A
 Frequencies --  1550.0641              1560.7442              1645.6231
 Red. masses --     1.0786                 2.2764                 7.2611
 Frc consts  --     1.5269                 3.2670                11.5855
 IR Inten    --    50.3219               176.1881                 7.6109

                    70                     71                     72
                     A                      A                      A
 Frequencies --  1671.4798              1827.7951              3024.2831
 Red. masses --     5.8624                12.6691                 1.0349
 Frc consts  --     9.6500                24.9373                 5.5769
 IR Inten    --    20.9549               179.5573                56.1416

                    73                     74                     75
                     A                      A                      A
 Frequencies --  3049.4110              3051.7611              3060.8094
 Red. masses --     1.0357                 1.0363                 1.0367
 Frc consts  --     5.6746                 5.6861                 5.7226
 IR Inten    --    28.2762                11.2106                28.5497

                    76                     77                     78
                     A                      A                      A
 Frequencies --  3082.7118              3112.6086              3114.6679
 Red. masses --     1.1067                 1.1031                 1.1023
 Frc consts  --     6.1964                 6.2969                 6.3004
 IR Inten    --    43.9768                11.8835                26.2259

                    79                     80                     81
                     A                      A                      A
 Frequencies --  3128.1070              3138.6269              3139.8332
 Red. masses --     1.1015                 1.1025                 1.1019
 Frc consts  --     6.3503                 6.3989                 6.4002
 IR Inten    --    40.8556                 8.9207                18.1879

                    82                     83                     84
                     A                      A                      A
 Frequencies --  3143.5860              3157.2869              3208.8316
 Red. masses --     1.1008                 1.0996                 1.0879
 Frc consts  --     6.4095                 6.4580                 6.5997
 IR Inten    --    40.7788                27.5515                 7.4952

                    85                     86                     87
                     A                      A                      A
 Frequencies --  3223.4383              3226.6901              3247.2134
 Red. masses --     1.0951                 1.0882                 1.0937
 Frc consts  --     6.7041                 6.6752                 6.7949
 IR Inten    --     6.1263                10.6412                 2.2662

 - Thermochemistry -
 -------------------
 Temperature   298.150 Kelvin.  Pressure   1.00000 Atm.
 Atom     1 has atomic number  6 and mass  12.00000

 Molecular mass:   208.10994 amu.
 Principal axes and moments of inertia in atomic units:
                           1         2         3
     Eigenvalues --   976.123877274.970827690.86974
           X            0.99995   0.01011   0.00089
           Y           -0.01008   0.99929  -0.03624
           Z           -0.00125   0.03623   0.99934
 This molecule is an asymmetric top.
 Rotational symmetry number  1.
 Warning -- assumption of classical behavior for rotation
           may cause significant error
 Rotational temperatures (Kelvin)      0.08873     0.01191     0.01126
 Rotational constants (GHZ):           1.84889     0.24808     0.23466
 Zero-point vibrational energy     683608.9 (Joules/Mol)
                                  163.38644 (Kcal/Mol)
 Warning -- explicit consideration of  24 degrees of freedom as
           vibrations may cause significant error
 Vibrational temperatures:     26.31    55.93    62.16   100.11   147.75
          (Kelvin)            238.68   269.48   291.11   324.85   364.77
                              365.50   378.83   401.78   431.01   507.98
                              525.00   539.55   584.78   618.42   631.91
                              693.79   765.20   798.73   858.43   934.78
                             1021.43  1088.41  1092.59  1159.40  1172.82
                             1211.84  1239.35  1300.57  1340.99  1364.20
                             1368.94  1376.93  1411.95  1484.04  1523.97
                             1525.97  1554.12  1636.27  1657.61  1706.06
                             1724.69  1753.27  1772.52  1788.23  1819.78
                             1871.54  1885.09  1924.39  1960.14  2045.75
                             2057.55  2098.25  2111.31  2158.40  2169.04
                             2180.32  2188.01  2188.28  2199.95  2204.20
                             2208.35  2230.19  2245.56  2367.68  2404.88
                             2629.79  4351.26  4387.42  4390.80  4403.82
                             4435.33  4478.34  4481.31  4500.64  4515.78
                             4517.51  4522.91  4542.63  4616.79  4637.80
                             4642.48  4672.01

 Zero-point correction=                           0.260373 (Hartree/Particle)
 Thermal correction to Energy=                    0.275943
 Thermal correction to Enthalpy=                  0.276887
 Thermal correction to Gibbs Free Energy=         0.216283
 Sum of electronic and zero-point Energies=           -692.328598
 Sum of electronic and thermal Energies=              -692.313028
 Sum of electronic and thermal Enthalpies=            -692.312084
 Sum of electronic and thermal Free Energies=         -692.372688

                     E (Thermal)             CV                S
                      KCal/Mol        Cal/Mol-Kelvin    Cal/Mol-Kelvin
 Total                  173.157             58.204            127.552
 Electronic               0.000              0.000              0.000
 Translational            0.889              2.981             41.903
 Rotational               0.889              2.981             32.368
 Vibrational            171.380             52.242             53.281
 Vibration     1          0.593              1.986              6.812
 Vibration     2          0.594              1.981              5.316
 Vibration     3          0.595              1.980              5.107
 Vibration     4          0.598              1.969              4.165
 Vibration     5          0.605              1.947              3.403
 Vibration     6          0.624              1.884              2.482
 Vibration     7          0.632              1.857              2.254
 Vibration     8          0.639              1.837              2.112
 Vibration     9          0.650              1.802              1.912
 Vibration    10          0.665              1.757              1.706
 Vibration    11          0.665              1.756              1.702
 Vibration    12          0.670              1.740              1.640
 Vibration    13          0.680              1.712              1.538
 Vibration    14          0.692              1.674              1.419
 Vibration    15          0.729              1.569              1.152
 Vibration    16          0.738              1.545              1.101
 Vibration    17          0.746              1.523              1.059
 Vibration    18          0.771              1.456              0.939
 Vibration    19          0.791              1.405              0.859
 Vibration    20          0.799              1.385              0.829
 Vibration    21          0.838              1.290              0.704
 Vibration    22          0.887              1.180              0.583
 Vibration    23          0.911              1.128              0.534
 Vibration    24          0.954              1.039              0.455

 Optimization completed.
    -- Stationary point found.
 Normal termination of Gaussian 09 at Tue Sep 28 19:59:24 2021.
 Gaussian 09:  AM64L-G09RevA.02 11-Jun-2009

 ----------------------------------------------------------------------
 #p TD(NStates=10, Root=1) b3lyp/6-31G* volume pop=NPA density=current
 Geom=AllCheck Guess=Read
 ----------------------------------------------------------------------

 COc1ccc(cc1)OC(=O)C(C)(C)C_conf_0
 ---------------------------------
 Redundant internal coordinates taken from checkpoint file:
 C12H16O3_1fc3_conf_0.chk
 Charge =  0 Multiplicity = 1

                         Standard orientation:
 ---------------------------------------------------------------------
 Center     Atomic      Atomic             Coordinates (Angstroms)
 Number     Number       Type             X           Y           Z
 ---------------------------------------------------------------------
      1          6           0       -5.270620   -0.855716    0.030210
      2          8           0       -4.520418    0.333480   -0.153780
      3          6           0       -3.161563    0.264968   -0.029453
      4          6           0       -2.446800   -0.897360    0.281908
      5          6           0       -1.053398   -0.858330    0.386325
      6          6           0       -0.380181    0.339502    0.172848
      7          6           0       -1.085900    1.503740   -0.134892
      8          6           0       -2.470657    1.468267   -0.234095
      9          8           0        1.002920    0.474781    0.333257
     10          6           0        1.869759   -0.402627   -0.265787
     11          8           0        1.515206   -1.342548   -0.936110
     12          6           0        3.321502   -0.016898    0.040589
     13          6           0        3.535768   -0.029789    1.570763
     14          6           0        4.251484   -1.037313   -0.634213
     15          6           0        3.595223    1.399838   -0.512770
     16          1           0       -6.315211   -0.577460   -0.121331
     17          1           0       -5.147332   -1.259562    1.044181
     18          1           0       -4.991375   -1.626839   -0.700172
     19          1           0       -2.956801   -1.839420    0.445767
     20          1           0       -0.503373   -1.760871    0.621524
     21          1           0       -0.540405    2.429312   -0.290133
     22          1           0       -3.039109    2.361807   -0.471200
     23          1           0        3.337947   -1.022943    1.990636
     24          1           0        2.883342    0.690761    2.071453
     25          1           0        4.576203    0.229252    1.798515
     26          1           0        4.065262   -2.049740   -0.263134
     27          1           0        5.296477   -0.779249   -0.428479
     28          1           0        4.104748   -1.051461   -1.718312
     29          1           0        2.946537    2.143967   -0.042354
     30          1           0        3.436435    1.439900   -1.596657
     31          1           0        4.637302    1.677160   -0.315840
 ---------------------------------------------------------------------

 SCF Done:  E(RB3LYP) =  -692.588970983     A.U. after    2 cycles

 Excitation energies and oscillator strengths:

 Excited State   1:      Singlet-A      5.0107 eV  247.44 nm  f=0.0309  <S**2>=0.000
      55 -> 57         0.13170
      55 -> 58         0.20216
      55 -> 59        -0.16073
      56 -> 57         0.59640
      56 -> 58        -0.23335
 This state for optimization and/or second-order correction.
 Total Energy, E(TD-HF/TD-KS) =  -692.404829832
 Copying the excited state density for this state as the 1-particle RhoCI density.

 Excited State   2:      Singlet-A      5.1873 eV  239.02 nm  f=0.1684  <S**2>=0.000
      56 -> 57         0.25785
      56 -> 58         0.62643
      56 -> 59         0.15627

 Excited State   3:      Singlet-A      5.5466 eV  223.53 nm  f=0.0076  <S**2>=0.000
      54 -> 57         0.28000
      54 -> 58         0.47871
      54 -> 59         0.22418
      55 -> 57         0.18086
      55 -> 58         0.27550
      55 -> 59         0.14474

 Excited State   4:      Singlet-A      6.0556 eV  204.74 nm  f=0.0499  <S**2>=0.000
      55 -> 57         0.29104
      55 -> 58        -0.15767
      56 -> 59         0.60871

 Excited State   5:      Singlet-A      6.3800 eV  194.33 nm  f=0.0410  <S**2>=0.000
      54 -> 57        -0.25569
      54 -> 58        -0.23853
      54 -> 59        -0.11973
      55 -> 57         0.20622
      55 -> 58         0.49514
      55 -> 59         0.20381
      56 -> 57        -0.13944

 Excited State   6:      Singlet-A      6.4333 eV  192.72 nm  f=0.1322  <S**2>=0.000
      54 -> 57         0.50505
      54 -> 58        -0.33995
      55 -> 57         0.29386
      56 -> 59        -0.15176

 Excited State   7:      Singlet-A      6.9470 eV  178.47 nm  f=0.0657  <S**2>=0.000
      54 -> 58        -0.22230
      54 -> 59         0.44801
      55 -> 57        -0.11448
      55 -> 59         0.43860

 Excited State   8:      Singlet-A      7.0011 eV  177.09 nm  f=0.6935  <S**2>=0.000
      53 -> 58        -0.11806
      54 -> 57        -0.28244
      54 -> 58         0.13093
      55 -> 57         0.44279
      55 -> 58        -0.27626
      56 -> 58         0.10614
      56 -> 59        -0.24734

 Excited State   9:      Singlet-A      7.1919 eV  172.40 nm  f=0.0057  <S**2>=0.000
      53 -> 57         0.27570
      54 -> 59        -0.12442
      56 -> 60         0.19925
      56 -> 61         0.58238

 Excited State  10:      Singlet-A      7.2016 eV  172.16 nm  f=0.0355  <S**2>=0.000
      53 -> 57         0.49615
      54 -> 59        -0.24314
      55 -> 59         0.22355
      56 -> 60        -0.10767
      56 -> 61        -0.30333

 The electronic state is 1-A.
 Alpha  occ. eigenvalues --  -19.19633 -19.17787 -19.13723 -10.31338 -10.24740
 Alpha  occ. eigenvalues --  -10.24347 -10.24178 -10.21252 -10.19314 -10.19298
 Alpha  occ. eigenvalues --  -10.19116 -10.18816 -10.18143 -10.18132 -10.17323
 Alpha  occ. eigenvalues --   -1.10259  -1.06370  -1.01997  -0.85378  -0.82162
 Alpha  occ. eigenvalues --   -0.75852  -0.75163  -0.70390  -0.69090  -0.68506
 Alpha  occ. eigenvalues --   -0.64862  -0.61839  -0.58507  -0.55327  -0.53021
 Alpha  occ. eigenvalues --   -0.49774  -0.48364  -0.47741  -0.46854  -0.45716
 Alpha  occ. eigenvalues --   -0.44993  -0.43512  -0.43046  -0.43025  -0.42515
 Alpha  occ. eigenvalues --   -0.40694  -0.39626  -0.39017  -0.38317  -0.37500
 Alpha  occ. eigenvalues --   -0.36775  -0.36535  -0.35191  -0.33726  -0.33316
 Alpha  occ. eigenvalues --   -0.33186  -0.32238  -0.30080  -0.26911  -0.25159
 Alpha  occ. eigenvalues --   -0.21311
 Alpha virt. eigenvalues --   -0.00347  -0.00038   0.02791   0.08369   0.08917
 Alpha virt. eigenvalues --    0.10662   0.12596   0.13033   0.13920   0.15172
 Alpha virt. eigenvalues --    0.15258   0.15475   0.15947   0.16197   0.16388

 Mulliken atomic charges:
              1
     1  C   -0.228116
     2  O   -0.448540
     3  C    0.366408
     4  C   -0.214842
     5  C   -0.177279
     6  C    0.356641
     7  C   -0.187426
     8  C   -0.206662
     9  O   -0.516261
    10  C    0.630240
    11  O   -0.457754
    12  C   -0.008840
    13  C   -0.451949
    14  C   -0.433526
    15  C   -0.451527
    16  H    0.179045
    17  H    0.172322
    18  H    0.174380
    19  H    0.126828
    20  H    0.141302
    21  H    0.130543
    22  H    0.129785
    23  H    0.150305
    24  H    0.165353
    25  H    0.147775
    26  H    0.154684
    27  H    0.136532
    28  H    0.157090
    29  H    0.163033
    30  H    0.152728
    31  H    0.147727
 Sum of Mulliken atomic charges =  -0.00000

 Dipole moment (field-independent basis, Debye):
    X=             -1.3213    Y=             -0.2526    Z=              1.1289  Tot=              1.7562
 Quadrupole moment (field-independent basis, Debye-Ang):
   XX=            -65.2503   YY=            -88.2768   ZZ=            -91.9765
   XY=              9.9174   XZ=              0.8539   YZ=             -3.7465

 Summary of Natural Population Analysis:

                                       Natural Population
                Natural  -----------------------------------------------
    Atom  No    Charge         Core      Valence    Rydberg      Total
 -----------------------------------------------------------------------
      C    1   -0.32577      1.99942     4.31226    0.01409     6.32577
      O    2   -0.42686      1.99975     6.41543    0.01168     8.42686
      C    3    0.33166      1.99879     3.64658    0.02297     5.66834
      C    4   -0.32775      1.99906     4.31164    0.01706     6.32775
      C    5   -0.32665      1.99904     4.30787    0.01974     6.32665
      C    6    0.35149      1.99870     3.62665    0.02316     5.64851
      C    7   -0.30357      1.99904     4.28569    0.01884     6.30357
      C    8   -0.32492      1.99907     4.30536    0.02050     6.32492
      O    9   -0.52360      1.99969     6.51269    0.01122     8.52360
      C   10    0.83573      1.99928     3.11608    0.04891     5.16427
      O   11   -0.57030      1.99977     6.55058    0.01994     8.57030
      C   12   -0.15085      1.99905     4.13941    0.01238     6.15085
      C   13   -0.67018      1.99938     4.66104    0.00976     6.67018
      C   14   -0.66982      1.99940     4.65934    0.01109     6.66982
      C   15   -0.66954      1.99938     4.66038    0.00978     6.66954
      H   16    0.23230      0.00000     0.76717    0.00053     0.76770
      H   17    0.21741      0.00000     0.78055    0.00203     0.78259
      H   18    0.21857      0.00000     0.77938    0.00205     0.78143
      H   19    0.23035      0.00000     0.76869    0.00096     0.76965
      H   20    0.24811      0.00000     0.75085    0.00103     0.75189
      H   21    0.24017      0.00000     0.75867    0.00116     0.75983
      H   22    0.23986      0.00000     0.75894    0.00120     0.76014
      H   23    0.23558      0.00000     0.76348    0.00094     0.76442
      H   24    0.24460      0.00000     0.75436    0.00104     0.75540
      H   25    0.23445      0.00000     0.76443    0.00113     0.76555
      H   26    0.24209      0.00000     0.75687    0.00104     0.75791
      H   27    0.22960      0.00000     0.76948    0.00092     0.77040
      H   28    0.24349      0.00000     0.75546    0.00105     0.75651
      H   29    0.24325      0.00000     0.75562    0.00113     0.75675
      H   30    0.23679      0.00000     0.76231    0.00091     0.76321
      H   31    0.23431      0.00000     0.76465    0.00104     0.76569
 =======================================================================
   * Total *   -0.00000     29.98880    81.72192    0.28927   112.00000

 Normal termination of Gaussian 09 at Wed Sep 29 00:19:30 2021.
