 Gaussian 09, Revision A.02,

 -----------------------------------
 #p opt b3lyp/6-31G* scf=(xqc,tight)
 -----------------------------------

 ------------------------------
 COc1ccc2c(c1)ccc(c2)C#N_conf_0
 ------------------------------
 Symbolic Z-matrix:
 Charge =  0 Multiplicity = 1

 SCF Done:  E(RB3LYP) =  -592.655991235     A.U. after   15 cycles
 SCF Done:  E(RB3LYP) =  -592.660355181     A.U. after   13 cycles
 SCF Done:  E(RB3LYP) =  -592.660918075     A.U. after   12 cycles
 SCF Done:  E(RB3LYP) =  -592.661080815     A.U. after   11 cycles
 SCF Done:  E(RB3LYP) =  -592.661151039     A.U. after   11 cycles
 SCF Done:  E(RB3LYP) =  -592.661169116     A.U. after   16 cycles
 SCF Done:  E(RB3LYP) =  -592.661172299     A.U. after   17 cycles
 Optimization completed.
    -- Stationary point found.
 Normal termination of Gaussian 09 at Tue Sep 28 23:50:18 2021.

 ----------------------------------------------------------------------
 #p freq b3lyp/6-31G* volume NMR pop=NPA density=current Geom=AllCheck
 Guess=Read
 ----------------------------------------------------------------------

 COc1ccc2c(c1)ccc(c2)C#N_conf_0
 ------------------------------
 Redundant internal coordinates taken from checkpoint file:
 C12H9NO_e727_conf_0.chk
 Charge =  0 Multiplicity = 1

 SCF Done:  E(RB3LYP) =  -592.661172299     A.U. after    1 cycles

  1  C    Isotropic =   137.0679   Anisotropy =    66.1681

  2  O    Isotropic =   227.5157   Anisotropy =    94.3703

  3  C    Isotropic =    38.0904   Anisotropy =   126.8572

  4  C    Isotropic =    74.8450   Anisotropy =   137.4226

  5  C    Isotropic =    65.4604   Anisotropy =   145.8104

  6  C    Isotropic =    68.5166   Anisotropy =   189.9378

  7  C    Isotropic =    60.6837   Anisotropy =   196.9165

  8  C    Isotropic =    89.6791   Anisotropy =   119.1591

  9  C    Isotropic =    68.7409   Anisotropy =   143.6243

 10  C    Isotropic =    67.2041   Anisotropy =   161.1405

 11  C    Isotropic =    86.1520   Anisotropy =   126.7139

 12  C    Isotropic =    61.1416   Anisotropy =   153.3558

 13  C    Isotropic =    81.5456   Anisotropy =   309.5688

 14  N    Isotropic =   -13.9076   Anisotropy =   387.7175

 15  H    Isotropic =    28.1319   Anisotropy =     8.1136

 16  H    Isotropic =    28.4972   Anisotropy =     7.9506

 17  H    Isotropic =    28.4959   Anisotropy =     7.9505

 18  H    Isotropic =    25.1313   Anisotropy =     6.2981

 19  H    Isotropic =    24.6208   Anisotropy =     6.8142

 20  H    Isotropic =    25.6272   Anisotropy =     9.2468

 21  H    Isotropic =    24.7484   Anisotropy =     7.4248

 22  H    Isotropic =    24.7772   Anisotropy =     6.1767

 23  H    Isotropic =    24.4208   Anisotropy =     8.0649

  Exact polarizability: 243.584  -5.184 128.702   0.001   0.004  49.947
 Approx polarizability: 393.880 -20.197 227.922   0.008   0.010  76.543

                     1                      2                      3
                     A                      A                      A
 Frequencies --    56.0757               108.6650               122.6455
 Red. masses --     5.4985                 4.0593                 8.2196
 Frc consts  --     0.0102                 0.0282                 0.0728
 IR Inten    --     0.3185                 6.6371                 3.6201

                     4                      5                      6
                     A                      A                      A
 Frequencies --   168.6539               193.1035               201.9883
 Red. masses --     3.8924                 3.8801                 3.7961
 Frc consts  --     0.0652                 0.0852                 0.0913
 IR Inten    --     0.6533                 1.0701                 2.8855

                     7                      8                      9
                     A                      A                      A
 Frequencies --   245.2368               325.3922               335.9859
 Red. masses --     1.2340                 4.7792                 5.6193
 Frc consts  --     0.0437                 0.2981                 0.3737
 IR Inten    --     0.4639                 2.8734                 2.4170

                    10                     11                     12
                     A                      A                      A
 Frequencies --   381.7380               410.2604               486.0871
 Red. masses --     6.2764                 3.4125                 3.0166
 Frc consts  --     0.5389                 0.3384                 0.4200
 IR Inten    --     3.7947                 0.2061                 9.3499

                    13                     14                     15
                     A                      A                      A
 Frequencies --   493.3302               493.6966               530.1122
 Red. masses --     4.9226                 5.0154                 5.8576
 Frc consts  --     0.7059                 0.7202                 0.9698
 IR Inten    --     0.2271                 0.2654                 0.7742

                    16                     17                     18
                     A                      A                      A
 Frequencies --   565.0720               579.9001               600.4316
 Red. masses --     6.4675                 6.7161                 3.2535
 Frc consts  --     1.2167                 1.3307                 0.6911
 IR Inten    --    14.9750                 3.3510                 2.4032

                    19                     20                     21
                     A                      A                      A
 Frequencies --   677.9293               680.5212               760.7225
 Red. masses --     4.0698                 6.9852                 6.4190
 Frc consts  --     1.1020                 1.9060                 2.1886
 IR Inten    --     3.4741                 0.0353                 1.3563

                    22                     23                     24
                     A                      A                      A
 Frequencies --   766.1817               822.7123               833.9384
 Red. masses --     3.1055                 1.3356                 1.5440
 Frc consts  --     1.0741                 0.5326                 0.6327
 IR Inten    --     0.2035                 4.7848                17.4838

                    25                     26                     27
                     A                      A                      A
 Frequencies --   846.1892               874.7020               919.2220
 Red. masses --     4.5086                 1.6458                 1.4601
 Frc consts  --     1.9021                 0.7419                 0.7269
 IR Inten    --     4.2754                41.7698                19.4133

                    28                     29                     30
                     A                      A                      A
 Frequencies --   954.8103               971.5606               972.9771
 Red. masses --     4.9489                 1.2946                 1.2929
 Frc consts  --     2.6583                 0.7200                 0.7212
 IR Inten    --    10.0216                 0.3711                 0.0848

                    31                     32                     33
                     A                      A                      A
 Frequencies --   984.6052              1070.8218              1152.1849
 Red. masses --     3.5442                 4.6854                 1.5812
 Frc consts  --     2.0244                 3.1654                 1.2367
 IR Inten    --     0.4125                50.5610                 9.4291

                    34                     35                     36
                     A                      A                      A
 Frequencies --  1184.5681              1184.7444              1193.0022
 Red. masses --     1.3925                 1.2721                 1.5315
 Frc consts  --     1.1512                 1.0520                 1.2842
 IR Inten    --     1.5933                 0.8016                28.8316

                    37                     38                     39
                     A                      A                      A
 Frequencies --  1211.2628              1233.7769              1275.3141
 Red. masses --     1.4867                 1.7927                 2.9643
 Frc consts  --     1.2851                 1.6078                 2.8406
 IR Inten    --    35.4085                41.1682               100.5190

                    40                     41                     42
                     A                      A                      A
 Frequencies --  1303.7329              1310.4194              1378.0436
 Red. masses --     1.8429                 2.4048                 1.9901
 Frc consts  --     1.8456                 2.4331                 2.2266
 IR Inten    --     7.2962               163.4967                 8.0114

                    43                     44                     45
                     A                      A                      A
 Frequencies --  1415.3660              1439.7084              1458.1099
 Red. masses --     4.7110                 3.7506                 4.8810
 Frc consts  --     5.5604                 4.5804                 6.1142
 IR Inten    --     6.9179                91.3348                11.2003

                    46                     47                     48
                     A                      A                      A
 Frequencies --  1494.9768              1520.0734              1531.2765
 Red. masses --     1.2756                 1.0476                 1.1564
 Frc consts  --     1.6797                 1.4262                 1.5975
 IR Inten    --    24.2919                 6.5513                80.3107

                    49                     50                     51
                     A                      A                      A
 Frequencies --  1535.6661              1551.7924              1621.6031
 Red. masses --     2.0945                 3.0268                 6.9532
 Frc consts  --     2.9102                 4.2944                10.7726
 IR Inten    --    20.0300                22.6327                 4.6886

                    52                     53                     54
                     A                      A                      A
 Frequencies --  1661.9968              1682.4908              2343.2554
 Red. masses --     5.5118                 5.9677                12.6804
 Frc consts  --     8.9703                 9.9532                41.0225
 IR Inten    --    26.8357               190.8587                68.5352

                    55                     56                     57
                     A                      A                      A
 Frequencies --  3031.9566              3093.4252              3165.5168
 Red. masses --     1.0344                 1.1070                 1.1004
 Frc consts  --     5.6025                 6.2412                 6.4964
 IR Inten    --    49.7165                38.0514                25.3250

                    58                     59                     60
                     A                      A                      A
 Frequencies --  3190.3025              3192.8828              3206.1318
 Red. masses --     1.0887                 1.0889                 1.0913
 Frc consts  --     6.5286                 6.5403                 6.6096
 IR Inten    --     7.5681                 5.7715                 4.7954

                    61                     62                     63
                     A                      A                      A
 Frequencies --  3220.1259              3221.6305              3221.8739
 Red. masses --     1.0937                 1.0903                 1.0941
 Frc consts  --     6.6819                 6.6672                 6.6915
 IR Inten    --     6.7031                12.2878                 6.0640

 - Thermochemistry -
 -------------------
 Temperature   298.150 Kelvin.  Pressure   1.00000 Atm.
 Atom     1 has atomic number  6 and mass  12.00000

 Molecular mass:   183.06841 amu.
 Principal axes and moments of inertia in atomic units:
                           1         2         3
     Eigenvalues --   781.226445189.401795959.09166
           X            0.99996   0.00904  -0.00001
           Y           -0.00904   0.99996  -0.00000
           Z            0.00001   0.00000   1.00000
 This molecule is an asymmetric top.
 Rotational symmetry number  1.
 Warning -- assumption of classical behavior for rotation
           may cause significant error
 Rotational temperatures (Kelvin)      0.11087     0.01669     0.01453
 Rotational constants (GHZ):           2.31014     0.34777     0.30286
 Zero-point vibrational energy     470506.1 (Joules/Mol)
                                  112.45366 (Kcal/Mol)
 Warning -- explicit consideration of  18 degrees of freedom as
           vibrations may cause significant error
 Vibrational temperatures:     80.68   156.34   176.46   242.66   277.83
          (Kelvin)            290.62   352.84   468.17   483.41   549.24
                              590.27   699.37   709.79   710.32   762.71
                              813.01   834.35   863.89   975.39   979.12
                             1094.51  1102.36  1183.70  1199.85  1217.48
                             1258.50  1322.55  1373.76  1397.86  1399.90
                             1416.63  1540.67  1657.73  1704.33  1704.58
                             1716.46  1742.73  1775.13  1834.89  1875.78
                             1885.40  1982.69  2036.39  2071.42  2097.89
                             2150.94  2187.04  2203.16  2209.48  2232.68
                             2333.12  2391.24  2420.73  3371.42  4362.30
                             4450.74  4554.47  4590.13  4593.84  4612.90
                             4633.04  4635.20  4635.55

 Zero-point correction=                           0.179206 (Hartree/Particle)
 Thermal correction to Energy=                    0.190432
 Thermal correction to Enthalpy=                  0.191376
 Thermal correction to Gibbs Free Energy=         0.141946
 Sum of electronic and zero-point Energies=           -592.481966
 Sum of electronic and thermal Energies=              -592.470740
 Sum of electronic and thermal Enthalpies=            -592.469796
 Sum of electronic and thermal Free Energies=         -592.519226

                     E (Thermal)             CV                S
                      KCal/Mol        Cal/Mol-Kelvin    Cal/Mol-Kelvin
 Total                  119.498             44.026            104.035
 Electronic               0.000              0.000              0.000
 Translational            0.889              2.981             41.521
 Rotational               0.889              2.981             31.558
 Vibrational            117.721             38.065             30.957
 Vibration     1          0.596              1.975              4.591
 Vibration     2          0.606              1.942              3.293
 Vibration     3          0.610              1.930              3.058
 Vibration     4          0.625              1.881              2.450
 Vibration     5          0.635              1.849              2.198
 Vibration     6          0.639              1.837              2.115
 Vibration     7          0.660              1.771              1.765
 Vibration     8          0.709              1.625              1.283
 Vibration     9          0.717              1.604              1.231
 Vibration    10          0.751              1.509              1.032
 Vibration    11          0.774              1.448              0.926
 Vibration    12          0.842              1.281              0.694
 Vibration    13          0.849              1.265              0.675
 Vibration    14          0.849              1.264              0.674
 Vibration    15          0.885              1.183              0.587
 Vibration    16          0.921              1.107              0.514
 Vibration    17          0.937              1.075              0.486
 Vibration    18          0.959              1.031              0.449

 Normal termination of Gaussian 09 at Wed Sep 29 00:38:19 2021.
 Gaussian 09:  AM64L-G09RevA.02 11-Jun-2009

 ----------------------------------------------------------------------
 #p TD(NStates=10, Root=1) b3lyp/6-31G* volume pop=NPA density=current
 Geom=AllCheck Guess=Read
 ----------------------------------------------------------------------

 COc1ccc2c(c1)ccc(c2)C#N_conf_0
 ------------------------------
 Redundant internal coordinates taken from checkpoint file:
 C12H9NO_e727_conf_0.chk
 Charge =  0 Multiplicity = 1

                         Standard orientation:
 ---------------------------------------------------------------------
 Center     Atomic      Atomic             Coordinates (Angstroms)
 Number     Number       Type             X           Y           Z
 ---------------------------------------------------------------------
      1          6           0       -4.364258   -1.010715    0.000578
      2          8           0       -3.748748    0.270062   -0.000247
      3          6           0       -2.391093    0.331559   -0.000035
      4          6           0       -1.861582    1.653851   -0.000163
      5          6           0       -0.507521    1.857417   -0.000068
      6          6           0        0.399714    0.758925   -0.000020
      7          6           0       -0.135366   -0.569687   -0.000218
      8          6           0       -1.542525   -0.759658   -0.000215
      9          6           0        0.770070   -1.666295   -0.000288
     10          6           0        2.129340   -1.468390   -0.000126
     11          6           0        2.659084   -0.146295    0.000092
     12          6           0        1.800172    0.943489    0.000148
     13          6           0        4.077892    0.051907    0.000203
     14          7           0        5.231645    0.205350    0.000189
     15          1           0       -5.439458   -0.825383    0.000531
     16          1           0       -4.092422   -1.584086    0.896155
     17          1           0       -4.092447   -1.585251   -0.894225
     18          1           0       -2.562952    2.482080   -0.000272
     19          1           0       -0.108362    2.868454   -0.000049
     20          1           0       -1.927093   -1.773430   -0.000537
     21          1           0        0.369765   -2.676934   -0.000434
     22          1           0        2.812663   -2.311411   -0.000149
     23          1           0        2.205214    1.951345    0.000302
 ---------------------------------------------------------------------

 SCF Done:  E(RB3LYP) =  -592.661172299     A.U. after    1 cycles

 Excitation energies and oscillator strengths:

 Excited State   1:      Singlet-A      4.1016 eV  302.28 nm  f=0.0790  <S**2>=0.000
      47 -> 49         0.21056
      47 -> 50         0.16058
      48 -> 49         0.57707
      48 -> 50        -0.30128
 This state for optimization and/or second-order correction.
 Total Energy, E(TD-HF/TD-KS) =  -592.510439838
 Copying the excited state density for this state as the 1-particle RhoCI density.

 Excited State   2:      Singlet-A      4.2482 eV  291.85 nm  f=0.0479  <S**2>=0.000
      47 -> 49         0.44586
      48 -> 49        -0.35543
      48 -> 50        -0.40303

 Excited State   3:      Singlet-A      5.2404 eV  236.59 nm  f=0.6764  <S**2>=0.000
      47 -> 49         0.44247
      47 -> 50         0.26716
      48 -> 50         0.45644

 Excited State   4:      Singlet-A      5.5340 eV  224.04 nm  f=0.2792  <S**2>=0.000
      46 -> 49        -0.36506
      46 -> 50         0.11388
      47 -> 49        -0.17052
      47 -> 50         0.46891
      48 -> 50        -0.11236
      48 -> 51        -0.26214

 Excited State   5:      Singlet-A      5.7567 eV  215.37 nm  f=0.5317  <S**2>=0.000
      45 -> 49        -0.18766
      46 -> 49         0.33819
      46 -> 50         0.12007
      47 -> 49        -0.13887
      47 -> 50         0.33270
      48 -> 49        -0.14504
      48 -> 50        -0.12482
      48 -> 51         0.39149

 Excited State   6:      Singlet-A      5.9902 eV  206.98 nm  f=0.0811  <S**2>=0.000
      45 -> 49         0.30679
      45 -> 50         0.15287
      46 -> 49         0.37627
      46 -> 50        -0.30034
      47 -> 50         0.21193
      47 -> 51        -0.12724
      48 -> 51        -0.26496

 Excited State   7:      Singlet-A      6.1513 eV  201.56 nm  f=0.0000  <S**2>=0.000
      44 -> 49         0.64309
      44 -> 50         0.21423
      48 -> 52         0.14602

 Excited State   8:      Singlet-A      6.2129 eV  199.56 nm  f=0.0079  <S**2>=0.000
      45 -> 49         0.23455
      46 -> 49         0.21614
      46 -> 50         0.40482
      47 -> 51         0.41782
      48 -> 51        -0.17057

 Excited State   9:      Singlet-A      6.3397 eV  195.57 nm  f=0.0000  <S**2>=0.000
      44 -> 49        -0.15508
      46 -> 52        -0.16719
      48 -> 52         0.66136

 Excited State  10:      Singlet-A      6.3548 eV  195.10 nm  f=0.0168  <S**2>=0.000
      45 -> 49         0.45196
      45 -> 50        -0.12225
      46 -> 49        -0.17914
      46 -> 50        -0.23799
      47 -> 51         0.22193
      48 -> 51         0.36372

 The electronic state is 1-A.
 Alpha  occ. eigenvalues --  -19.19635 -14.32828 -10.26736 -10.25463 -10.23320
 Alpha  occ. eigenvalues --  -10.22204 -10.21927 -10.21688 -10.21346 -10.21288
 Alpha  occ. eigenvalues --  -10.21020 -10.20729 -10.20526 -10.20204  -1.08256
 Alpha  occ. eigenvalues --   -0.90162  -0.88634  -0.84050  -0.79245  -0.77358
 Alpha  occ. eigenvalues --   -0.74117  -0.72182  -0.64512  -0.63955  -0.61505
 Alpha  occ. eigenvalues --   -0.56352  -0.54480  -0.52851  -0.48891  -0.48366
 Alpha  occ. eigenvalues --   -0.48061  -0.46453  -0.45122  -0.43795  -0.42346
 Alpha  occ. eigenvalues --   -0.41283  -0.39680  -0.38556  -0.38155  -0.36294
 Alpha  occ. eigenvalues --   -0.35042  -0.34758  -0.34225  -0.32343  -0.31137
 Alpha  occ. eigenvalues --   -0.29016  -0.24721  -0.22381
 Alpha virt. eigenvalues --   -0.05792  -0.03580   0.01664   0.04278   0.05641
 Alpha virt. eigenvalues --    0.08082   0.08999   0.10503   0.10973   0.13166
 Alpha virt. eigenvalues --    0.13465   0.14338   0.15475   0.16724   0.17043

 Mulliken atomic charges:
              1
     1  C   -0.233551
     2  O   -0.457399
     3  C    0.386885
     4  C   -0.190331
     5  C   -0.200720
     6  C    0.152318
     7  C    0.147981
     8  C   -0.260144
     9  C   -0.220787
    10  C   -0.156207
    11  C    0.147237
    12  C   -0.250661
    13  C    0.238780
    14  N   -0.481751
    15  H    0.188181
    16  H    0.174149
    17  H    0.174146
    18  H    0.139758
    19  H    0.139560
    20  H    0.146924
    21  H    0.125787
    22  H    0.144474
    23  H    0.145373
 Sum of Mulliken atomic charges =  -0.00000

 Dipole moment (field-independent basis, Debye):
    X=             -7.8607    Y=             -1.9125    Z=              0.0008  Tot=              8.0900
 Quadrupole moment (field-independent basis, Debye-Ang):
   XX=            -95.2410   YY=            -71.2191   ZZ=            -82.7555
   XY=              5.4846   XZ=             -0.0050   YZ=              0.0003

 Summary of Natural Population Analysis:

                                       Natural Population
                Natural  -----------------------------------------------
    Atom  No    Charge         Core      Valence    Rydberg      Total
 -----------------------------------------------------------------------
      C    1   -0.32783      1.99942     4.31426    0.01415     6.32783
      O    2   -0.44700      1.99975     6.43537    0.01189     8.44700
      C    3    0.37408      1.99882     3.60458    0.02251     5.62592
      C    4   -0.32211      1.99905     4.30631    0.01675     6.32211
      C    5   -0.21057      1.99907     4.19643    0.01507     6.21057
      C    6   -0.03456      1.99902     4.02051    0.01503     6.03456
      C    7   -0.03793      1.99904     4.02347    0.01543     6.03793
      C    8   -0.25926      1.99899     4.24766    0.01261     6.25926
      C    9   -0.24718      1.99906     4.23237    0.01575     6.24718
      C   10   -0.23110      1.99907     4.21682    0.01521     6.23110
      C   11   -0.12442      1.99885     4.11138    0.01419     6.12442
      C   12   -0.22913      1.99903     4.21484    0.01526     6.22913
      C   13    0.27944      1.99939     3.68738    0.03380     5.72056
      N   14   -0.30412      1.99965     5.28313    0.02133     7.30412
      H   15    0.23820      0.00000     0.76133    0.00047     0.76180
      H   16    0.21686      0.00000     0.78155    0.00159     0.78314
      H   17    0.21684      0.00000     0.78157    0.00159     0.78316
      H   18    0.24794      0.00000     0.75106    0.00101     0.75206
      H   19    0.23988      0.00000     0.75910    0.00102     0.76012
      H   20    0.23844      0.00000     0.76040    0.00116     0.76156
      H   21    0.23248      0.00000     0.76646    0.00107     0.76752
      H   22    0.24760      0.00000     0.75170    0.00070     0.75240
      H   23    0.24344      0.00000     0.75558    0.00098     0.75656
 =======================================================================
   * Total *    0.00000     27.98820    67.76324    0.24855    96.00000

 Normal termination of Gaussian 09 at Wed Sep 29 03:36:26 2021.
