 Gaussian 09, Revision A.02,

 -----------------------------------
 #p opt b3lyp/6-31G* scf=(xqc,tight)
 -----------------------------------

 -------------------------------------
 COc1nc(Oc2ccc(cc2)C#N)nc(n1)OC_conf_0
 -------------------------------------
 Symbolic Z-matrix:
 Charge =  0 Multiplicity = 1

 SCF Done:  E(RB3LYP) =  -907.953740623     A.U. after   15 cycles
 SCF Done:  E(RB3LYP) =  -907.963001174     A.U. after   16 cycles
 SCF Done:  E(RB3LYP) =  -907.966871951     A.U. after   15 cycles
 SCF Done:  E(RB3LYP) =  -907.967677961     A.U. after   13 cycles
 SCF Done:  E(RB3LYP) =  -907.967905119     A.U. after   16 cycles
 SCF Done:  E(RB3LYP) =  -907.968009563     A.U. after   12 cycles
 SCF Done:  E(RB3LYP) =  -907.968059716     A.U. after   11 cycles
 SCF Done:  E(RB3LYP) =  -907.968096234     A.U. after   11 cycles
 SCF Done:  E(RB3LYP) =  -907.968110643     A.U. after   11 cycles
 SCF Done:  E(RB3LYP) =  -907.968116609     A.U. after   11 cycles
 SCF Done:  E(RB3LYP) =  -907.968119374     A.U. after   11 cycles
 SCF Done:  E(RB3LYP) =  -907.968119596     A.U. after   11 cycles
 SCF Done:  E(RB3LYP) =  -907.968119863     A.U. after    8 cycles
 SCF Done:  E(RB3LYP) =  -907.968119948     A.U. after    8 cycles
 SCF Done:  E(RB3LYP) =  -907.968120197     A.U. after    8 cycles
 SCF Done:  E(RB3LYP) =  -907.968120357     A.U. after    7 cycles
 SCF Done:  E(RB3LYP) =  -907.968120412     A.U. after    6 cycles
 Optimization completed.
    -- Stationary point found.
 Normal termination of Gaussian 09 at Tue Sep 28 17:47:10 2021.

 ----------------------------------------------------------------------
 #p freq b3lyp/6-31G* volume NMR pop=NPA density=current Geom=AllCheck
 Guess=Read
 ----------------------------------------------------------------------

 COc1nc(Oc2ccc(cc2)C#N)nc(n1)OC_conf_0
 -------------------------------------
 Redundant internal coordinates taken from checkpoint file:
 C12H10N4O3_7d75_conf_0.chk
 Charge =  0 Multiplicity = 1

 SCF Done:  E(RB3LYP) =  -907.968120412     A.U. after    1 cycles

  1  C    Isotropic =   136.0333   Anisotropy =    64.9229

  2  O    Isotropic =   188.1229   Anisotropy =    94.1338

  3  C    Isotropic =    22.3827   Anisotropy =   101.0951

  4  N    Isotropic =    62.9154   Anisotropy =   282.7687

  5  C    Isotropic =    24.3611   Anisotropy =    90.7031

  6  O    Isotropic =   137.3990   Anisotropy =   106.6433

  7  C    Isotropic =    41.1511   Anisotropy =   117.2254

  8  C    Isotropic =    73.8910   Anisotropy =   146.8544

  9  C    Isotropic =    61.3514   Anisotropy =   169.7860

 10  C    Isotropic =    84.0106   Anisotropy =   134.2966

 11  C    Isotropic =    62.5042   Anisotropy =   167.6498

 12  C    Isotropic =    71.9147   Anisotropy =   153.9157

 13  C    Isotropic =    82.5782   Anisotropy =   309.4542

 14  N    Isotropic =   -16.5528   Anisotropy =   390.8308

 15  N    Isotropic =    68.8067   Anisotropy =   279.7084

 16  C    Isotropic =    23.7608   Anisotropy =    99.5450

 17  N    Isotropic =    53.3631   Anisotropy =   285.8304

 18  O    Isotropic =   188.9578   Anisotropy =    91.9801

 19  C    Isotropic =   136.4481   Anisotropy =    63.9132

 20  H    Isotropic =    28.4441   Anisotropy =     7.6350

 21  H    Isotropic =    28.2557   Anisotropy =     7.7974

 22  H    Isotropic =    28.2392   Anisotropy =     7.5264

 23  H    Isotropic =    25.1793   Anisotropy =     6.4138

 24  H    Isotropic =    24.6624   Anisotropy =     5.4633

 25  H    Isotropic =    24.7280   Anisotropy =     5.6613

 26  H    Isotropic =    25.1351   Anisotropy =     7.7807

 27  H    Isotropic =    28.6111   Anisotropy =     7.5068

 28  H    Isotropic =    28.6492   Anisotropy =     6.8289

 29  H    Isotropic =    28.7207   Anisotropy =     6.3412

  Exact polarizability: 243.864 -24.874 134.223   5.474  13.164 101.591
 Approx polarizability: 344.939 -37.872 210.554   9.050  28.779 169.292

                     1                      2                      3
                     A                      A                      A
 Frequencies --    16.9794                26.7746                47.2241
 Red. masses --     4.2910                 7.3460                 6.6952
 Frc consts  --     0.0007                 0.0031                 0.0088
 IR Inten    --     0.3972                 1.1544                 1.4339

                     4                      5                      6
                     A                      A                      A
 Frequencies --    83.2524               109.5480               136.5197
 Red. masses --     3.0673                 7.0228                 1.8405
 Frc consts  --     0.0125                 0.0497                 0.0202
 IR Inten    --     6.8444                 2.9975                 0.4036

                     7                      8                      9
                     A                      A                      A
 Frequencies --   141.8629               153.5986               158.9070
 Red. masses --     2.6651                 1.9475                 1.6554
 Frc consts  --     0.0316                 0.0271                 0.0246
 IR Inten    --     2.8250                 0.4390                 1.6575

                    10                     11                     12
                     A                      A                      A
 Frequencies --   175.6952               202.6727               206.0198
 Red. masses --     4.0467                 5.3216                 4.4901
 Frc consts  --     0.0736                 0.1288                 0.1123
 IR Inten    --     2.0238                 2.8376                 7.8895

                    13                     14                     15
                     A                      A                      A
 Frequencies --   216.8501               255.4569               272.4138
 Red. masses --     3.9218                 6.5586                 6.7998
 Frc consts  --     0.1087                 0.2522                 0.2973
 IR Inten    --     0.2166                 4.3538                 1.0953

                    16                     17                     18
                     A                      A                      A
 Frequencies --   337.0112               392.1973               407.9525
 Red. masses --     5.6085                 6.3635                 5.1318
 Frc consts  --     0.3753                 0.5767                 0.5032
 IR Inten    --     8.1393                 3.6808                 0.4862

                    19                     20                     21
                     A                      A                      A
 Frequencies --   419.1182               462.1543               508.8778
 Red. masses --     3.0806                 5.5366                 8.1314
 Frc consts  --     0.3188                 0.6967                 1.2406
 IR Inten    --     0.2278                 2.1919                 5.3620

                    22                     23                     24
                     A                      A                      A
 Frequencies --   557.1786               558.3317               565.1838
 Red. masses --     8.3516                 7.4936                 4.4519
 Frc consts  --     1.5276                 1.3763                 0.8379
 IR Inten    --     1.0757                 1.2758                13.7562

                    25                     26                     27
                     A                      A                      A
 Frequencies --   621.7854               646.4873               662.5707
 Red. masses --     5.5705                 6.1290                 7.1585
 Frc consts  --     1.2689                 1.5092                 1.8516
 IR Inten    --     7.8012                 3.7847                 1.5694

                    28                     29                     30
                     A                      A                      A
 Frequencies --   713.7204               733.5695               737.9966
 Red. masses --     5.6784                 8.6278                 6.8385
 Frc consts  --     1.7042                 2.7355                 2.1944
 IR Inten    --     3.2216                 2.9383                 3.2175

                    31                     32                     33
                     A                      A                      A
 Frequencies --   748.5159               767.9868               827.0412
 Red. masses --    12.0410                 5.1601                10.8144
 Frc consts  --     3.9748                 1.7931                 4.3582
 IR Inten    --     0.0178                 3.6995                41.7345

                    34                     35                     36
                     A                      A                      A
 Frequencies --   838.2362               856.9407               871.9082
 Red. masses --     1.2792                 2.9881                 2.7196
 Frc consts  --     0.5296                 1.2928                 1.2181
 IR Inten    --     0.3529                16.5121                30.9357

                    37                     38                     39
                     A                      A                      A
 Frequencies --   965.0581               968.0310               974.7576
 Red. masses --     1.3414                 1.4034                 5.0679
 Frc consts  --     0.7361                 0.7748                 2.8371
 IR Inten    --     0.2612                 1.1180                 7.3938

                    40                     41                     42
                     A                      A                      A
 Frequencies --   998.0776              1038.3583              1055.4835
 Red. masses --    13.5959                 2.8106                 8.1005
 Frc consts  --     7.9797                 1.7854                 5.3170
 IR Inten    --     0.1605                 5.4002                45.4505

                    43                     44                     45
                     A                      A                      A
 Frequencies --  1106.0096              1137.5613              1176.0308
 Red. masses --     4.9432                 1.3097                 4.2730
 Frc consts  --     3.5627                 0.9985                 3.4819
 IR Inten    --    57.5386                 4.9779               146.0464

                    46                     47                     48
                     A                      A                      A
 Frequencies --  1183.5893              1184.3223              1200.9962
 Red. masses --     1.2652                 1.2647                 1.1950
 Frc consts  --     1.0443                 1.0452                 1.0155
 IR Inten    --     0.9157                 0.3172                39.8653

                    49                     50                     51
                     A                      A                      A
 Frequencies --  1218.8074              1225.7351              1227.3278
 Red. masses --     1.8595                 2.0675                 2.3902
 Frc consts  --     1.6275                 1.8301                 2.1214
 IR Inten    --    58.1881                 6.9382                11.0924

                    52                     53                     54
                     A                      A                      A
 Frequencies --  1268.7902              1325.0600              1336.0731
 Red. masses --     5.0141                 8.1529                 1.5042
 Frc consts  --     4.7558                 8.4340                 1.5821
 IR Inten    --   605.0249                43.7266                 1.4568

                    55                     56                     57
                     A                      A                      A
 Frequencies --  1343.1309              1409.1240              1414.1738
 Red. masses --     5.3936                 3.2736                 6.8686
 Frc consts  --     5.7327                 3.8298                 8.0933
 IR Inten    --     9.6641               802.0826               787.1598

                    58                     59                     60
                     A                      A                      A
 Frequencies --  1454.0795              1466.2402              1513.1539
 Red. masses --     2.9095                 1.6193                 1.0483
 Frc consts  --     3.6245                 2.0511                 1.4142
 IR Inten    --    14.0939                 4.6866                 6.4364

                    61                     62                     63
                     A                      A                      A
 Frequencies --  1513.8513              1519.2726              1522.1697
 Red. masses --     1.0483                 1.0685                 1.0619
 Frc consts  --     1.4154                 1.4531                 1.4496
 IR Inten    --     8.2946                45.0843                 1.5684

                    64                     65                     66
                     A                      A                      A
 Frequencies --  1525.4088              1550.0536              1568.1786
 Red. masses --     1.5479                 2.5817                 3.8650
 Frc consts  --     2.1221                 3.6547                 5.6001
 IR Inten    --   129.3327               217.4103                 3.5769

                    67                     68                     69
                     A                      A                      A
 Frequencies --  1588.9049              1626.1200              1644.1276
 Red. masses --     7.4230                 7.1573                10.1252
 Frc consts  --    11.0414                11.1507                16.1259
 IR Inten    --   608.4524                83.3574               805.1950

                    70                     71                     72
                     A                      A                      A
 Frequencies --  1664.7461              2348.6696              3076.1687
 Red. masses --     5.9154                12.6806                 1.0297
 Frc consts  --     9.6589                41.2129                 5.7412
 IR Inten    --     1.5481                37.6219                33.9746

                    73                     74                     75
                     A                      A                      A
 Frequencies --  3077.5287              3151.8769              3154.4066
 Red. masses --     1.0294                 1.1077                 1.1078
 Frc consts  --     5.7444                 6.4835                 6.4948
 IR Inten    --    30.5310                19.9929                18.7571

                    76                     77                     78
                     A                      A                      A
 Frequencies --  3183.5444              3183.7164              3217.9678
 Red. masses --     1.1073                 1.1070                 1.0892
 Frc consts  --     6.6118                 6.6109                 6.6453
 IR Inten    --    19.9884                24.6387                 4.7262

                    79                     80                     81
                     A                      A                      A
 Frequencies --  3219.1660              3232.2985              3236.9291
 Red. masses --     1.0894                 1.0956                 1.0950
 Frc consts  --     6.6518                 6.7439                 6.7599
 IR Inten    --     1.0270                 1.9322                 3.0704

 - Thermochemistry -
 -------------------
 Temperature   298.150 Kelvin.  Pressure   1.00000 Atm.
 Atom     1 has atomic number  6 and mass  12.00000

 Molecular mass:   258.07529 amu.
 Principal axes and moments of inertia in atomic units:
                           1         2         3
     Eigenvalues --  2234.194059776.49661**********
           X            0.99992  -0.01235   0.00171
           Y            0.01234   0.99991   0.00458
           Z           -0.00177  -0.00456   0.99999
 This molecule is an asymmetric top.
 Rotational symmetry number  1.
 Warning -- assumption of classical behavior for rotation
           may cause significant error
 Rotational temperatures (Kelvin)      0.03877     0.00886     0.00756
 Rotational constants (GHZ):           0.80778     0.18460     0.15751
 Zero-point vibrational energy     564838.5 (Joules/Mol)
                                  134.99963 (Kcal/Mol)
 Warning -- explicit consideration of  24 degrees of freedom as
           vibrations may cause significant error
 Vibrational temperatures:     24.43    38.52    67.94   119.78   157.62
          (Kelvin)            196.42   204.11   220.99   228.63   252.79
                              291.60   296.42   312.00   367.54   391.94
                              484.88   564.28   586.95   603.02   664.94
                              732.16   801.65   803.31   813.17   894.61
                              930.15   953.29  1026.88  1055.44  1061.81
                             1076.95  1104.96  1189.93  1206.03  1232.95
                             1254.48  1388.50  1392.78  1402.46  1436.01
                             1493.96  1518.60  1591.30  1636.69  1692.04
                             1702.92  1703.97  1727.96  1753.59  1763.56
                             1765.85  1825.50  1906.46  1922.31  1932.46
                             2027.41  2034.68  2092.09  2109.59  2177.09
                             2178.09  2185.89  2190.06  2194.72  2230.18
                             2256.26  2286.08  2339.62  2365.53  2395.20
                             3379.21  4425.92  4427.87  4534.84  4538.48
                             4580.40  4580.65  4629.93  4631.66  4650.55
                             4657.21

 Zero-point correction=                           0.215136 (Hartree/Particle)
 Thermal correction to Energy=                    0.231816
 Thermal correction to Enthalpy=                  0.232760
 Thermal correction to Gibbs Free Energy=         0.168385
 Sum of electronic and zero-point Energies=           -907.752985
 Sum of electronic and thermal Energies=              -907.736305
 Sum of electronic and thermal Enthalpies=            -907.735361
 Sum of electronic and thermal Free Energies=         -907.799735

                     E (Thermal)             CV                S
                      KCal/Mol        Cal/Mol-Kelvin    Cal/Mol-Kelvin
 Total                  145.467             60.869            135.488
 Electronic               0.000              0.000              0.000
 Translational            0.889              2.981             42.544
 Rotational               0.889              2.981             33.881
 Vibrational            143.689             54.908             59.063
 Vibration     1          0.593              1.986              6.959
 Vibration     2          0.593              1.984              6.055
 Vibration     3          0.595              1.979              4.930
 Vibration     4          0.600              1.961              3.813
 Vibration     5          0.606              1.942              3.277
 Vibration     6          0.614              1.917              2.852
 Vibration     7          0.615              1.911              2.779
 Vibration     8          0.619              1.899              2.627
 Vibration     9          0.621              1.893              2.563
 Vibration    10          0.628              1.872              2.374
 Vibration    11          0.639              1.836              2.109
 Vibration    12          0.641              1.831              2.079
 Vibration    13          0.646              1.815              1.985
 Vibration    14          0.666              1.754              1.693
 Vibration    15          0.675              1.724              1.581
 Vibration    16          0.718              1.602              1.226
 Vibration    17          0.760              1.487              0.992
 Vibration    18          0.773              1.453              0.934
 Vibration    19          0.782              1.429              0.895
 Vibration    20          0.820              1.334              0.760
 Vibration    21          0.864              1.230              0.636
 Vibration    22          0.913              1.124              0.529
 Vibration    23          0.914              1.121              0.527
 Vibration    24          0.921              1.107              0.514

 Optimization completed.
    -- Stationary point found.
 Normal termination of Gaussian 09 at Tue Sep 28 19:42:18 2021.
 Gaussian 09:  AM64L-G09RevA.02 11-Jun-2009

 ----------------------------------------------------------------------
 #p TD(NStates=10, Root=1) b3lyp/6-31G* volume pop=NPA density=current
 Geom=AllCheck Guess=Read
 ----------------------------------------------------------------------

 COc1nc(Oc2ccc(cc2)C#N)nc(n1)OC_conf_0
 -------------------------------------
 Redundant internal coordinates taken from checkpoint file:
 C12H10N4O3_7d75_conf_0.chk
 Charge =  0 Multiplicity = 1

                         Standard orientation:
 ---------------------------------------------------------------------
 Center     Atomic      Atomic             Coordinates (Angstroms)
 Number     Number       Type             X           Y           Z
 ---------------------------------------------------------------------
      1          6           0        4.738561   -2.143240    0.206723
      2          8           0        4.554283   -0.721702    0.119761
      3          6           0        3.308959   -0.260617    0.043315
      4          7           0        2.293375   -1.136575    0.054799
      5          6           0        1.102128   -0.553741   -0.025968
      6          8           0        0.071246   -1.430951   -0.037048
      7          6           0       -1.245105   -0.989621   -0.003123
      8          6           0       -2.070214   -1.373303   -1.058357
      9          6           0       -3.422430   -1.047351   -1.023845
     10          6           0       -3.945391   -0.337524    0.069241
     11          6           0       -3.100019    0.034914    1.129628
     12          6           0       -1.750240   -0.293680    1.096373
     13          6           0       -5.337272    0.002954    0.107202
     14          7           0       -6.466455    0.281361    0.138082
     15          7           0        0.847960    0.747544   -0.111749
     16          6           0        1.959078    1.505018   -0.113675
     17          7           0        3.213675    1.068366   -0.037672
     18          8           0        1.832159    2.826909   -0.201038
     19          6           0        0.507664    3.371251   -0.299255
     20          1           0        5.818750   -2.282530    0.258447
     21          1           0        4.328148   -2.642819   -0.674470
     22          1           0        4.255788   -2.544000    1.101595
     23          1           0       -1.646059   -1.925202   -1.890327
     24          1           0       -4.076415   -1.338942   -1.838912
     25          1           0       -3.509107    0.575402    1.976859
     26          1           0       -1.091906   -0.016540    1.911649
     27          1           0        0.652412    4.449585   -0.370137
     28          1           0       -0.083168    3.122270    0.586171
     29          1           0       -0.004139    2.993489   -1.188042
 ---------------------------------------------------------------------

 SCF Done:  E(RB3LYP) =  -907.968120412     A.U. after    3 cycles

 Excitation energies and oscillator strengths:

 Excited State   1:      Singlet-A      5.0758 eV  244.27 nm  f=0.0253  <S**2>=0.000
      63 -> 68         0.15330
      64 -> 68        -0.24369
      65 -> 68         0.10584
      66 -> 68         0.36651
      67 -> 68        -0.18154
      67 -> 69         0.46385
 This state for optimization and/or second-order correction.
 Total Energy, E(TD-HF/TD-KS) =  -907.781589499
 Copying the excited state density for this state as the 1-particle RhoCI density.

 Excited State   2:      Singlet-A      5.1905 eV  238.87 nm  f=0.3626  <S**2>=0.000
      67 -> 68         0.62750
      67 -> 69         0.12721
      67 -> 70         0.16125

 Excited State   3:      Singlet-A      5.4220 eV  228.67 nm  f=0.0051  <S**2>=0.000
      64 -> 68         0.39903
      64 -> 70         0.26544
      66 -> 68         0.39074
      66 -> 70         0.28658

 Excited State   4:      Singlet-A      5.5207 eV  224.58 nm  f=0.0003  <S**2>=0.000
      62 -> 68        -0.31757
      62 -> 70        -0.24382
      64 -> 68         0.14135
      64 -> 70         0.11006
      65 -> 68         0.41573
      66 -> 71        -0.10298
      67 -> 70         0.26536

 Excited State   5:      Singlet-A      5.6220 eV  220.53 nm  f=0.0015  <S**2>=0.000
      63 -> 68         0.53662
      63 -> 70         0.18046
      64 -> 68         0.18114
      65 -> 71        -0.17978
      67 -> 71         0.25502

 Excited State   6:      Singlet-A      5.6448 eV  219.64 nm  f=0.0051  <S**2>=0.000
      63 -> 68         0.10718
      64 -> 69        -0.11636
      64 -> 71         0.32049
      65 -> 68         0.29915
      66 -> 68        -0.10843
      66 -> 69        -0.22947
      66 -> 70         0.10696
      66 -> 71         0.38318
      67 -> 71        -0.12708

 Excited State   7:      Singlet-A      5.7138 eV  216.99 nm  f=0.0740  <S**2>=0.000
      62 -> 68         0.41471
      62 -> 70         0.18420
      64 -> 69         0.10907
      64 -> 70        -0.11767
      65 -> 68         0.39897
      66 -> 68         0.12936
      66 -> 71        -0.15322
      67 -> 68         0.10183
      67 -> 69        -0.11709

 Excited State   8:      Singlet-A      5.7632 eV  215.13 nm  f=0.0072  <S**2>=0.000
      62 -> 68         0.17000
      62 -> 70        -0.11946
      64 -> 69        -0.12516
      64 -> 71         0.18940
      65 -> 68        -0.16556
      66 -> 68         0.16317
      66 -> 70        -0.10441
      66 -> 71         0.19298
      67 -> 68        -0.10839
      67 -> 69        -0.17416
      67 -> 70         0.48208

 Excited State   9:      Singlet-A      5.8283 eV  212.73 nm  f=0.0225  <S**2>=0.000
      62 -> 71        -0.17199
      63 -> 68        -0.22077
      63 -> 70         0.13218
      64 -> 68        -0.22933
      64 -> 70         0.16582
      64 -> 71         0.13315
      67 -> 69        -0.11935
      67 -> 70        -0.15499
      67 -> 71         0.46394

 Excited State  10:      Singlet-A      5.8896 eV  210.51 nm  f=0.0038  <S**2>=0.000
      62 -> 68         0.10854
      63 -> 68         0.14938
      63 -> 70        -0.12238
      64 -> 68        -0.27633
      64 -> 70         0.30277
      64 -> 71        -0.11475
      66 -> 68        -0.23890
      66 -> 70         0.38027
      66 -> 71        -0.11768
      67 -> 70         0.15580

 The electronic state is 1-A.
 Alpha  occ. eigenvalues --  -19.22448 -19.20646 -19.20450 -14.35134 -14.34730
 Alpha  occ. eigenvalues --  -14.33982 -14.33965 -10.34471 -10.33567 -10.33372
 Alpha  occ. eigenvalues --  -10.28433 -10.25162 -10.24864 -10.24780 -10.23311
 Alpha  occ. eigenvalues --  -10.23059 -10.23051 -10.22384 -10.22238  -1.13105
 Alpha  occ. eigenvalues --   -1.11193  -1.10368  -1.00959  -0.91604  -0.91051
 Alpha  occ. eigenvalues --   -0.90850  -0.88463  -0.79681  -0.78429  -0.75931
 Alpha  occ. eigenvalues --   -0.72915  -0.70961  -0.65243  -0.64484  -0.63457
 Alpha  occ. eigenvalues --   -0.59567  -0.58177  -0.57420  -0.53701  -0.51954
 Alpha  occ. eigenvalues --   -0.51711  -0.50301  -0.48524  -0.47857  -0.46016
 Alpha  occ. eigenvalues --   -0.45929  -0.45432  -0.44746  -0.43764  -0.42219
 Alpha  occ. eigenvalues --   -0.41301  -0.40326  -0.40072  -0.38389  -0.38036
 Alpha  occ. eigenvalues --   -0.36770  -0.36445  -0.36218  -0.34909  -0.33504
 Alpha  occ. eigenvalues --   -0.32235  -0.29636  -0.28905  -0.28561  -0.28302
 Alpha  occ. eigenvalues --   -0.28225  -0.26190
 Alpha virt. eigenvalues --   -0.05806  -0.03445  -0.02586  -0.02056   0.03186
 Alpha virt. eigenvalues --    0.06686   0.07173   0.10148   0.10919   0.11434
 Alpha virt. eigenvalues --    0.11989   0.12672   0.13005   0.13572   0.14142

 Mulliken atomic charges:
              1
     1  C   -0.213384
     2  O   -0.452471
     3  C    0.683184
     4  N   -0.517328
     5  C    0.664243
     6  O   -0.512180
     7  C    0.351757
     8  C   -0.175286
     9  C   -0.144741
    10  C    0.141557
    11  C   -0.167352
    12  C   -0.133970
    13  C    0.229002
    14  N   -0.476286
    15  N   -0.519191
    16  C    0.684361
    17  N   -0.479845
    18  O   -0.452662
    19  C   -0.213813
    20  H    0.174287
    21  H    0.175113
    22  H    0.174892
    23  H    0.160271
    24  H    0.171096
    25  H    0.164216
    26  H    0.163003
    27  H    0.177111
    28  H    0.169286
    29  H    0.175130
 Sum of Mulliken atomic charges =  -0.00000

 Dipole moment (field-independent basis, Debye):
    X=              2.9538    Y=             -1.1632    Z=             -0.1000  Tot=              3.1762
 Quadrupole moment (field-independent basis, Debye-Ang):
   XX=           -147.7857   YY=           -100.2429   ZZ=            -99.6353
   XY=             -8.7369   XZ=              2.9014   YZ=              2.3501

 Summary of Natural Population Analysis:

                                       Natural Population
                Natural  -----------------------------------------------
    Atom  No    Charge         Core      Valence    Rydberg      Total
 -----------------------------------------------------------------------
      C    1   -0.32166      1.99941     4.30856    0.01370     6.32166
      O    2   -0.49396      1.99972     6.48188    0.01236     8.49396
      C    3    0.76467      1.99921     3.19937    0.03675     5.23533
      N    4   -0.60376      1.99926     5.58343    0.02108     7.60376
      C    5    0.76147      1.99916     3.20385    0.03552     5.23853
      O    6   -0.47420      1.99967     6.46224    0.01229     8.47420
      C    7    0.28926      1.99875     3.68816    0.02382     5.71074
      C    8   -0.27556      1.99903     4.25810    0.01843     6.27556
      C    9   -0.15204      1.99909     4.13682    0.01613     6.15204
      C   10   -0.15795      1.99888     4.14416    0.01492     6.15795
      C   11   -0.21071      1.99909     4.19400    0.01761     6.21071
      C   12   -0.21585      1.99902     4.20019    0.01664     6.21585
      C   13    0.25570      1.99939     3.71070    0.03422     5.74430
      N   14   -0.30114      1.99966     5.27965    0.02183     7.30114
      N   15   -0.61608      1.99922     5.59781    0.01905     7.61608
      C   16    0.76503      1.99922     3.19972    0.03603     5.23497
      N   17   -0.54729      1.99926     5.52584    0.02219     7.54729
      O   18   -0.49453      1.99972     6.48259    0.01223     8.49453
      C   19   -0.32167      1.99941     4.30849    0.01377     6.32167
      H   20    0.22820      0.00000     0.77123    0.00057     0.77180
      H   21    0.22212      0.00000     0.77657    0.00131     0.77788
      H   22    0.22198      0.00000     0.77671    0.00131     0.77802
      H   23    0.25366      0.00000     0.74532    0.00102     0.74634
      H   24    0.25204      0.00000     0.74724    0.00072     0.74796
      H   25    0.25029      0.00000     0.74899    0.00072     0.74971
      H   26    0.25202      0.00000     0.74707    0.00091     0.74798
      H   27    0.23008      0.00000     0.76936    0.00056     0.76992
      H   28    0.21820      0.00000     0.78029    0.00151     0.78180
      H   29    0.22168      0.00000     0.77698    0.00134     0.77832
 =======================================================================
   * Total *   -0.00000     37.98614    95.60533    0.40853   134.00000

 Normal termination of Gaussian 09 at Wed Sep 29 00:40:07 2021.
