 Gaussian 09, Revision A.02,

 -----------------------------------
 #p opt b3lyp/6-31G* scf=(xqc,tight)
 -----------------------------------

 ----------------------------
 O=P(C1CCCCC1)C1CCCCC1_conf_0
 ----------------------------
 Symbolic Z-matrix:
 Charge =  0 Multiplicity = 1

 SCF Done:  E(RB3LYP) =  -887.615876168     A.U. after   18 cycles
 SCF Done:  E(RB3LYP) =  -887.671327427     A.U. after   15 cycles
 SCF Done:  E(RB3LYP) =  -887.725043548     A.U. after   15 cycles
 SCF Done:  E(RB3LYP) =  -887.744793222     A.U. after   14 cycles
 SCF Done:  E(RB3LYP) =  -887.746416268     A.U. after   12 cycles
 SCF Done:  E(RB3LYP) =  -887.746677427     A.U. after   11 cycles
 SCF Done:  E(RB3LYP) =  -887.746698990     A.U. after   11 cycles
 SCF Done:  E(RB3LYP) =  -887.746729534     A.U. after   11 cycles
 SCF Done:  E(RB3LYP) =  -887.746731315     A.U. after    8 cycles
 SCF Done:  E(RB3LYP) =  -887.746731457     A.U. after    7 cycles
 SCF Done:  E(RB3LYP) =  -887.746731512     A.U. after    6 cycles
 SCF Done:  E(RB3LYP) =  -887.746731536     A.U. after    6 cycles
 Optimization completed.
    -- Stationary point found.
 Normal termination of Gaussian 09 at Tue Oct  5 17:02:16 2021.

 ----------------------------------------------------------------------
 #p freq b3lyp/6-31G* volume NMR pop=NPA density=current Geom=AllCheck
 Guess=Read
 ----------------------------------------------------------------------

 O=P(C1CCCCC1)C1CCCCC1_conf_0
 ----------------------------
 Redundant internal coordinates taken from checkpoint file:
 C12H23OP_2eeb_conf_0.chk
 Charge =  0 Multiplicity = 1

 SCF Done:  E(RB3LYP) =  -887.746731536     A.U. after    1 cycles

  1  O    Isotropic =   277.6942   Anisotropy =    95.8752

  2  P    Isotropic =   331.4984   Anisotropy =   186.0059

  3  C    Isotropic =   149.1902   Anisotropy =    25.1954

  4  C    Isotropic =   159.7011   Anisotropy =     9.8924

  5  C    Isotropic =   161.6468   Anisotropy =     3.7189

  6  C    Isotropic =   162.8640   Anisotropy =     2.2881

  7  C    Isotropic =   162.5308   Anisotropy =     4.4337

  8  C    Isotropic =   163.0169   Anisotropy =     7.4453

  9  C    Isotropic =   145.3414   Anisotropy =    27.1591

 10  C    Isotropic =   164.7625   Anisotropy =     8.3121

 11  C    Isotropic =   162.3262   Anisotropy =     4.3985

 12  C    Isotropic =   163.0894   Anisotropy =     2.8629

 13  C    Isotropic =   162.2474   Anisotropy =     2.8430

 14  C    Isotropic =   162.2248   Anisotropy =     6.0046

 15  H    Isotropic =    25.6100   Anisotropy =     5.9376

 16  H    Isotropic =    30.8882   Anisotropy =     5.7166

 17  H    Isotropic =    30.7084   Anisotropy =     7.7687

 18  H    Isotropic =    30.4156   Anisotropy =     6.1733

 19  H    Isotropic =    30.8074   Anisotropy =     7.4103

 20  H    Isotropic =    30.4351   Anisotropy =     9.7120

 21  H    Isotropic =    30.5796   Anisotropy =     9.8608

 22  H    Isotropic =    30.7037   Anisotropy =     8.0390

 23  H    Isotropic =    30.8100   Anisotropy =     7.1627

 24  H    Isotropic =    30.4576   Anisotropy =     9.3602

 25  H    Isotropic =    30.5478   Anisotropy =     8.7359

 26  H    Isotropic =    30.2819   Anisotropy =     5.3091

 27  H    Isotropic =    30.9996   Anisotropy =     4.2865

 28  H    Isotropic =    30.5730   Anisotropy =     9.4168

 29  H    Isotropic =    30.4045   Anisotropy =     5.0287

 30  H    Isotropic =    30.8528   Anisotropy =     7.3317

 31  H    Isotropic =    30.4558   Anisotropy =     9.1552

 32  H    Isotropic =    30.5721   Anisotropy =     9.9418

 33  H    Isotropic =    30.7068   Anisotropy =     7.8979

 34  H    Isotropic =    30.8184   Anisotropy =     7.7009

 35  H    Isotropic =    30.4008   Anisotropy =     9.8115

 36  H    Isotropic =    30.6285   Anisotropy =     8.0431

 37  H    Isotropic =    30.2702   Anisotropy =     5.7205

  Exact polarizability: 176.416   0.620 134.899  -0.400   2.802 122.942
 Approx polarizability: 202.408   0.032 194.155   0.062  -2.277 206.002

                     1                      2                      3
                     A                      A                      A
 Frequencies --    28.3728                41.9791                61.6398
 Red. masses --     3.0031                 3.3905                 3.7960
 Frc consts  --     0.0014                 0.0035                 0.0085
 IR Inten    --     0.1303                 0.4608                 0.5644

                     4                      5                      6
                     A                      A                      A
 Frequencies --    96.8336               131.2357               182.2683
 Red. masses --     3.6064                 3.6530                 3.6264
 Frc consts  --     0.0199                 0.0371                 0.0710
 IR Inten    --     4.8021                 4.8747                 2.3264

                     7                      8                      9
                     A                      A                      A
 Frequencies --   201.7620               216.9085               231.9815
 Red. masses --     3.4195                 3.9600                 1.9204
 Frc consts  --     0.0820                 0.1098                 0.0609
 IR Inten    --     0.9134                 7.2660                 0.5129

                    10                     11                     12
                     A                      A                      A
 Frequencies --   237.7458               240.6335               328.9843
 Red. masses --     2.9499                 2.0742                 1.9734
 Frc consts  --     0.0982                 0.0708                 0.1258
 IR Inten    --     0.4693                 0.8687                 0.1860

                    13                     14                     15
                     A                      A                      A
 Frequencies --   346.7999               395.2617               432.9611
 Red. masses --     1.8100                 2.9983                 3.2506
 Frc consts  --     0.1283                 0.2760                 0.3590
 IR Inten    --     0.0136                12.2190                 4.3657

                    16                     17                     18
                     A                      A                      A
 Frequencies --   442.3492               446.5661               478.9785
 Red. masses --     2.9880                 2.9311                 2.2867
 Frc consts  --     0.3445                 0.3444                 0.3091
 IR Inten    --     0.0210                 0.5997                11.8821

                    19                     20                     21
                     A                      A                      A
 Frequencies --   492.5171               513.0997               533.1993
 Red. masses --     2.3098                 2.0665                 2.5100
 Frc consts  --     0.3301                 0.3205                 0.4204
 IR Inten    --     6.9281                 6.5032                24.6434

                    22                     23                     24
                     A                      A                      A
 Frequencies --   729.6512               737.5683               800.3755
 Red. masses --     2.4614                 2.5256                 1.4874
 Frc consts  --     0.7721                 0.8095                 0.5614
 IR Inten    --     1.2454                 2.1573                 0.1763

                    25                     26                     27
                     A                      A                      A
 Frequencies --   802.6381               824.2839               826.8649
 Red. masses --     1.4692                 3.0159                 2.8783
 Frc consts  --     0.5577                 1.2073                 1.1594
 IR Inten    --     0.5414                 3.1203                 9.3435

                    28                     29                     30
                     A                      A                      A
 Frequencies --   862.5213               864.6676               887.6337
 Red. masses --     1.6551                 1.6501                 2.1601
 Frc consts  --     0.7255                 0.7269                 1.0028
 IR Inten    --     4.2735                 8.5109                17.3446

                    31                     32                     33
                     A                      A                      A
 Frequencies --   899.5691               900.2116               907.4393
 Red. masses --     2.2113                 2.1565                 1.9126
 Frc consts  --     1.0543                 1.0296                 0.9279
 IR Inten    --     9.2944                13.0328                 4.3658

                    34                     35                     36
                     A                      A                      A
 Frequencies --   928.7604               936.3249               964.2701
 Red. masses --     1.2798                 1.5213                 1.3496
 Frc consts  --     0.6504                 0.7858                 0.7393
 IR Inten    --     8.9385                 4.5791               106.4341

                    37                     38                     39
                     A                      A                      A
 Frequencies --   996.8780              1019.4805              1035.3992
 Red. masses --     1.2487                 1.8653                 1.9926
 Frc consts  --     0.7311                 1.1422                 1.2586
 IR Inten    --    17.7191                 2.2008                 5.6956

                    40                     41                     42
                     A                      A                      A
 Frequencies --  1044.6702              1048.2962              1064.2717
 Red. masses --     1.8838                 1.8939                 1.5126
 Frc consts  --     1.2113                 1.2263                 1.0094
 IR Inten    --     1.3207                 1.3694                 4.5796

                    43                     44                     45
                     A                      A                      A
 Frequencies --  1066.9863              1099.3295              1100.8353
 Red. masses --     1.4400                 1.5103                 2.0841
 Frc consts  --     0.9659                 1.0754                 1.4881
 IR Inten    --    10.6267                 0.4581                 0.5196

                    46                     47                     48
                     A                      A                      A
 Frequencies --  1104.1196              1106.7459              1144.1566
 Red. masses --     1.6435                 1.3316                 2.0366
 Frc consts  --     1.1805                 0.9610                 1.5708
 IR Inten    --     8.5354                 7.7667                14.8616

                    49                     50                     51
                     A                      A                      A
 Frequencies --  1152.1345              1208.3440              1211.1979
 Red. masses --     2.1755                 1.4024                 1.4474
 Frc consts  --     1.7014                 1.2065                 1.2510
 IR Inten    --     5.2242                 9.7235                16.9462

                    52                     53                     54
                     A                      A                      A
 Frequencies --  1216.9437              1234.4875              1244.2545
 Red. masses --     4.0470                 1.5747                 1.4744
 Frc consts  --     3.5312                 1.4139                 1.3449
 IR Inten    --    89.0216                 6.0604                22.0968

                    55                     56                     57
                     A                      A                      A
 Frequencies --  1298.7742              1300.7938              1312.3374
 Red. masses --     1.3043                 1.3030                 1.2561
 Frc consts  --     1.2962                 1.2990                 1.2746
 IR Inten    --     0.7827                 2.6616                 0.0423

                    58                     59                     60
                     A                      A                      A
 Frequencies --  1313.6830              1313.9392              1320.7383
 Red. masses --     1.2478                 1.2586                 1.2502
 Frc consts  --     1.2687                 1.2802                 1.2849
 IR Inten    --     0.5310                 3.8688                 0.2012

                    61                     62                     63
                     A                      A                      A
 Frequencies --  1342.4424              1345.5668              1378.4261
 Red. masses --     1.2130                 1.2048                 1.3334
 Frc consts  --     1.2879                 1.2852                 1.4927
 IR Inten    --     0.7756                 0.9750                 0.8094

                    64                     65                     66
                     A                      A                      A
 Frequencies --  1379.9834              1389.5222              1390.2558
 Red. masses --     1.3418                 1.3502                 1.3401
 Frc consts  --     1.5055                 1.5360                 1.5261
 IR Inten    --     0.3832                 0.8625                 0.2888

                    67                     68                     69
                     A                      A                      A
 Frequencies --  1400.3443              1401.2275              1403.2212
 Red. masses --     1.4550                 1.4672                 1.4743
 Frc consts  --     1.6811                 1.6973                 1.7103
 IR Inten    --     3.0669                 0.1043                 0.0482

                    70                     71                     72
                     A                      A                      A
 Frequencies --  1404.0012              1409.0294              1412.4919
 Red. masses --     1.4616                 1.4251                 1.4180
 Frc consts  --     1.6975                 1.6670                 1.6669
 IR Inten    --     0.4063                10.5282                 1.6460

                    73                     74                     75
                     A                      A                      A
 Frequencies --  1513.0510              1513.1708              1515.4708
 Red. masses --     1.0866                 1.0865                 1.0896
 Frc consts  --     1.4656                 1.4658                 1.4744
 IR Inten    --     0.2393                 0.0148                 3.8659

                    76                     77                     78
                     A                      A                      A
 Frequencies --  1516.9680              1519.0335              1519.3539
 Red. masses --     1.0895                 1.0944                 1.0950
 Frc consts  --     1.4772                 1.4878                 1.4893
 IR Inten    --     2.9508                 2.1995                 2.5254

                    79                     80                     81
                     A                      A                      A
 Frequencies --  1523.1996              1524.1254              1536.9311
 Red. masses --     1.0846                 1.0862                 1.0978
 Frc consts  --     1.4826                 1.4867                 1.5278
 IR Inten    --    10.3384                 9.6633                 0.7949

                    82                     83                     84
                     A                      A                      A
 Frequencies --  1538.2080              2363.8272              2994.6775
 Red. masses --     1.0975                 1.0393                 1.0822
 Frc consts  --     1.5300                 3.4215                 5.7180
 IR Inten    --     0.8339               158.3918                 8.5224

                    85                     86                     87
                     A                      A                      A
 Frequencies --  3006.5050              3019.7845              3020.5479
 Red. masses --     1.0821                 1.0673                 1.0668
 Frc consts  --     5.7630                 5.7343                 5.7347
 IR Inten    --    13.0013                16.0777                20.3573

                    88                     89                     90
                     A                      A                      A
 Frequencies --  3021.5182              3022.1455              3029.0588
 Red. masses --     1.0702                 1.0703                 1.0615
 Frc consts  --     5.7564                 5.7596                 5.7382
 IR Inten    --    25.0031                32.6795                25.3916

                    91                     92                     93
                     A                      A                      A
 Frequencies --  3029.5530              3032.8528              3038.9203
 Red. masses --     1.0614                 1.0611                 1.0608
 Frc consts  --     5.7397                 5.7503                 5.7718
 IR Inten    --    31.3561                17.0019                21.2120

                    94                     95                     96
                     A                      A                      A
 Frequencies --  3043.0776              3058.2378              3070.9111
 Red. masses --     1.0617                 1.0663                 1.0956
 Frc consts  --     5.7929                 5.8758                 6.0873
 IR Inten    --    19.3866                 9.8976                36.8686

                    97                     98                     99
                     A                      A                      A
 Frequencies --  3071.5938              3072.9265              3073.4251
 Red. masses --     1.0940                 1.0922                 1.0933
 Frc consts  --     6.0812                 6.0764                 6.0849
 IR Inten    --    98.1495                82.9610                38.8212

                   100                    101                    102
                     A                      A                      A
 Frequencies --  3075.4352              3075.8853              3080.0360
 Red. masses --     1.1004                 1.1009                 1.1036
 Frc consts  --     6.1322                 6.1369                 6.1683
 IR Inten    --    13.7314                22.2991                66.8193

                   103                    104                    105
                     A                      A                      A
 Frequencies --  3083.0490              3087.9084              3100.6006
 Red. masses --     1.1036                 1.1041                 1.1031
 Frc consts  --     6.1803                 6.2028                 6.2485
 IR Inten    --    33.3511                62.8010                36.9233

 - Thermochemistry -
 -------------------
 Temperature   298.150 Kelvin.  Pressure   1.00000 Atm.
 Atom     1 has atomic number  8 and mass  15.99491

 Molecular mass:   214.14865 amu.
 Principal axes and moments of inertia in atomic units:
                           1         2         3
     Eigenvalues --  1369.525166199.349696750.94892
           X            1.00000  -0.00002  -0.00007
           Y            0.00002   0.99860   0.05287
           Z            0.00007  -0.05287   0.99860
 This molecule is an asymmetric top.
 Rotational symmetry number  1.
 Warning -- assumption of classical behavior for rotation
           may cause significant error
 Rotational temperatures (Kelvin)      0.06324     0.01397     0.01283
 Rotational constants (GHZ):           1.31779     0.29112     0.26733
 Zero-point vibrational energy     886804.6 (Joules/Mol)
                                  211.95139 (Kcal/Mol)
 Warning -- explicit consideration of  21 degrees of freedom as
           vibrations may cause significant error
 Vibrational temperatures:     40.82    60.40    88.69   139.32   188.82
          (Kelvin)            262.24   290.29   312.08   333.77   342.06
                              346.22   473.33   498.97   568.69   622.93
                              636.44   642.51   689.14   708.62   738.24
                              767.15  1049.80  1061.19  1151.56  1154.82
                             1185.96  1189.67  1240.97  1244.06  1277.11
                             1294.28  1295.20  1305.60  1336.28  1347.16
                             1387.37  1434.28  1466.80  1489.71  1503.05
                             1508.26  1531.25  1535.15  1581.69  1583.85
                             1588.58  1592.36  1646.18  1657.66  1738.54
                             1742.64  1750.91  1776.15  1790.20  1868.64
                             1871.55  1888.16  1890.09  1890.46  1900.25
                             1931.47  1935.97  1983.25  1985.49  1999.21
                             2000.27  2014.78  2016.05  2018.92  2020.04
                             2027.28  2032.26  2176.94  2177.11  2180.42
                             2182.58  2185.55  2186.01  2191.54  2192.87
                             2211.30  2213.14  3401.02  4308.67  4325.68
                             4344.79  4345.89  4347.29  4348.19  4358.13
                             4358.85  4363.59  4372.32  4378.30  4400.12
                             4418.35  4419.33  4421.25  4421.97  4424.86
                             4425.51  4431.48  4435.81  4442.81  4461.07

 Zero-point correction=                           0.337766 (Hartree/Particle)
 Thermal correction to Energy=                    0.352141
 Thermal correction to Enthalpy=                  0.353085
 Thermal correction to Gibbs Free Energy=         0.295645
 Sum of electronic and zero-point Energies=           -887.408965
 Sum of electronic and thermal Energies=              -887.394590
 Sum of electronic and thermal Enthalpies=            -887.393646
 Sum of electronic and thermal Free Energies=         -887.451087

                     E (Thermal)             CV                S
                      KCal/Mol        Cal/Mol-Kelvin    Cal/Mol-Kelvin
 Total                  220.972             56.706            120.894
 Electronic               0.000              0.000              0.000
 Translational            0.889              2.981             41.988
 Rotational               0.889              2.981             32.416
 Vibrational            219.195             50.745             46.490
 Vibration     1          0.593              1.984              5.940
 Vibration     2          0.595              1.980              5.163
 Vibration     3          0.597              1.973              4.404
 Vibration     4          0.603              1.951              3.517
 Vibration     5          0.612              1.922              2.928
 Vibration     6          0.630              1.864              2.305
 Vibration     7          0.639              1.837              2.117
 Vibration     8          0.646              1.815              1.985
 Vibration     9          0.653              1.792              1.864
 Vibration    10          0.656              1.783              1.820
 Vibration    11          0.658              1.778              1.798
 Vibration    12          0.712              1.618              1.265
 Vibration    13          0.725              1.582              1.181
 Vibration    14          0.762              1.480              0.980
 Vibration    15          0.794              1.398              0.849
 Vibration    16          0.802              1.378              0.819
 Vibration    17          0.806              1.368              0.806
 Vibration    18          0.835              1.297              0.713
 Vibration    19          0.848              1.267              0.677
 Vibration    20          0.868              1.221              0.626
 Vibration    21          0.888              1.177              0.580

 Optimization completed.
    -- Stationary point found.
 Normal termination of Gaussian 09 at Tue Oct  5 17:13:22 2021.
 Gaussian 09:  AM64L-G09RevA.02 11-Jun-2009

 ----------------------------------------------------------------------
 #p TD(NStates=10, Root=1) b3lyp/6-31G* volume pop=NPA density=current
 Geom=AllCheck Guess=Read
 ----------------------------------------------------------------------

 O=P(C1CCCCC1)C1CCCCC1_conf_0
 ----------------------------
 Redundant internal coordinates taken from checkpoint file:
 C12H23OP_2eeb_conf_0.chk
 Charge =  0 Multiplicity = 1

                         Standard orientation:
 ---------------------------------------------------------------------
 Center     Atomic      Atomic             Coordinates (Angstroms)
 Number     Number       Type             X           Y           Z
 ---------------------------------------------------------------------
      1          8           0       -0.033539   -1.394145    1.746905
      2         15           0       -0.011331   -1.081398    0.275450
      3          6           0        1.474133   -0.130783   -0.301103
      4          6           0        2.628058   -1.101978   -0.639372
      5          6           0        3.895718   -0.350684   -1.075356
      6          6           0        4.335347    0.675749   -0.021476
      7          6           0        3.194617    1.645071    0.317338
      8          6           0        1.923335    0.900743    0.757023
      9          6           0       -1.527324   -0.250226   -0.379991
     10          6           0       -1.748810    1.152621    0.223121
     11          6           0       -3.058841    1.786000   -0.274806
     12          6           0       -4.266566    0.874683   -0.016586
     13          6           0       -4.053658   -0.514304   -0.634381
     14          6           0       -2.751791   -1.160270   -0.133733
     15          1           0        0.039646   -2.227828   -0.572660
     16          1           0        1.183618    0.397839   -1.223227
     17          1           0        2.317101   -1.800262   -1.426883
     18          1           0        2.853785   -1.709736    0.248635
     19          1           0        3.700036    0.166217   -2.026794
     20          1           0        4.702188   -1.068860   -1.270897
     21          1           0        5.214066    1.229966   -0.374791
     22          1           0        4.644207    0.146651    0.891872
     23          1           0        2.968659    2.261381   -0.565872
     24          1           0        3.506540    2.338339    1.108731
     25          1           0        1.121787    1.620543    0.958830
     26          1           0        2.103510    0.372516    1.701598
     27          1           0       -1.372792   -0.152186   -1.467481
     28          1           0       -0.907251    1.811239   -0.023692
     29          1           0       -1.774339    1.067430    1.317800
     30          1           0       -2.977877    1.982903   -1.354316
     31          1           0       -3.204402    2.760050    0.209331
     32          1           0       -5.180017    1.332907   -0.416267
     33          1           0       -4.416120    0.769747    1.067892
     34          1           0       -4.016955   -0.422660   -1.730196
     35          1           0       -4.903097   -1.169668   -0.404082
     36          1           0       -2.600990   -2.132236   -0.621850
     37          1           0       -2.828330   -1.359888    0.943248
 ---------------------------------------------------------------------

 SCF Done:  E(RB3LYP) =  -887.746731536     A.U. after    1 cycles

 Excitation energies and oscillator strengths:

 Excited State   1:      Singlet-A      6.9822 eV  177.57 nm  f=0.0226  <S**2>=0.000
      59 -> 60         0.65844
      59 -> 61         0.23950
 This state for optimization and/or second-order correction.
 Total Energy, E(TD-HF/TD-KS) =  -887.490138805
 Copying the excited state density for this state as the 1-particle RhoCI density.

 Excited State   2:      Singlet-A      7.1238 eV  174.04 nm  f=0.0088  <S**2>=0.000
      58 -> 60         0.66211
      58 -> 61         0.23400

 Excited State   3:      Singlet-A      7.4767 eV  165.83 nm  f=0.0127  <S**2>=0.000
      59 -> 60        -0.22851
      59 -> 61         0.61592
      59 -> 63         0.11481
      59 -> 64        -0.20329

 Excited State   4:      Singlet-A      7.8436 eV  158.07 nm  f=0.0095  <S**2>=0.000
      58 -> 60        -0.17981
      58 -> 61         0.55733
      59 -> 62        -0.29131
      59 -> 63         0.10913

 Excited State   5:      Singlet-A      7.9800 eV  155.37 nm  f=0.0038  <S**2>=0.000
      58 -> 61        -0.19936
      58 -> 62        -0.32258
      58 -> 66         0.11739
      59 -> 61        -0.19060
      59 -> 63         0.42704
      59 -> 64        -0.28619

 Excited State   6:      Singlet-A      8.1359 eV  152.39 nm  f=0.0545  <S**2>=0.000
      58 -> 61         0.11663
      58 -> 62         0.40818
      58 -> 63        -0.23200
      58 -> 65         0.11819
      58 -> 66        -0.10769
      59 -> 62         0.22982
      59 -> 63         0.33756
      59 -> 64        -0.19978

 Excited State   7:      Singlet-A      8.1758 eV  151.65 nm  f=0.0066  <S**2>=0.000
      58 -> 60        -0.10231
      58 -> 61         0.24010
      58 -> 62        -0.35095
      58 -> 63        -0.20490
      58 -> 64         0.12317
      58 -> 65        -0.10871
      58 -> 66         0.12720
      59 -> 62         0.42613
      59 -> 64         0.14987

 Excited State   8:      Singlet-A      8.2872 eV  149.61 nm  f=0.1094  <S**2>=0.000
      58 -> 63         0.13554
      59 -> 63         0.39985
      59 -> 64         0.53045

 Excited State   9:      Singlet-A      8.4427 eV  146.85 nm  f=0.0091  <S**2>=0.000
      58 -> 63         0.57654
      58 -> 64         0.11624
      59 -> 62         0.32267

 Excited State  10:      Singlet-A      8.6538 eV  143.27 nm  f=0.0291  <S**2>=0.000
      58 -> 64         0.60619
      59 -> 62        -0.21572
      59 -> 65         0.18533
      59 -> 66        -0.10892

 The electronic state is 1-A.
 Alpha  occ. eigenvalues --  -77.14050 -19.08187 -10.19859 -10.19851 -10.19009
 Alpha  occ. eigenvalues --  -10.18917 -10.18680 -10.18439 -10.18434 -10.18422
 Alpha  occ. eigenvalues --  -10.18332 -10.18221 -10.18128 -10.18092  -6.60110
 Alpha  occ. eigenvalues --   -4.76373  -4.76280  -4.76268  -0.93904  -0.83550
 Alpha  occ. eigenvalues --   -0.83173  -0.75822  -0.74480  -0.74420  -0.74153
 Alpha  occ. eigenvalues --   -0.64398  -0.61626  -0.61111  -0.60603  -0.56470
 Alpha  occ. eigenvalues --   -0.55313  -0.54283  -0.47728  -0.47580  -0.44940
 Alpha  occ. eigenvalues --   -0.44590  -0.44496  -0.43982  -0.43824  -0.43535
 Alpha  occ. eigenvalues --   -0.40157  -0.38416  -0.38287  -0.37963  -0.37106
 Alpha  occ. eigenvalues --   -0.36595  -0.36166  -0.35022  -0.34611  -0.34538
 Alpha  occ. eigenvalues --   -0.34101  -0.32092  -0.32021  -0.31589  -0.30689
 Alpha  occ. eigenvalues --   -0.30473  -0.29884  -0.25309  -0.24497
 Alpha virt. eigenvalues --    0.05862   0.06742   0.08313   0.08685   0.09299
 Alpha virt. eigenvalues --    0.10916   0.11199   0.11969   0.13049   0.13208
 Alpha virt. eigenvalues --    0.13629   0.14785   0.15418   0.16035   0.16164

 Mulliken atomic charges:
              1
     1  O   -0.230022
     2  P    0.298043
     3  C   -0.256654
     4  C   -0.269838
     5  C   -0.263660
     6  C   -0.254841
     7  C   -0.271082
     8  C   -0.248031
     9  C   -0.235742
    10  C   -0.265817
    11  C   -0.271141
    12  C   -0.255139
    13  C   -0.268618
    14  C   -0.269670
    15  H   -0.020072
    16  H    0.145761
    17  H    0.142820
    18  H    0.149810
    19  H    0.131664
    20  H    0.139078
    21  H    0.133719
    22  H    0.134886
    23  H    0.126843
    24  H    0.138025
    25  H    0.133282
    26  H    0.147065
    27  H    0.164130
    28  H    0.137647
    29  H    0.141480
    30  H    0.130186
    31  H    0.139718
    32  H    0.135320
    33  H    0.136425
    34  H    0.131903
    35  H    0.141686
    36  H    0.145749
    37  H    0.155085
 Sum of Mulliken atomic charges =  -0.00000

 Dipole moment (field-independent basis, Debye):
    X=             -0.3372    Y=              1.6843    Z=             -2.6121  Tot=              3.1263
 Quadrupole moment (field-independent basis, Debye-Ang):
   XX=            -87.8538   YY=            -98.9848   ZZ=           -101.2551
   XY=             -0.0302   XZ=              0.1309   YZ=              4.1033

 Summary of Natural Population Analysis:

                                       Natural Population
                Natural  -----------------------------------------------
    Atom  No    Charge         Core      Valence    Rydberg      Total
 -----------------------------------------------------------------------
      O    1   -0.73218      1.99991     6.69502    0.03725     8.73218
      P    2    1.25041      9.99817     3.56037    0.19106    13.74959
      C    3   -0.54438      1.99920     4.51750    0.02768     6.54438
      C    4   -0.46120      1.99929     4.44607    0.01584     6.46120
      C    5   -0.45343      1.99932     4.44152    0.01260     6.45343
      C    6   -0.45972      1.99932     4.44880    0.01159     6.45972
      C    7   -0.46066      1.99932     4.44826    0.01308     6.46066
      C    8   -0.47594      1.99929     4.45898    0.01767     6.47594
      C    9   -0.52776      1.99920     4.50542    0.02313     6.52776
      C   10   -0.47451      1.99928     4.45672    0.01850     6.47451
      C   11   -0.45762      1.99932     4.44474    0.01356     6.45762
      C   12   -0.46005      1.99933     4.44912    0.01161     6.46005
      C   13   -0.45772      1.99932     4.44542    0.01298     6.45772
      C   14   -0.46773      1.99929     4.45149    0.01695     6.46773
      H   15   -0.03663      0.00000     1.03449    0.00214     1.03663
      H   16    0.24005      0.00000     0.75148    0.00847     0.75995
      H   17    0.24453      0.00000     0.75325    0.00222     0.75547
      H   18    0.23282      0.00000     0.76056    0.00662     0.76718
      H   19    0.22626      0.00000     0.77188    0.00186     0.77374
      H   20    0.24362      0.00000     0.75479    0.00158     0.75638
      H   21    0.24052      0.00000     0.75835    0.00113     0.75948
      H   22    0.22821      0.00000     0.76999    0.00180     0.77179
      H   23    0.22367      0.00000     0.77377    0.00256     0.77633
      H   24    0.24371      0.00000     0.75506    0.00124     0.75629
      H   25    0.23642      0.00000     0.75863    0.00496     0.76358
      H   26    0.23788      0.00000     0.75758    0.00454     0.76212
      H   27    0.25615      0.00000     0.73881    0.00505     0.74385
      H   28    0.23567      0.00000     0.76061    0.00371     0.76433
      H   29    0.23192      0.00000     0.75943    0.00865     0.76808
      H   30    0.22556      0.00000     0.77208    0.00235     0.77444
      H   31    0.24420      0.00000     0.75432    0.00148     0.75580
      H   32    0.24136      0.00000     0.75752    0.00112     0.75864
      H   33    0.22901      0.00000     0.76914    0.00184     0.77099
      H   34    0.22663      0.00000     0.77135    0.00202     0.77337
      H   35    0.24567      0.00000     0.75296    0.00137     0.75433
      H   36    0.24631      0.00000     0.75218    0.00151     0.75369
      H   37    0.23895      0.00000     0.75610    0.00494     0.76105
 =======================================================================
   * Total *    0.00000     35.98957    81.51377    0.49666   118.00000

 Normal termination of Gaussian 09 at Tue Oct  5 17:36:42 2021.
