 Gaussian 09, Revision A.02,

 -----------------------------------
 #p opt b3lyp/6-31G* scf=(xqc,tight)
 -----------------------------------

 -------------------------------------
 COc1nc(Oc2ccc(cc2)C=O)nc(n1)OC_conf_0
 -------------------------------------
 Symbolic Z-matrix:
 Charge =  0 Multiplicity = 1

 SCF Done:  E(RB3LYP) =  -929.031830705     A.U. after   15 cycles
 SCF Done:  E(RB3LYP) =  -929.041813714     A.U. after   15 cycles
 SCF Done:  E(RB3LYP) =  -929.046836007     A.U. after   14 cycles
 SCF Done:  E(RB3LYP) =  -929.048311785     A.U. after   16 cycles
 SCF Done:  E(RB3LYP) =  -929.048610070     A.U. after   13 cycles
 SCF Done:  E(RB3LYP) =  -929.048304863     A.U. after   13 cycles
 SCF Done:  E(RB3LYP) =  -929.049029209     A.U. after   12 cycles
 SCF Done:  E(RB3LYP) =  -929.049467629     A.U. after   11 cycles
 SCF Done:  E(RB3LYP) =  -929.049642604     A.U. after   12 cycles
 SCF Done:  E(RB3LYP) =  -929.049737749     A.U. after   12 cycles
 SCF Done:  E(RB3LYP) =  -929.049777464     A.U. after   12 cycles
 SCF Done:  E(RB3LYP) =  -929.049808059     A.U. after   12 cycles
 SCF Done:  E(RB3LYP) =  -929.049829002     A.U. after   12 cycles
 SCF Done:  E(RB3LYP) =  -929.049839455     A.U. after   12 cycles
 SCF Done:  E(RB3LYP) =  -929.049844167     A.U. after   10 cycles
 SCF Done:  E(RB3LYP) =  -929.049845332     A.U. after    9 cycles
 SCF Done:  E(RB3LYP) =  -929.049845396     A.U. after    8 cycles
 Optimization completed.
    -- Stationary point found.
 Normal termination of Gaussian 09 at Tue Sep 28 18:50:20 2021.

 ----------------------------------------------------------------------
 #p freq b3lyp/6-31G* volume NMR pop=NPA density=current Geom=AllCheck
 Guess=Read
 ----------------------------------------------------------------------

 COc1nc(Oc2ccc(cc2)C=O)nc(n1)OC_conf_0
 -------------------------------------
 Redundant internal coordinates taken from checkpoint file:
 C12H11N3O4_8e61_conf_0.chk
 Charge =  0 Multiplicity = 1

 SCF Done:  E(RB3LYP) =  -929.049845396     A.U. after    1 cycles

  1  C    Isotropic =   136.5334   Anisotropy =    65.1031

  2  O    Isotropic =   190.3893   Anisotropy =    91.0367

  3  C    Isotropic =    24.1471   Anisotropy =    99.2699

  4  N    Isotropic =    63.7014   Anisotropy =   277.9839

  5  C    Isotropic =    23.7042   Anisotropy =    91.4319

  6  O    Isotropic =   134.2938   Anisotropy =   114.0926

  7  C    Isotropic =    39.6709   Anisotropy =   114.2696

  8  C    Isotropic =    71.8768   Anisotropy =   153.3112

  9  C    Isotropic =    67.4398   Anisotropy =   177.4765

 10  C    Isotropic =    63.9243   Anisotropy =   164.7304

 11  C    Isotropic =    61.1156   Anisotropy =   172.7569

 12  C    Isotropic =    74.9946   Anisotropy =   142.0268

 13  C    Isotropic =    10.4156   Anisotropy =   121.5207

 14  O    Isotropic =  -268.8142   Anisotropy =   974.1459

 15  N    Isotropic =    55.5375   Anisotropy =   280.9797

 16  C    Isotropic =    23.0155   Anisotropy =   101.1361

 17  N    Isotropic =    66.4802   Anisotropy =   288.9599

 18  O    Isotropic =   189.4766   Anisotropy =    91.4978

 19  C    Isotropic =   136.4582   Anisotropy =    64.3140

 20  H    Isotropic =    28.4714   Anisotropy =     7.7823

 21  H    Isotropic =    28.2891   Anisotropy =     7.8011

 22  H    Isotropic =    28.3283   Anisotropy =     7.9539

 23  H    Isotropic =    24.9656   Anisotropy =     8.6533

 24  H    Isotropic =    24.1029   Anisotropy =     6.1163

 25  H    Isotropic =    24.7448   Anisotropy =     4.0489

 26  H    Isotropic =    25.1754   Anisotropy =     6.6550

 27  H    Isotropic =    22.3149   Anisotropy =     3.4433

 28  H    Isotropic =    28.3970   Anisotropy =     7.6132

 29  H    Isotropic =    28.2815   Anisotropy =     7.5841

 30  H    Isotropic =    28.2588   Anisotropy =     7.5935

  Exact polarizability: 248.447 -13.922 139.546  -9.780 -17.308  98.756
 Approx polarizability: 322.559 -37.800 238.451 -13.135 -37.703 164.905

                     1                      2                      3
                     A                      A                      A
 Frequencies --    20.5853                26.7301                46.4239
 Red. masses --     4.3072                 5.9438                 6.9073
 Frc consts  --     0.0011                 0.0025                 0.0088
 IR Inten    --     1.0997                 0.5036                 1.3720

                     4                      5                      6
                     A                      A                      A
 Frequencies --    99.4291               111.7250               115.1111
 Red. masses --     3.4791                 4.4764                 5.7354
 Frc consts  --     0.0203                 0.0329                 0.0448
 IR Inten    --     0.7330                 7.0942                 3.2849

                     7                      8                      9
                     A                      A                      A
 Frequencies --   150.6608               163.8743               175.2247
 Red. masses --     1.2430                 1.1155                 3.2166
 Frc consts  --     0.0166                 0.0176                 0.0582
 IR Inten    --     0.0347                 0.0441                 0.5765

                    10                     11                     12
                     A                      A                      A
 Frequencies --   182.5110               190.2495               215.4300
 Red. masses --     5.1027                 4.1811                 5.0456
 Frc consts  --     0.1001                 0.0892                 0.1380
 IR Inten    --     1.5755                 4.8588                 3.5828

                    13                     14                     15
                     A                      A                      A
 Frequencies --   232.4418               236.7361               248.8672
 Red. masses --     6.5439                 5.3019                 5.3566
 Frc consts  --     0.2083                 0.1751                 0.1955
 IR Inten    --     1.4325                 5.1486                11.5764

                    16                     17                     18
                     A                      A                      A
 Frequencies --   294.8309               320.1125               384.3236
 Red. masses --     3.8922                 3.6705                 6.0332
 Frc consts  --     0.1993                 0.2216                 0.5250
 IR Inten    --     7.2339                 2.2651                 3.4613

                    19                     20                     21
                     A                      A                      A
 Frequencies --   428.8964               458.4408               486.5787
 Red. masses --     3.0447                 6.1282                 4.6038
 Frc consts  --     0.3300                 0.7588                 0.6422
 IR Inten    --     0.5410                 0.5809                16.9480

                    22                     23                     24
                     A                      A                      A
 Frequencies --   524.3546               544.5082               604.5042
 Red. masses --     3.9472                 7.7319                 6.6805
 Frc consts  --     0.6394                 1.3507                 1.4383
 IR Inten    --     5.7892                 7.9668                 1.8634

                    25                     26                     27
                     A                      A                      A
 Frequencies --   627.5656               640.5497               682.0222
 Red. masses --     7.1806                 6.6609                 6.9995
 Frc consts  --     1.6662                 1.6102                 1.9183
 IR Inten    --    11.9686                 0.7907                 2.5647

                    28                     29                     30
                     A                      A                      A
 Frequencies --   714.9658               733.0060               748.9771
 Red. masses --     4.9329                10.2012                 4.8289
 Frc consts  --     1.4857                 3.2294                 1.5960
 IR Inten    --     0.4389                 5.0084                 4.7856

                    31                     32                     33
                     A                      A                      A
 Frequencies --   750.5374               816.2237               828.1357
 Red. masses --    11.7411                 4.0975                11.3534
 Frc consts  --     3.8968                 1.6084                 4.5875
 IR Inten    --     0.0594                24.4558                48.5149

                    34                     35                     36
                     A                      A                      A
 Frequencies --   841.6176               856.5779               875.8621
 Red. masses --     1.2543                 1.9541                 5.1499
 Frc consts  --     0.5234                 0.8448                 2.3276
 IR Inten    --     1.2793                53.0164                35.8630

                    37                     38                     39
                     A                      A                      A
 Frequencies --   959.4920               981.9266               997.9942
 Red. masses --     1.3049                 1.3220                13.2824
 Frc consts  --     0.7078                 0.7510                 7.7944
 IR Inten    --     0.1090                 0.3549                 0.7120

                    40                     41                     42
                     A                      A                      A
 Frequencies --  1005.4653              1012.6649              1033.5637
 Red. masses --     6.8440                 9.0634                 1.8050
 Frc consts  --     4.0765                 5.4761                 1.1360
 IR Inten    --     3.8746                14.8636                 0.2852

                    43                     44                     45
                     A                      A                      A
 Frequencies --  1035.0790              1133.4690              1143.4345
 Red. masses --     2.5175                 1.3214                 3.6392
 Frc consts  --     1.5892                 1.0003                 2.8033
 IR Inten    --     5.5838                 4.9121                47.7901

                    46                     47                     48
                     A                      A                      A
 Frequencies --  1157.6428              1184.4010              1184.9683
 Red. masses --     6.5319                 1.2647                 1.2645
 Frc consts  --     5.1575                 1.0453                 1.0461
 IR Inten    --   197.7703                 0.0416                 1.2309

                    49                     50                     51
                     A                      A                      A
 Frequencies --  1189.3427              1212.2374              1235.8230
 Red. masses --     1.2292                 1.4177                 2.6491
 Frc consts  --     1.0244                 1.2274                 2.3837
 IR Inten    --   141.0090                28.2606                25.1610

                    52                     53                     54
                     A                      A                      A
 Frequencies --  1237.4907              1262.2522              1322.0658
 Red. masses --     2.0727                 5.7805                 7.0732
 Frc consts  --     1.8701                 5.4264                 7.2840
 IR Inten    --    57.1710               750.4476                56.9307

                    55                     56                     57
                     A                      A                      A
 Frequencies --  1331.6412              1363.1365              1398.5394
 Red. masses --     1.3787                 8.7375                 5.9983
 Frc consts  --     1.4404                 9.5657                 6.9124
 IR Inten    --    34.4087                12.2191              1246.7604

                    58                     59                     60
                     A                      A                      A
 Frequencies --  1420.3280              1435.5957              1466.9550
 Red. masses --     2.8239                 1.6104                 1.9525
 Frc consts  --     3.3565                 1.9555                 2.4755
 IR Inten    --   440.5097                 5.1216                11.5506

                    61                     62                     63
                     A                      A                      A
 Frequencies --  1473.9745              1512.3667              1514.7984
 Red. masses --     1.8897                 1.0487                 1.0493
 Frc consts  --     2.4190                 1.4133                 1.4186
 IR Inten    --    50.7026                 0.1283                13.9837

                    64                     65                     66
                     A                      A                      A
 Frequencies --  1518.3221              1522.4556              1524.3288
 Red. masses --     1.2132                 1.0842                 1.4048
 Frc consts  --     1.6478                 1.4806                 1.9231
 IR Inten    --    70.7707                51.9948                 1.3484

                    67                     68                     69
                     A                      A                      A
 Frequencies --  1549.8320              1564.7636              1608.8233
 Red. masses --     2.5609                 3.1585                 8.8677
 Frc consts  --     3.6242                 4.5565                13.5231
 IR Inten    --    73.4577                18.0467               590.5428

                    70                     71                     72
                     A                      A                      A
 Frequencies --  1620.1301              1639.4973              1663.6306
 Red. masses --     9.3894                 7.2023                 6.0679
 Frc consts  --    14.5207                11.4062                 9.8946
 IR Inten    --  1092.0074                29.9288                32.0887

                    73                     74                     75
                     A                      A                      A
 Frequencies --  1798.9233              2906.0079              3073.5252
 Red. masses --     9.7365                 1.0838                 1.0298
 Frc consts  --    18.5643                 5.3925                 5.7317
 IR Inten    --   246.3677               158.8441                16.8171

                    76                     77                     78
                     A                      A                      A
 Frequencies --  3074.9629              3148.6444              3150.1527
 Red. masses --     1.0298                 1.1077                 1.1078
 Frc consts  --     5.7371                 6.4703                 6.4768
 IR Inten    --    55.5427                18.2716                24.1093

                    79                     80                     81
                     A                      A                      A
 Frequencies --  3181.4110              3182.7676              3186.0870
 Red. masses --     1.1066                 1.1067                 1.0892
 Frc consts  --     6.5990                 6.6055                 6.5146
 IR Inten    --    29.0985                11.0566                10.3521

                    82                     83                     84
                     A                      A                      A
 Frequencies --  3218.9398              3224.8995              3240.7760
 Red. masses --     1.0892                 1.0934                 1.0941
 Frc consts  --     6.6492                 6.7001                 6.7702
 IR Inten    --     0.7468                 3.6891                 6.1144

 - Thermochemistry -
 -------------------
 Temperature   298.150 Kelvin.  Pressure   1.00000 Atm.
 Atom     1 has atomic number  6 and mass  12.00000

 Molecular mass:   261.07496 amu.
 Principal axes and moments of inertia in atomic units:
                           1         2         3
     Eigenvalues --  2020.49513********************
           X            0.99994   0.01072  -0.00314
           Y           -0.01075   0.99990  -0.00882
           Z            0.00304   0.00886   0.99996
 This molecule is an asymmetric top.
 Rotational symmetry number  1.
 Warning -- assumption of classical behavior for rotation
           may cause significant error
 Rotational temperatures (Kelvin)      0.04287     0.00790     0.00695
 Rotational constants (GHZ):           0.89322     0.16465     0.14491
 Zero-point vibrational energy     593252.8 (Joules/Mol)
                                  141.79082 (Kcal/Mol)
 Warning -- explicit consideration of  24 degrees of freedom as
           vibrations may cause significant error
 Vibrational temperatures:     29.62    38.46    66.79   143.06   160.75
          (Kelvin)            165.62   216.77   235.78   252.11   262.59
                              273.73   309.96   334.43   340.61   358.06
                              424.20   460.57   552.96   617.09   659.59
                              700.08   754.43   783.42   869.75   902.93
                              921.61   981.28  1028.68  1054.63  1077.61
                             1079.85  1174.36  1191.50  1210.90  1232.42
                             1260.17  1380.49  1412.77  1435.89  1446.64
                             1457.00  1487.07  1489.25  1630.81  1645.15
                             1665.59  1704.09  1704.90  1711.20  1744.14
                             1778.07  1780.47  1816.10  1902.16  1915.93
                             1961.25  2012.18  2043.53  2065.50  2110.62
                             2120.72  2175.96  2179.45  2184.52  2190.47
                             2193.17  2229.86  2251.34  2314.74  2331.00
                             2358.87  2393.59  2588.25  4181.09  4422.11
                             4424.18  4530.19  4532.36  4577.34  4579.29
                             4584.06  4631.33  4639.91  4662.75

 Zero-point correction=                           0.225958 (Hartree/Particle)
 Thermal correction to Energy=                    0.242784
 Thermal correction to Enthalpy=                  0.243728
 Thermal correction to Gibbs Free Energy=         0.179289
 Sum of electronic and zero-point Energies=           -928.823887
 Sum of electronic and thermal Energies=              -928.807061
 Sum of electronic and thermal Enthalpies=            -928.806117
 Sum of electronic and thermal Free Energies=         -928.870556

                     E (Thermal)             CV                S
                      KCal/Mol        Cal/Mol-Kelvin    Cal/Mol-Kelvin
 Total                  152.349             61.496            135.623
 Electronic               0.000              0.000              0.000
 Translational            0.889              2.981             42.579
 Rotational               0.889              2.981             33.977
 Vibrational            150.572             55.534             59.067
 Vibration     1          0.593              1.986              6.577
 Vibration     2          0.593              1.984              6.058
 Vibration     3          0.595              1.979              4.964
 Vibration     4          0.604              1.950              3.465
 Vibration     5          0.607              1.940              3.239
 Vibration     6          0.608              1.937              3.181
 Vibration     7          0.618              1.902              2.664
 Vibration     8          0.623              1.887              2.505
 Vibration     9          0.627              1.873              2.379
 Vibration    10          0.630              1.864              2.303
 Vibration    11          0.634              1.853              2.225
 Vibration    12          0.645              1.818              1.997
 Vibration    13          0.653              1.791              1.860
 Vibration    14          0.656              1.784              1.827
 Vibration    15          0.662              1.765              1.739
 Vibration    16          0.689              1.683              1.446
 Vibration    17          0.706              1.635              1.310
 Vibration    18          0.753              1.504              1.022
 Vibration    19          0.790              1.407              0.862
 Vibration    20          0.816              1.342              0.771
 Vibration    21          0.843              1.280              0.693
 Vibration    22          0.879              1.196              0.600
 Vibration    23          0.900              1.152              0.556
 Vibration    24          0.963              1.022              0.442

 Normal termination of Gaussian 09 at Tue Sep 28 20:08:33 2021.
 Gaussian 09:  AM64L-G09RevA.02 11-Jun-2009

 ----------------------------------------------------------------------
 #p TD(NStates=10, Root=1) b3lyp/6-31G* volume pop=NPA density=current
 Geom=AllCheck Guess=Read
 ----------------------------------------------------------------------

 COc1nc(Oc2ccc(cc2)C=O)nc(n1)OC_conf_0
 -------------------------------------
 Redundant internal coordinates taken from checkpoint file:
 C12H11N3O4_8e61_conf_0.chk
 Charge =  0 Multiplicity = 1

                         Standard orientation:
 ---------------------------------------------------------------------
 Center     Atomic      Atomic             Coordinates (Angstroms)
 Number     Number       Type             X           Y           Z
 ---------------------------------------------------------------------
      1          6           0        3.162517    3.105179    0.435279
      2          8           0        1.919140    2.390942    0.390427
      3          6           0        1.964890    1.074799    0.193594
      4          7           0        0.768604    0.478774    0.169984
      5          6           0        0.842307   -0.834150   -0.030460
      6          8           0       -0.293764   -1.563673   -0.053351
      7          6           0       -1.551356   -0.975700   -0.000162
      8          6           0       -1.962190   -0.013295   -0.928924
      9          6           0       -3.268964    0.450643   -0.879921
     10          6           0       -4.166515   -0.043032    0.081048
     11          6           0       -3.736710   -1.013900    0.994049
     12          6           0       -2.427420   -1.485483    0.956807
     13          6           0       -5.558404    0.451279    0.127660
     14          8           0       -6.024394    1.287047   -0.623767
     15          7           0        1.939586   -1.568413   -0.200089
     16          6           0        3.060702   -0.848317   -0.150340
     17          7           0        3.149715    0.475720    0.042214
     18          8           0        4.178051   -1.553809   -0.314976
     19          6           0        5.428016   -0.851934   -0.276944
     20          1           0        2.883074    4.145660    0.603246
     21          1           0        3.704877    3.001866   -0.508250
     22          1           0        3.791109    2.741217    1.252309
     23          1           0       -1.262804    0.362460   -1.666046
     24          1           0       -3.622013    1.198194   -1.583414
     25          1           0       -4.431308   -1.401080    1.736253
     26          1           0       -2.072435   -2.241189    1.649547
     27          1           0       -6.184744   -0.006618    0.925991
     28          1           0        6.186225   -1.619510   -0.434912
     29          1           0        5.572804   -0.365594    0.691464
     30          1           0        5.476372   -0.098565   -1.067728
 ---------------------------------------------------------------------

 SCF Done:  E(RB3LYP) =  -929.049845396     A.U. after    1 cycles

 Excitation energies and oscillator strengths:

 Excited State   1:      Singlet-A      3.7094 eV  334.24 nm  f=0.0001  <S**2>=0.000
      67 -> 69         0.67781
      67 -> 73         0.11901
      68 -> 69        -0.12602
 This state for optimization and/or second-order correction.
 Total Energy, E(TD-HF/TD-KS) =  -928.913526881
 Copying the excited state density for this state as the 1-particle RhoCI density.

 Excited State   2:      Singlet-A      4.7817 eV  259.29 nm  f=0.0552  <S**2>=0.000
      66 -> 69         0.59109
      68 -> 69        -0.23048
      68 -> 70        -0.11039
      68 -> 72        -0.26708

 Excited State   3:      Singlet-A      4.8744 eV  254.36 nm  f=0.4716  <S**2>=0.000
      66 -> 69         0.21540
      67 -> 69         0.11834
      68 -> 69         0.62710

 Excited State   4:      Singlet-A      5.3505 eV  231.73 nm  f=0.0020  <S**2>=0.000
      62 -> 70         0.11018
      65 -> 69         0.64632
      68 -> 70         0.21916

 Excited State   5:      Singlet-A      5.3555 eV  231.51 nm  f=0.0093  <S**2>=0.000
      63 -> 69        -0.15093
      64 -> 69         0.57855
      64 -> 71        -0.29868
      66 -> 71         0.10122
      68 -> 71        -0.14658

 Excited State   6:      Singlet-A      5.4674 eV  226.77 nm  f=0.0082  <S**2>=0.000
      63 -> 70        -0.13494
      64 -> 70         0.19024
      65 -> 69        -0.24628
      66 -> 70        -0.13993
      68 -> 70         0.57105

 Excited State   7:      Singlet-A      5.5757 eV  222.37 nm  f=0.0034  <S**2>=0.000
      63 -> 69         0.31953
      63 -> 71        -0.22948
      64 -> 69         0.26891
      66 -> 71        -0.11195
      68 -> 71         0.47801

 Excited State   8:      Singlet-A      5.5871 eV  221.91 nm  f=0.0006  <S**2>=0.000
      67 -> 70         0.35668
      67 -> 72         0.58580
      68 -> 72        -0.12080

 Excited State   9:      Singlet-A      5.6125 eV  220.91 nm  f=0.0092  <S**2>=0.000
      63 -> 69         0.51897
      63 -> 71        -0.13038
      64 -> 71        -0.20105
      68 -> 71        -0.36789

 Excited State  10:      Singlet-A      5.7345 eV  216.21 nm  f=0.0040  <S**2>=0.000
      63 -> 70         0.14751
      64 -> 70         0.61406
      64 -> 72        -0.13934
      65 -> 71         0.11602
      66 -> 70        -0.11814
      68 -> 70        -0.14961

 The electronic state is 1-A.
 Alpha  occ. eigenvalues --  -19.21441 -19.20802 -19.20608 -19.14232 -14.34812
 Alpha  occ. eigenvalues --  -14.34321 -14.33933 -10.33635 -10.33625 -10.33423
 Alpha  occ. eigenvalues --  -10.27258 -10.27110 -10.25366 -10.25246 -10.21297
 Alpha  occ. eigenvalues --  -10.20678 -10.20633 -10.20592 -10.20394  -1.12418
 Alpha  occ. eigenvalues --   -1.11030  -1.10460  -1.03708  -1.00705  -0.90988
 Alpha  occ. eigenvalues --   -0.90776  -0.87056  -0.78166  -0.76623  -0.74996
 Alpha  occ. eigenvalues --   -0.74499  -0.69042  -0.65386  -0.63887  -0.62297
 Alpha  occ. eigenvalues --   -0.59592  -0.57989  -0.57173  -0.53604  -0.51914
 Alpha  occ. eigenvalues --   -0.51534  -0.50696  -0.48596  -0.48103  -0.46408
 Alpha  occ. eigenvalues --   -0.45517  -0.45036  -0.44687  -0.44008  -0.43299
 Alpha  occ. eigenvalues --   -0.42533  -0.40355  -0.40018  -0.39671  -0.38979
 Alpha  occ. eigenvalues --   -0.38535  -0.37905  -0.36294  -0.35866  -0.35480
 Alpha  occ. eigenvalues --   -0.31644  -0.29591  -0.29096  -0.28392  -0.27740
 Alpha  occ. eigenvalues --   -0.26651  -0.25319  -0.25091
 Alpha virt. eigenvalues --   -0.06136  -0.02433  -0.02018  -0.01435   0.04312
 Alpha virt. eigenvalues --    0.08957   0.09087   0.10900   0.11433   0.11778
 Alpha virt. eigenvalues --    0.12592   0.12965   0.14415   0.14605   0.14851

 Mulliken atomic charges:
              1
     1  C   -0.209638
     2  O   -0.455591
     3  C    0.681611
     4  N   -0.497046
     5  C    0.658693
     6  O   -0.523245
     7  C    0.327322
     8  C   -0.119635
     9  C   -0.207780
    10  C    0.143435
    11  C   -0.207961
    12  C   -0.163164
    13  C    0.061975
    14  O   -0.251486
    15  N   -0.488770
    16  C    0.680151
    17  N   -0.551090
    18  O   -0.454224
    19  C   -0.208879
    20  H    0.172358
    21  H    0.167943
    22  H    0.168490
    23  H    0.147707
    24  H    0.143120
    25  H    0.126472
    26  H    0.146709
    27  H    0.205727
    28  H    0.172403
    29  H    0.167261
    30  H    0.167133
 Sum of Mulliken atomic charges =  -0.00000

 Dipole moment (field-independent basis, Debye):
    X=              1.5052    Y=              2.1431    Z=              1.1357  Tot=              2.8545
 Quadrupole moment (field-independent basis, Debye-Ang):
   XX=            -74.9008   YY=           -110.2704   ZZ=           -103.1735
   XY=             13.4671   XZ=             -7.2018   YZ=             -3.5955

 Summary of Natural Population Analysis:

                                       Natural Population
                Natural  -----------------------------------------------
    Atom  No    Charge         Core      Valence    Rydberg      Total
 -----------------------------------------------------------------------
      C    1   -0.31987      1.99941     4.30682    0.01365     6.31987
      O    2   -0.49887      1.99972     6.48712    0.01203     8.49887
      C    3    0.77690      1.99922     3.18807    0.03581     5.22310
      N    4   -0.59310      1.99925     5.57309    0.02076     7.59310
      C    5    0.75945      1.99915     3.20468    0.03672     5.24055
      O    6   -0.49319      1.99967     6.48102    0.01249     8.49319
      C    7    0.27097      1.99872     3.70813    0.02218     5.72903
      C    8   -0.24412      1.99900     4.23177    0.01335     6.24412
      C    9   -0.22790      1.99904     4.21429    0.01457     6.22790
      C   10   -0.17734      1.99891     4.16262    0.01581     6.17734
      C   11   -0.21811      1.99904     4.20645    0.01263     6.21811
      C   12   -0.25762      1.99900     4.24423    0.01439     6.25762
      C   13    0.16340      1.99936     3.80488    0.03237     5.83660
      O   14   -0.24182      1.99983     6.22253    0.01946     8.24182
      N   15   -0.56016      1.99927     5.53878    0.02211     7.56016
      C   16    0.77036      1.99922     3.19396    0.03646     5.22964
      N   17   -0.65762      1.99925     5.63903    0.01934     7.65762
      O   18   -0.49816      1.99972     6.48630    0.01214     8.49816
      C   19   -0.31982      1.99941     4.30668    0.01373     6.31982
      H   20    0.22711      0.00000     0.77230    0.00059     0.77289
      H   21    0.21775      0.00000     0.78084    0.00142     0.78225
      H   22    0.21808      0.00000     0.78051    0.00141     0.78192
      H   23    0.25395      0.00000     0.74515    0.00089     0.74605
      H   24    0.24270      0.00000     0.75649    0.00080     0.75730
      H   25    0.23221      0.00000     0.76698    0.00081     0.76779
      H   26    0.25252      0.00000     0.74642    0.00106     0.74748
      H   27    0.26044      0.00000     0.73872    0.00084     0.73956
      H   28    0.22720      0.00000     0.77221    0.00059     0.77280
      H   29    0.21735      0.00000     0.78123    0.00142     0.78265
      H   30    0.21730      0.00000     0.78127    0.00142     0.78270
 =======================================================================
   * Total *    0.00000     37.98618    97.62259    0.39123   136.00000

 Normal termination of Gaussian 09 at Wed Sep 29 01:10:38 2021.
