 Gaussian 09, Revision A.02,

 -----------------------------------
 #p opt b3lyp/6-31G* scf=(xqc,tight)
 -----------------------------------

 -----------------------------
 c1ccc2c(n1)c1ncccc1cc2_conf_0
 -----------------------------
 Symbolic Z-matrix:
 Charge =  0 Multiplicity = 1

 SCF Done:  E(RB3LYP) =  -571.601037733     A.U. after   14 cycles
 SCF Done:  E(RB3LYP) =  -571.609804749     A.U. after   13 cycles
 SCF Done:  E(RB3LYP) =  -571.610354443     A.U. after   15 cycles
 SCF Done:  E(RB3LYP) =  -571.610379020     A.U. after   14 cycles
 SCF Done:  E(RB3LYP) =  -571.610380972     A.U. after   14 cycles
 Optimization completed.
    -- Stationary point found.
 Normal termination of Gaussian 09 at Fri Oct  1 19:53:54 2021.

 ----------------------------------------------------------------------
 #p freq b3lyp/6-31G* volume NMR pop=NPA density=current Geom=AllCheck
 Guess=Read
 ----------------------------------------------------------------------

 c1ccc2c(n1)c1ncccc1cc2_conf_0
 -----------------------------
 Redundant internal coordinates taken from checkpoint file:
 C12H8N2_94d3_conf_0.chk
 Charge =  0 Multiplicity = 1

 SCF Done:  E(RB3LYP) =  -571.610380972     A.U. after    1 cycles

  1  C    Isotropic =    46.5739   Anisotropy =   152.5049

  2  C    Isotropic =    74.2202   Anisotropy =   156.3474

  3  C    Isotropic =    61.4908   Anisotropy =   161.5827

  4  C    Isotropic =    67.0668   Anisotropy =   189.9478

  5  C    Isotropic =    47.5483   Anisotropy =   166.9364

  6  N    Isotropic =   -63.5060   Anisotropy =   548.1929

  7  C    Isotropic =    47.5481   Anisotropy =   166.9364

  8  N    Isotropic =   -63.5061   Anisotropy =   548.1928

  9  C    Isotropic =    46.5739   Anisotropy =   152.5048

 10  C    Isotropic =    74.2202   Anisotropy =   156.3472

 11  C    Isotropic =    61.4908   Anisotropy =   161.5825

 12  C    Isotropic =    67.0668   Anisotropy =   189.9477

 13  C    Isotropic =    68.4807   Anisotropy =   138.2582

 14  C    Isotropic =    68.4808   Anisotropy =   138.2582

 15  H    Isotropic =    22.9458   Anisotropy =     6.5802

 16  H    Isotropic =    24.8310   Anisotropy =     5.8393

 17  H    Isotropic =    24.3352   Anisotropy =     7.2741

 18  H    Isotropic =    22.9458   Anisotropy =     6.5802

 19  H    Isotropic =    24.8311   Anisotropy =     5.8393

 20  H    Isotropic =    24.3352   Anisotropy =     7.2741

 21  H    Isotropic =    24.6378   Anisotropy =     6.8579

 22  H    Isotropic =    24.6378   Anisotropy =     6.8579

  Exact polarizability: 223.170  -0.000 146.810  -0.003  -0.000  43.675
 Approx polarizability: 368.464  -0.000 277.080  -0.007  -0.000  70.688

                     1                      2                      3
                     A                      A                      A
 Frequencies --   100.4919               109.3670               237.3466
 Red. masses --     4.9041                 4.7098                 3.5646
 Frc consts  --     0.0292                 0.0332                 0.1183
 IR Inten    --     4.7237                 0.0000                 2.0816

                     4                      5                      6
                     A                      A                      A
 Frequencies --   239.2438               243.0716               410.5825
 Red. masses --     5.4945                 5.0181                 3.8985
 Frc consts  --     0.1853                 0.1747                 0.3872
 IR Inten    --     3.0856                 0.0001                 0.0000

                     7                      8                      9
                     A                      A                      A
 Frequencies --   412.9310               442.8897               466.3325
 Red. masses --     6.8993                 4.0436                 6.2587
 Frc consts  --     0.6931                 0.4673                 0.8019
 IR Inten    --     1.8297                 0.2565                 0.3347

                    10                     11                     12
                     A                      A                      A
 Frequencies --   507.0088               519.2854               560.8834
 Red. masses --     3.2171                 4.9854                 7.5201
 Frc consts  --     0.4872                 0.7921                 1.3939
 IR Inten    --     0.0335                 0.4567                 0.0565

                    13                     14                     15
                     A                      A                      A
 Frequencies --   564.6816               614.8279               630.0748
 Red. masses --     3.1495                 3.7534                 8.0757
 Frc consts  --     0.5917                 0.8359                 1.8889
 IR Inten    --     0.0000                 0.0000                 7.4912

                    16                     17                     18
                     A                      A                      A
 Frequencies --   716.1335               739.5514               754.3376
 Red. masses --     6.8968                 6.2244                 3.5089
 Frc consts  --     2.0840                 2.0058                 1.1764
 IR Inten    --     2.9204                 4.1562                28.7417

                    19                     20                     21
                     A                      A                      A
 Frequencies --   779.1651               818.0194               849.4289
 Red. masses --     1.1915                 1.3068                 8.8752
 Frc consts  --     0.4262                 0.5152                 3.7730
 IR Inten    --    10.4037                 0.0000                 0.0000

                    22                     23                     24
                     A                      A                      A
 Frequencies --   860.8683               868.9564               896.6399
 Red. masses --     1.6962                 6.4767                 5.2179
 Frc consts  --     0.7406                 2.8814                 2.4716
 IR Inten    --    52.2173                 5.7407                 3.8631

                    25                     26                     27
                     A                      A                      A
 Frequencies --   962.2593               964.2139               974.2388
 Red. masses --     1.3282                 1.3886                 1.3482
 Frc consts  --     0.7246                 0.7607                 0.7539
 IR Inten    --     0.0000                 1.5566                 0.0000

                    28                     29                     30
                     A                      A                      A
 Frequencies --   990.6248               994.8680              1053.2748
 Red. masses --     1.3347                 1.3500                 5.3173
 Frc consts  --     0.7717                 0.7872                 3.4756
 IR Inten    --     1.2934                 0.0000                 1.3482

                    31                     32                     33
                     A                      A                      A
 Frequencies --  1065.3186              1098.0208              1120.4260
 Red. masses --     2.5573                 2.4354                 2.1549
 Frc consts  --     1.7100                 1.7300                 1.5938
 IR Inten    --     0.6604                 3.9731                11.3940

                    34                     35                     36
                     A                      A                      A
 Frequencies --  1167.2187              1176.9234              1229.6631
 Red. masses --     1.2319                 1.2451                 2.2796
 Frc consts  --     0.9888                 1.0161                 2.0309
 IR Inten    --     6.5531                 0.8971                 0.1513

                    37                     38                     39
                     A                      A                      A
 Frequencies --  1239.7426              1253.8090              1304.2658
 Red. masses --     2.0470                 1.8081                 1.8845
 Frc consts  --     1.8537                 1.6747                 1.8888
 IR Inten    --     0.0001                 0.4903                 1.3265

                    40                     41                     42
                     A                      A                      A
 Frequencies --  1335.2286              1358.7801              1390.3883
 Red. masses --     3.4053                 7.0042                 2.1999
 Frc consts  --     3.5770                 7.6192                 2.5057
 IR Inten    --     2.0029                 0.7531                 0.8999

                    43                     44                     45
                     A                      A                      A
 Frequencies --  1426.7676              1458.9800              1464.8845
 Red. masses --     4.1147                 1.7441                 2.3004
 Frc consts  --     4.9351                 2.1873                 2.9085
 IR Inten    --     0.0200                 0.1368                47.7864

                    46                     47                     48
                     A                      A                      A
 Frequencies --  1494.1745              1545.9729              1551.4444
 Red. masses --     2.6610                 3.2626                 4.0000
 Frc consts  --     3.5003                 4.5942                 5.6726
 IR Inten    --     1.4115                 6.6864                35.7851

                    49                     50                     51
                     A                      A                      A
 Frequencies --  1603.6245              1648.4466              1661.9275
 Red. masses --     6.2106                 5.7293                 6.2306
 Frc consts  --     9.4099                 9.1728                10.1391
 IR Inten    --    12.9246                11.2938                 8.0213

                    52                     53                     54
                     A                      A                      A
 Frequencies --  1672.0632              3162.7883              3163.3114
 Red. masses --     6.1905                 1.0890                 1.0892
 Frc consts  --    10.1972                 6.4185                 6.4218
 IR Inten    --     9.9085                21.1148                40.8707

                    55                     56                     57
                     A                      A                      A
 Frequencies --  3176.2365              3183.8621              3184.4912
 Red. masses --     1.0862                 1.0895                 1.0890
 Frc consts  --     6.4563                 6.5069                 6.5069
 IR Inten    --     0.7115                15.2145                 2.0830

                    58                     59                     60
                     A                      A                      A
 Frequencies --  3195.1541              3212.0211              3212.3254
 Red. masses --     1.0961                 1.0961                 1.0961
 Frc consts  --     6.5928                 6.6628                 6.6638
 IR Inten    --    34.4988                54.9662                 0.0447

 - Thermochemistry -
 -------------------
 Temperature   298.150 Kelvin.  Pressure   1.00000 Atm.
 Atom     1 has atomic number  6 and mass  12.00000

 Molecular mass:   180.06875 amu.
 Principal axes and moments of inertia in atomic units:
                           1         2         3
     Eigenvalues --  1114.443193116.782064231.22523
           X            1.00000   0.00000  -0.00000
           Y           -0.00000   1.00000  -0.00000
           Z            0.00000   0.00000   1.00000
 This molecule is an asymmetric top.
 Rotational symmetry number  1.
 Warning -- assumption of classical behavior for rotation
           may cause significant error
 Rotational temperatures (Kelvin)      0.07772     0.02779     0.02047
 Rotational constants (GHZ):           1.61941     0.57904     0.42653
 Zero-point vibrational energy     448838.0 (Joules/Mol)
                                  107.27486 (Kcal/Mol)
 Warning -- explicit consideration of  14 degrees of freedom as
           vibrations may cause significant error
 Vibrational temperatures:    144.59   157.35   341.49   344.22   349.73
          (Kelvin)            590.74   594.11   637.22   670.95   729.47
                              747.13   806.99   812.45   884.60   906.54
                             1030.36  1064.05  1085.32  1121.04  1176.95
                             1222.14  1238.60  1250.23  1290.06  1384.47
                             1387.29  1401.71  1425.29  1431.39  1515.43
                             1532.75  1579.81  1612.04  1679.37  1693.33
                             1769.21  1783.71  1803.95  1876.55  1921.09
                             1954.98  2000.46  2052.80  2099.14  2107.64
                             2149.78  2224.31  2232.18  2307.26  2371.74
                             2391.14  2405.72  4550.54  4551.29  4569.89
                             4580.86  4581.77  4597.11  4621.38  4621.81

 Zero-point correction=                           0.170953 (Hartree/Particle)
 Thermal correction to Energy=                    0.180109
 Thermal correction to Enthalpy=                  0.181053
 Thermal correction to Gibbs Free Energy=         0.136291
 Sum of electronic and zero-point Energies=           -571.439428
 Sum of electronic and thermal Energies=              -571.430272
 Sum of electronic and thermal Enthalpies=            -571.429328
 Sum of electronic and thermal Free Energies=         -571.474090

                     E (Thermal)             CV                S
                      KCal/Mol        Cal/Mol-Kelvin    Cal/Mol-Kelvin
 Total                  113.020             38.521             94.211
 Electronic               0.000              0.000              0.000
 Translational            0.889              2.981             41.471
 Rotational               0.889              2.981             31.064
 Vibrational            111.243             32.559             21.676
 Vibration     1          0.604              1.949              3.445
 Vibration     2          0.606              1.942              3.280
 Vibration     3          0.656              1.784              1.823
 Vibration     4          0.657              1.780              1.808
 Vibration     5          0.659              1.774              1.780
 Vibration     6          0.775              1.447              0.925
 Vibration     7          0.777              1.442              0.916
 Vibration     8          0.803              1.377              0.818
 Vibration     9          0.824              1.325              0.748
 Vibration    10          0.862              1.234              0.641
 Vibration    11          0.874              1.207              0.612
 Vibration    12          0.917              1.116              0.522
 Vibration    13          0.921              1.108              0.515
 Vibration    14          0.974              1.001              0.425

 Optimization completed.
    -- Stationary point found.
 Normal termination of Gaussian 09 at Fri Oct  1 21:37:08 2021.
 Gaussian 09:  AM64L-G09RevA.02 11-Jun-2009

 ----------------------------------------------------------------------
 #p TD(NStates=10, Root=1) b3lyp/6-31G* volume pop=NPA density=current
 Geom=AllCheck Guess=Read
 ----------------------------------------------------------------------

 c1ccc2c(n1)c1ncccc1cc2_conf_0
 -----------------------------
 Redundant internal coordinates taken from checkpoint file:
 C12H8N2_94d3_conf_0.chk
 Charge =  0 Multiplicity = 1

                         Standard orientation:
 ---------------------------------------------------------------------
 Center     Atomic      Atomic             Coordinates (Angstroms)
 Number     Number       Type             X           Y           Z
 ---------------------------------------------------------------------
      1          6           0        2.703674   -1.548819    0.000179
      2          6           0        3.482291   -0.372991   -0.000057
      3          6           0        2.829198    0.841367   -0.000179
      4          6           0        1.417115    0.870783   -0.000090
      5          6           0        0.729490   -0.377822    0.000034
      6          7           0        1.380917   -1.563411    0.000230
      7          6           0       -0.729490   -0.377821   -0.000018
      8          7           0       -1.380917   -1.563412   -0.000215
      9          6           0       -2.703673   -1.548819   -0.000200
     10          6           0       -3.482291   -0.372991    0.000032
     11          6           0       -2.829199    0.841366    0.000128
     12          6           0       -1.417115    0.870782    0.000096
     13          6           0       -0.680378    2.101639    0.000090
     14          6           0        0.680378    2.101640   -0.000055
     15          1           0        3.193602   -2.522242    0.000449
     16          1           0        4.566561   -0.433834   -0.000166
     17          1           0        3.382859    1.777639   -0.000320
     18          1           0       -3.193603   -2.522241   -0.000303
     19          1           0       -4.566561   -0.433835    0.000151
     20          1           0       -3.382858    1.777640    0.000267
     21          1           0       -1.234518    3.037374    0.000190
     22          1           0        1.234517    3.037375   -0.000130
 ---------------------------------------------------------------------

 SCF Done:  E(RB3LYP) =  -571.610380972     A.U. after    1 cycles

 Excitation energies and oscillator strengths:

 Excited State   1:      Singlet-A      4.0492 eV  306.20 nm  f=0.0000  <S**2>=0.000
      44 -> 48         0.12490
      46 -> 49         0.69106
 This state for optimization and/or second-order correction.
 Total Energy, E(TD-HF/TD-KS) =  -571.461576331
 Copying the excited state density for this state as the 1-particle RhoCI density.

 Excited State   2:      Singlet-A      4.0689 eV  304.72 nm  f=0.0018  <S**2>=0.000
      44 -> 49         0.11251
      46 -> 48         0.68982

 Excited State   3:      Singlet-A      4.1183 eV  301.05 nm  f=0.0003  <S**2>=0.000
      45 -> 48         0.38468
      47 -> 49         0.58531

 Excited State   4:      Singlet-A      4.3380 eV  285.81 nm  f=0.0494  <S**2>=0.000
      45 -> 49        -0.36183
      47 -> 48         0.60256

 Excited State   5:      Singlet-A      4.4852 eV  276.43 nm  f=0.0000  <S**2>=0.000
      44 -> 48         0.66739
      46 -> 49        -0.12962
      46 -> 50         0.18407

 Excited State   6:      Singlet-A      4.5150 eV  274.61 nm  f=0.0024  <S**2>=0.000
      44 -> 49         0.68981
      46 -> 48        -0.10972
      46 -> 51         0.10536

 Excited State   7:      Singlet-A      4.8292 eV  256.74 nm  f=0.0772  <S**2>=0.000
      45 -> 48         0.52457
      47 -> 49        -0.36592
      47 -> 50        -0.27346

 Excited State   8:      Singlet-A      5.1103 eV  242.62 nm  f=0.6764  <S**2>=0.000
      43 -> 49        -0.12045
      45 -> 49         0.54264
      45 -> 50         0.23229
      47 -> 48         0.32590
      47 -> 51         0.13613

 Excited State   9:      Singlet-A      5.3706 eV  230.86 nm  f=0.0000  <S**2>=0.000
      44 -> 48        -0.19222
      46 -> 50         0.67726

 Excited State  10:      Singlet-A      5.5852 eV  221.99 nm  f=0.0922  <S**2>=0.000
      43 -> 48         0.39536
      45 -> 48         0.20991
      47 -> 49        -0.10263
      47 -> 50         0.51768

 The electronic state is 1-A.
 Alpha  occ. eigenvalues --  -14.32449 -14.32449 -10.22726 -10.22692 -10.22257
 Alpha  occ. eigenvalues --  -10.22257 -10.20960 -10.20960 -10.20835 -10.20835
 Alpha  occ. eigenvalues --  -10.20279 -10.20208 -10.20029 -10.20029  -0.95139
 Alpha  occ. eigenvalues --   -0.92887  -0.84831  -0.80802  -0.79999  -0.74810
 Alpha  occ. eigenvalues --   -0.74376  -0.65675  -0.64513  -0.62987  -0.60114
 Alpha  occ. eigenvalues --   -0.55536  -0.53361  -0.51304  -0.48717  -0.48506
 Alpha  occ. eigenvalues --   -0.46372  -0.44198  -0.42307  -0.42081  -0.41124
 Alpha  occ. eigenvalues --   -0.40701  -0.39912  -0.38416  -0.37103  -0.35350
 Alpha  occ. eigenvalues --   -0.33665  -0.29901  -0.29156  -0.25511  -0.24313
 Alpha  occ. eigenvalues --   -0.23927  -0.22963
 Alpha virt. eigenvalues --   -0.05181  -0.04899  -0.00492   0.02224   0.06711
 Alpha virt. eigenvalues --    0.09056   0.10397   0.12260   0.13630   0.14588
 Alpha virt. eigenvalues --    0.14968   0.17030   0.17587   0.18671   0.21366

 Mulliken atomic charges:
              1
     1  C    0.057819
     2  C   -0.179388
     3  C   -0.175770
     4  C    0.176033
     5  C    0.227698
     6  N   -0.482766
     7  C    0.227679
     8  N   -0.482765
     9  C    0.057822
    10  C   -0.179393
    11  C   -0.175753
    12  C    0.176026
    13  C   -0.193654
    14  C   -0.193658
    15  H    0.161295
    16  H    0.135793
    17  H    0.134748
    18  H    0.161294
    19  H    0.135792
    20  H    0.134753
    21  H    0.138196
    22  H    0.138198
 Sum of Mulliken atomic charges =  -0.00000

 Dipole moment (field-independent basis, Debye):
    X=             -0.0002    Y=              1.2774    Z=              0.0001  Tot=              1.2774
 Quadrupole moment (field-independent basis, Debye-Ang):
   XX=            -64.1162   YY=            -71.9544   ZZ=            -83.7691
   XY=             -0.0003   XZ=             -0.0005   YZ=             -0.0002

 Summary of Natural Population Analysis:

                                       Natural Population
                Natural  -----------------------------------------------
    Atom  No    Charge         Core      Valence    Rydberg      Total
 -----------------------------------------------------------------------
      C    1    0.03060      1.99919     3.94895    0.02126     5.96940
      C    2   -0.33900      1.99907     4.32487    0.01507     6.33900
      C    3   -0.20870      1.99905     4.19493    0.01472     6.20870
      C    4   -0.08059      1.99899     4.06779    0.01380     6.08059
      C    5    0.13170      1.99900     3.84703    0.02228     5.86830
      N    6   -0.29710      1.99911     5.28149    0.01650     7.29710
      C    7    0.13168      1.99900     3.84705    0.02228     5.86832
      N    8   -0.29712      1.99911     5.28151    0.01650     7.29712
      C    9    0.03062      1.99919     3.94893    0.02126     5.96938
      C   10   -0.33901      1.99907     4.32487    0.01507     6.33901
      C   11   -0.20867      1.99905     4.19490    0.01472     6.20867
      C   12   -0.08060      1.99899     4.06781    0.01380     6.08060
      C   13   -0.20544      1.99904     4.19306    0.01333     6.20544
      C   14   -0.20545      1.99904     4.19307    0.01333     6.20545
      H   15    0.24105      0.00000     0.75812    0.00083     0.75895
      H   16    0.24672      0.00000     0.75259    0.00069     0.75328
      H   17    0.23846      0.00000     0.76056    0.00098     0.76154
      H   18    0.24104      0.00000     0.75813    0.00083     0.75896
      H   19    0.24672      0.00000     0.75259    0.00069     0.75328
      H   20    0.23846      0.00000     0.76056    0.00098     0.76154
      H   21    0.24230      0.00000     0.75671    0.00099     0.75770
      H   22    0.24230      0.00000     0.75671    0.00099     0.75770
 =======================================================================
   * Total *    0.00000     27.98690    65.77225    0.24086    94.00000

 Normal termination of Gaussian 09 at Sat Oct  2 02:59:48 2021.
