 Gaussian 09, Revision A.02,

 -----------------------------------
 #p opt b3lyp/6-31G* scf=(xqc,tight)
 -----------------------------------

 ---------------------------------
 CC(=O)Oc1ccc2c(c1)ccc(c2)O_conf_0
 ---------------------------------
 Symbolic Z-matrix:
 Charge =  0 Multiplicity = 1

 SCF Done:  E(RB3LYP) =  -688.978818424     A.U. after   15 cycles
 SCF Done:  E(RB3LYP) =  -688.984220203     A.U. after   13 cycles
 SCF Done:  E(RB3LYP) =  -688.984012402     A.U. after   13 cycles
 SCF Done:  E(RB3LYP) =  -688.984463495     A.U. after   12 cycles
 SCF Done:  E(RB3LYP) =  -688.984582403     A.U. after   12 cycles
 SCF Done:  E(RB3LYP) =  -688.984697780     A.U. after   11 cycles
 SCF Done:  E(RB3LYP) =  -688.984740030     A.U. after   11 cycles
 SCF Done:  E(RB3LYP) =  -688.984780606     A.U. after   12 cycles
 SCF Done:  E(RB3LYP) =  -688.984791722     A.U. after   11 cycles
 SCF Done:  E(RB3LYP) =  -688.984792854     A.U. after    8 cycles
 SCF Done:  E(RB3LYP) =  -688.984793077     A.U. after    7 cycles
 SCF Done:  E(RB3LYP) =  -688.984793189     A.U. after    7 cycles
 SCF Done:  E(RB3LYP) =  -688.984793275     A.U. after    7 cycles
 SCF Done:  E(RB3LYP) =  -688.984793297     A.U. after    7 cycles
 SCF Done:  E(RB3LYP) =  -688.984793325     A.U. after    7 cycles
 SCF Done:  E(RB3LYP) =  -688.984793352     A.U. after    7 cycles
 SCF Done:  E(RB3LYP) =  -688.984793351     A.U. after    7 cycles
 Optimization completed.
    -- Stationary point found.
 Normal termination of Gaussian 09 at Wed Sep 29 03:35:12 2021.

 ----------------------------------------------------------------------
 #p freq b3lyp/6-31G* volume NMR pop=NPA density=current Geom=AllCheck
 Guess=Read
 ----------------------------------------------------------------------

 CC(=O)Oc1ccc2c(c1)ccc(c2)O_conf_0
 ---------------------------------
 Redundant internal coordinates taken from checkpoint file:
 C12H10O3_36f4_conf_0.chk
 Charge =  0 Multiplicity = 1

 SCF Done:  E(RB3LYP) =  -688.984793351     A.U. after    1 cycles

  1  C    Isotropic =   169.0575   Anisotropy =    39.6322

  2  C    Isotropic =    30.4622   Anisotropy =    74.7270

  3  O    Isotropic =   -79.8045   Anisotropy =   565.7675

  4  O    Isotropic =   104.0349   Anisotropy =   156.0551

  5  C    Isotropic =    48.4850   Anisotropy =   103.3857

  6  C    Isotropic =    72.4429   Anisotropy =   149.9690

  7  C    Isotropic =    68.1836   Anisotropy =   140.4976

  8  C    Isotropic =    63.9156   Anisotropy =   193.7811

  9  C    Isotropic =    68.2607   Anisotropy =   187.8586

 10  C    Isotropic =    77.8281   Anisotropy =   121.0165

 11  C    Isotropic =    66.7261   Anisotropy =   143.0310

 12  C    Isotropic =    79.9513   Anisotropy =   120.0180

 13  C    Isotropic =    44.1228   Anisotropy =   127.6564

 14  C    Isotropic =    85.0239   Anisotropy =   114.0280

 15  O    Isotropic =   215.4248   Anisotropy =    51.7216

 16  H    Isotropic =    30.5238   Anisotropy =     7.5847

 17  H    Isotropic =    29.9818   Anisotropy =     6.1262

 18  H    Isotropic =    29.9621   Anisotropy =     5.5339

 19  H    Isotropic =    24.8279   Anisotropy =     7.9872

 20  H    Isotropic =    24.7108   Anisotropy =     7.0173

 21  H    Isotropic =    25.1863   Anisotropy =     8.1089

 22  H    Isotropic =    24.7487   Anisotropy =     7.1765

 23  H    Isotropic =    25.7416   Anisotropy =     5.4493

 24  H    Isotropic =    25.2218   Anisotropy =     7.2321

 25  H    Isotropic =    28.6341   Anisotropy =    12.9276

  Exact polarizability: 223.891  -8.310 131.877  -7.968   2.658  57.924
 Approx polarizability: 332.788 -15.485 239.881 -17.493   1.586  94.777

                     1                      2                      3
                     A                      A                      A
 Frequencies --    31.9256                52.0833                75.2272
 Red. masses --     5.9180                 2.5202                 2.1103
 Frc consts  --     0.0036                 0.0040                 0.0070
 IR Inten    --     1.0157                 2.2996                 0.2154

                     4                      5                      6
                     A                      A                      A
 Frequencies --    88.8673               134.9403               188.4963
 Red. masses --     2.0709                 6.5498                 3.7029
 Frc consts  --     0.0096                 0.0703                 0.0775
 IR Inten    --     0.8384                 1.1362                 3.9290

                     7                      8                      9
                     A                      A                      A
 Frequencies --   245.5845               250.0063               282.0574
 Red. masses --     6.8965                 6.7216                 4.4099
 Frc consts  --     0.2451                 0.2475                 0.2067
 IR Inten    --     2.3968                 4.8491                 1.4326

                    10                     11                     12
                     A                      A                      A
 Frequencies --   320.7793               373.5704               400.3621
 Red. masses --     1.1118                 4.6976                 5.6522
 Frc consts  --     0.0674                 0.3862                 0.5338
 IR Inten    --   117.7791                 2.8258                 4.7344

                    13                     14                     15
                     A                      A                      A
 Frequencies --   412.9515               465.4166               472.3218
 Red. masses --     3.4002                 5.5918                 3.8481
 Frc consts  --     0.3416                 0.7137                 0.5058
 IR Inten    --     0.3080                10.5054                 0.6597

                    16                     17                     18
                     A                      A                      A
 Frequencies --   487.5009               536.0347               568.7396
 Red. masses --     2.7045                 6.3889                 3.0758
 Frc consts  --     0.3787                 1.0816                 0.5862
 IR Inten    --     6.2318                 0.0797                 2.5083

                    19                     20                     21
                     A                      A                      A
 Frequencies --   581.2535               594.9203               648.2378
 Red. masses --     5.1935                 2.9208                 4.7201
 Frc consts  --     1.0338                 0.6091                 1.1686
 IR Inten    --     0.6366                 5.7940                 6.7815

                    22                     23                     24
                     A                      A                      A
 Frequencies --   672.2055               732.6362               752.8283
 Red. masses --     4.7305                 5.2326                 3.4490
 Frc consts  --     1.2594                 1.6548                 1.1517
 IR Inten    --     4.8738                 9.9551                 3.3354

                    25                     26                     27
                     A                      A                      A
 Frequencies --   777.1274               802.7878               814.6327
 Red. masses --     5.4711                 1.4012                 1.9451
 Frc consts  --     1.9468                 0.5320                 0.7605
 IR Inten    --     1.8373                28.3229                 7.3437

                    28                     29                     30
                     A                      A                      A
 Frequencies --   839.7359               880.9493               891.2607
 Red. masses --     3.0720                 1.5181                 1.6285
 Frc consts  --     1.2763                 0.6942                 0.7621
 IR Inten    --     7.4720                13.3654                23.8007

                    31                     32                     33
                     A                      A                      A
 Frequencies --   922.8467               940.2316               956.5712
 Red. masses --     3.9240                 1.3405                 1.3259
 Frc consts  --     1.9690                 0.6982                 0.7148
 IR Inten    --    20.7940                 5.6810                 4.4925

                    34                     35                     36
                     A                      A                      A
 Frequencies --   976.0936               993.9056              1032.1420
 Red. masses --     4.2711                 3.1221                 1.7833
 Frc consts  --     2.3976                 1.8171                 1.1193
 IR Inten    --    44.4389                 2.2217                96.2773

                    37                     38                     39
                     A                      A                      A
 Frequencies --  1074.0970              1157.0969              1183.7266
 Red. masses --     1.7347                 1.6087                 1.3685
 Frc consts  --     1.1791                 1.2690                 1.1298
 IR Inten    --     7.9428                72.0159                 0.4249

                    40                     41                     42
                     A                      A                      A
 Frequencies --  1184.9217              1198.1139              1234.4481
 Red. masses --     1.4880                 1.4814                 1.4031
 Frc consts  --     1.2310                 1.2529                 1.2598
 IR Inten    --    99.4041                23.3014                28.7207

                    43                     44                     45
                     A                      A                      A
 Frequencies --  1249.1110              1269.3613              1291.1628
 Red. masses --     4.2556                 3.1760                 1.8107
 Frc consts  --     3.9121                 3.0151                 1.7785
 IR Inten    --   818.2613               108.6087                17.3666

                    46                     47                     48
                     A                      A                      A
 Frequencies --  1315.6674              1395.4520              1421.1309
 Red. masses --     2.7904                 1.9578                 1.9204
 Frc consts  --     2.8458                 2.2462                 2.2852
 IR Inten    --   157.7175                 6.4015                69.3558

                    49                     50                     51
                     A                      A                      A
 Frequencies --  1424.8955              1429.2978              1479.7264
 Red. masses --     2.6623                 3.8556                 2.9005
 Frc consts  --     3.1847                 4.6407                 3.7419
 IR Inten    --    11.1483                 7.7262                16.5817

                    52                     53                     54
                     A                      A                      A
 Frequencies --  1500.1952              1504.0941              1534.1463
 Red. masses --     1.0489                 1.0469                 2.7460
 Frc consts  --     1.3909                 1.3954                 3.8079
 IR Inten    --    12.7762                 8.3140                 0.9492

                    55                     56                     57
                     A                      A                      A
 Frequencies --  1564.9872              1632.6768              1674.8363
 Red. masses --     3.8383                 7.0926                 5.8680
 Frc consts  --     5.5387                11.1393                 9.6980
 IR Inten    --   119.2472                 9.9610                77.3050

                    58                     59                     60
                     A                      A                      A
 Frequencies --  1698.1553              1850.3277              3072.6500
 Red. masses --     6.2602                11.5256                 1.0371
 Frc consts  --    10.6364                23.2494                 5.7688
 IR Inten    --    35.6064               216.7116                 2.0322

                    61                     62                     63
                     A                      A                      A
 Frequencies --  3134.7882              3166.1831              3185.0605
 Red. masses --     1.1006                 1.0879                 1.1034
 Frc consts  --     6.3721                 6.4254                 6.5950
 IR Inten    --     5.0981                17.1971                 8.4649

                    64                     65                     66
                     A                      A                      A
 Frequencies --  3192.0446              3193.7696              3205.1247
 Red. masses --     1.0896                 1.0937                 1.0912
 Frc consts  --     6.5411                 6.5728                 6.6047
 IR Inten    --     9.6622                16.5413                 9.5287

                    67                     68                     69
                     A                      A                      A
 Frequencies --  3207.6049              3240.8752              3756.2878
 Red. masses --     1.0907                 1.0933                 1.0661
 Frc consts  --     6.6119                 6.7659                 8.8626
 IR Inten    --     5.9173                 4.5919                61.6661

 - Thermochemistry -
 -------------------
 Temperature   298.150 Kelvin.  Pressure   1.00000 Atm.
 Atom     1 has atomic number  6 and mass  12.00000

 Molecular mass:   202.06299 amu.
 Principal axes and moments of inertia in atomic units:
                           1         2         3
     Eigenvalues --   844.399526626.273747236.89468
           X            0.99999   0.00185  -0.00369
           Y           -0.00179   0.99986   0.01663
           Z            0.00372  -0.01662   0.99985
 This molecule is an asymmetric top.
 Rotational symmetry number  1.
 Warning -- assumption of classical behavior for rotation
           may cause significant error
 Rotational temperatures (Kelvin)      0.10257     0.01307     0.01197
 Rotational constants (GHZ):           2.13731     0.27236     0.24938
 Zero-point vibrational energy     507331.8 (Joules/Mol)
                                  121.25520 (Kcal/Mol)
 Warning -- explicit consideration of  20 degrees of freedom as
           vibrations may cause significant error
 Vibrational temperatures:     45.93    74.94   108.23   127.86   194.15
          (Kelvin)            271.20   353.34   359.70   405.82   461.53
                              537.48   576.03   594.14   669.63   679.56
                              701.40   771.23   818.29   836.29   855.96
                              932.67   967.15  1054.10  1083.15  1118.11
                             1155.03  1172.07  1208.19  1267.49  1282.32
                             1327.77  1352.78  1376.29  1404.38  1430.01
                             1485.02  1545.38  1664.80  1703.12  1704.84
                             1723.82  1776.09  1797.19  1826.33  1857.69
                             1892.95  2007.74  2044.69  2050.10  2056.44
                             2128.99  2158.44  2164.05  2207.29  2251.66
                             2349.05  2409.71  2443.26  2662.21  4420.85
                             4510.26  4555.43  4582.59  4592.63  4595.12
                             4611.45  4615.02  4662.89  5404.45

 Zero-point correction=                           0.193232 (Hartree/Particle)
 Thermal correction to Energy=                    0.206100
 Thermal correction to Enthalpy=                  0.207044
 Thermal correction to Gibbs Free Energy=         0.152824
 Sum of electronic and zero-point Energies=           -688.791561
 Sum of electronic and thermal Energies=              -688.778693
 Sum of electronic and thermal Enthalpies=            -688.777749
 Sum of electronic and thermal Free Energies=         -688.831969

                     E (Thermal)             CV                S
                      KCal/Mol        Cal/Mol-Kelvin    Cal/Mol-Kelvin
 Total                  129.330             49.497            114.116
 Electronic               0.000              0.000              0.000
 Translational            0.889              2.981             41.815
 Rotational               0.889              2.981             32.071
 Vibrational            127.552             43.535             40.230
 Vibration     1          0.594              1.983              5.706
 Vibration     2          0.596              1.977              4.737
 Vibration     3          0.599              1.966              4.012
 Vibration     4          0.602              1.957              3.685
 Vibration     5          0.613              1.918              2.874
 Vibration     6          0.633              1.856              2.243
 Vibration     7          0.660              1.770              1.762
 Vibration     8          0.663              1.763              1.731
 Vibration     9          0.681              1.707              1.521
 Vibration    10          0.706              1.634              1.306
 Vibration    11          0.745              1.526              1.065
 Vibration    12          0.766              1.469              0.961
 Vibration    13          0.777              1.442              0.916
 Vibration    14          0.823              1.327              0.751
 Vibration    15          0.829              1.311              0.731
 Vibration    16          0.843              1.278              0.690
 Vibration    17          0.891              1.170              0.574
 Vibration    18          0.925              1.099              0.507
 Vibration    19          0.938              1.072              0.483
 Vibration    20          0.953              1.043              0.458

 Optimization completed.
    -- Stationary point found.
 Normal termination of Gaussian 09 at Wed Sep 29 04:26:18 2021.
 Gaussian 09:  AM64L-G09RevA.02 11-Jun-2009

 ----------------------------------------------------------------------
 #p TD(NStates=10, Root=1) b3lyp/6-31G* volume pop=NPA density=current
 Geom=AllCheck Guess=Read
 ----------------------------------------------------------------------

 CC(=O)Oc1ccc2c(c1)ccc(c2)O_conf_0
 ---------------------------------
 Redundant internal coordinates taken from checkpoint file:
 C12H10O3_36f4_conf_0.chk
 Charge =  0 Multiplicity = 1

                         Standard orientation:
 ---------------------------------------------------------------------
 Center     Atomic      Atomic             Coordinates (Angstroms)
 Number     Number       Type             X           Y           Z
 ---------------------------------------------------------------------
      1          6           0        5.037828    0.612719   -0.110697
      2          6           0        3.720431   -0.018656    0.269717
      3          8           0        3.557594   -0.870995    1.107155
      4          8           0        2.714922    0.525906   -0.485844
      5          6           0        1.395595    0.093153   -0.314496
      6          6           0        1.051643   -1.277278   -0.401113
      7          6           0       -0.269477   -1.647489   -0.314411
      8          6           0       -1.301616   -0.682934   -0.144773
      9          6           0       -0.933834    0.700811   -0.066709
     10          6           0        0.436022    1.061439   -0.154212
     11          6           0       -1.961843    1.665231    0.097481
     12          6           0       -3.281965    1.287682    0.181718
     13          6           0       -3.639999   -0.082867    0.104135
     14          6           0       -2.667199   -1.047952   -0.056170
     15          8           0       -4.945291   -0.485918    0.184127
     16          1           0        5.835127    0.176812    0.491897
     17          1           0        4.997052    1.694994    0.049988
     18          1           0        5.240278    0.448795   -1.174220
     19          1           0        1.830082   -2.019996   -0.526461
     20          1           0       -0.540404   -2.698219   -0.377076
     21          1           0        0.730706    2.105499   -0.101193
     22          1           0       -1.694023    2.717110    0.157938
     23          1           0       -4.060033    2.038768    0.308470
     24          1           0       -2.959524   -2.092231   -0.113534
     25          1           0       -5.510577    0.293366    0.297867
 ---------------------------------------------------------------------

 SCF Done:  E(RB3LYP) =  -688.984793351     A.U. after    1 cycles

 Excitation energies and oscillator strengths:

 Excited State   1:      Singlet-A      4.0460 eV  306.43 nm  f=0.0561  <S**2>=0.000
      52 -> 54         0.12453
      52 -> 55         0.14818
      53 -> 54         0.65396
      53 -> 55        -0.14577
 This state for optimization and/or second-order correction.
 Total Energy, E(TD-HF/TD-KS) =  -688.836103840
 Copying the excited state density for this state as the 1-particle RhoCI density.

 Excited State   2:      Singlet-A      4.5106 eV  274.88 nm  f=0.0142  <S**2>=0.000
      52 -> 54        -0.46804
      53 -> 54         0.20722
      53 -> 55         0.47600

 Excited State   3:      Singlet-A      5.1132 eV  242.48 nm  f=0.1954  <S**2>=0.000
      52 -> 54        -0.29200
      53 -> 55        -0.37293
      53 -> 56         0.50711

 Excited State   4:      Singlet-A      5.5334 eV  224.06 nm  f=0.0563  <S**2>=0.000
      50 -> 55         0.16998
      50 -> 56        -0.17113
      51 -> 54         0.44977
      51 -> 55         0.22125
      51 -> 56        -0.15436
      52 -> 54         0.11370
      52 -> 55         0.15421
      52 -> 56        -0.10045
      53 -> 55         0.11021
      53 -> 57        -0.30707

 Excited State   5:      Singlet-A      5.6025 eV  221.30 nm  f=0.0494  <S**2>=0.000
      50 -> 54         0.27632
      50 -> 55         0.14958
      50 -> 56        -0.13257
      51 -> 54        -0.24796
      51 -> 55         0.16629
      51 -> 56        -0.11748
      52 -> 55         0.38519
      52 -> 56        -0.14160
      53 -> 55         0.10135
      53 -> 57         0.30057

 Excited State   6:      Singlet-A      5.7341 eV  216.22 nm  f=0.0785  <S**2>=0.000
      50 -> 54        -0.26122
      50 -> 55        -0.16737
      51 -> 54        -0.22244
      51 -> 55        -0.10586
      51 -> 56         0.15205
      52 -> 55         0.36289
      52 -> 56        -0.11957
      53 -> 56         0.19852
      53 -> 57        -0.30026

 Excited State   7:      Singlet-A      5.8703 eV  211.21 nm  f=0.6086  <S**2>=0.000
      50 -> 54         0.21336
      50 -> 55        -0.13313
      50 -> 56         0.13030
      51 -> 54         0.21689
      51 -> 55        -0.24032
      51 -> 56         0.10633
      52 -> 54         0.28019
      53 -> 55         0.19836
      53 -> 56         0.35286
      53 -> 57         0.21410

 Excited State   8:      Singlet-A      5.9725 eV  207.59 nm  f=0.2410  <S**2>=0.000
      50 -> 54         0.45183
      50 -> 55        -0.23299
      50 -> 56         0.11427
      51 -> 54         0.11534
      51 -> 56         0.18430
      52 -> 54        -0.19116
      52 -> 55         0.15080
      52 -> 57        -0.13608
      53 -> 55        -0.12338
      53 -> 56        -0.17997
      53 -> 57        -0.19105

 Excited State   9:      Singlet-A      6.0360 eV  205.41 nm  f=0.3105  <S**2>=0.000
      49 -> 54         0.10960
      50 -> 54        -0.20772
      51 -> 54         0.29351
      51 -> 55        -0.21028
      52 -> 54        -0.17911
      52 -> 55         0.29317
      52 -> 56        -0.17553
      52 -> 57         0.17934
      53 -> 55        -0.15043
      53 -> 56        -0.14589
      53 -> 57         0.24273

 Excited State  10:      Singlet-A      6.2808 eV  197.40 nm  f=0.1146  <S**2>=0.000
      52 -> 55         0.21835
      52 -> 56         0.62848

 The electronic state is 1-A.
 Alpha  occ. eigenvalues --  -19.19932 -19.18156 -19.14079 -10.32353 -10.25270
 Alpha  occ. eigenvalues --  -10.24919 -10.20066 -10.20009 -10.19940 -10.19897
 Alpha  occ. eigenvalues --  -10.19838 -10.19370 -10.19249 -10.19212 -10.18435
 Alpha  occ. eigenvalues --   -1.10646  -1.06169  -1.02419  -0.87372  -0.82247
 Alpha  occ. eigenvalues --   -0.77871  -0.76275  -0.73617  -0.72088  -0.64234
 Alpha  occ. eigenvalues --   -0.63528  -0.60449  -0.58412  -0.54924  -0.51486
 Alpha  occ. eigenvalues --   -0.49386  -0.48472  -0.47783  -0.46950  -0.46385
 Alpha  occ. eigenvalues --   -0.44675  -0.43109  -0.42217  -0.41528  -0.41129
 Alpha  occ. eigenvalues --   -0.40199  -0.39929  -0.38403  -0.37034  -0.36602
 Alpha  occ. eigenvalues --   -0.35922  -0.33786  -0.32199  -0.30156  -0.27947
 Alpha  occ. eigenvalues --   -0.27272  -0.23451  -0.20406
 Alpha virt. eigenvalues --   -0.03848  -0.00784   0.01392   0.03268   0.06410
 Alpha virt. eigenvalues --    0.09268   0.10714   0.10911   0.11519   0.12442
 Alpha virt. eigenvalues --    0.15107   0.16703   0.17317   0.17904   0.18480

 Mulliken atomic charges:
              1
     1  C   -0.526127
     2  C    0.591584
     3  O   -0.435554
     4  O   -0.509366
     5  C    0.371818
     6  C   -0.161412
     7  C   -0.227161
     8  C    0.152786
     9  C    0.145003
    10  C   -0.262827
    11  C   -0.209938
    12  C   -0.221612
    13  C    0.365808
    14  C   -0.240159
    15  O   -0.600792
    16  H    0.186277
    17  H    0.185369
    18  H    0.186046
    19  H    0.136974
    20  H    0.128018
    21  H    0.133747
    22  H    0.129707
    23  H    0.109376
    24  H    0.147551
    25  H    0.424884
 Sum of Mulliken atomic charges =  -0.00000

 Dipole moment (field-independent basis, Debye):
    X=             -1.4821    Y=              2.2378    Z=             -0.9569  Tot=              2.8496
 Quadrupole moment (field-independent basis, Debye-Ang):
   XX=            -60.3130   YY=            -80.5562   ZZ=            -90.8431
   XY=             -0.2049   XZ=             -6.5732   YZ=              3.6036

 Summary of Natural Population Analysis:

                                       Natural Population
                Natural  -----------------------------------------------
    Atom  No    Charge         Core      Valence    Rydberg      Total
 -----------------------------------------------------------------------
      C    1   -0.77547      1.99933     4.76945    0.00669     6.77547
      C    2    0.82490      1.99945     3.13243    0.04322     5.17510
      O    3   -0.56545      1.99978     6.54561    0.02006     8.56545
      O    4   -0.53637      1.99970     6.52528    0.01138     8.53637
      C    5    0.35511      1.99870     3.62394    0.02225     5.64489
      C    6   -0.32087      1.99902     4.30615    0.01570     6.32087
      C    7   -0.22238      1.99907     4.20775    0.01555     6.22238
      C    8   -0.05412      1.99903     4.04007    0.01502     6.05412
      C    9   -0.04493      1.99903     4.03085    0.01505     6.04493
      C   10   -0.27442      1.99896     4.25981    0.01565     6.27442
      C   11   -0.21057      1.99907     4.19545    0.01605     6.21057
      C   12   -0.38148      1.99904     4.36639    0.01605     6.38148
      C   13    0.37893      1.99878     3.60070    0.02160     5.62107
      C   14   -0.25043      1.99898     4.23584    0.01561     6.25043
      O   15   -0.62531      1.99978     6.61436    0.01117     8.62531
      H   16    0.25863      0.00000     0.74046    0.00091     0.74137
      H   17    0.25897      0.00000     0.74017    0.00086     0.74103
      H   18    0.25944      0.00000     0.73971    0.00084     0.74056
      H   19    0.24889      0.00000     0.75022    0.00089     0.75111
      H   20    0.23281      0.00000     0.76613    0.00106     0.76719
      H   21    0.24174      0.00000     0.75681    0.00145     0.75826
      H   22    0.23430      0.00000     0.76463    0.00108     0.76570
      H   23    0.22489      0.00000     0.77414    0.00097     0.77511
      H   24    0.24569      0.00000     0.75284    0.00147     0.75431
      H   25    0.49750      0.00000     0.50114    0.00136     0.50250
 =======================================================================
   * Total *   -0.00000     29.98772    75.74034    0.27194   106.00000

 Normal termination of Gaussian 09 at Wed Sep 29 08:19:26 2021.
