 Gaussian 09, Revision A.02,

 -----------------------------------
 #p opt b3lyp/6-31G* scf=(xqc,tight)
 -----------------------------------

 ------------------------------
 CC(=O)Oc1ccc2c(c1)cccc2_conf_0
 ------------------------------
 Symbolic Z-matrix:
 Charge =  0 Multiplicity = 1

 SCF Done:  E(RB3LYP) =  -613.764324225     A.U. after   15 cycles
 SCF Done:  E(RB3LYP) =  -613.768968574     A.U. after   12 cycles
 SCF Done:  E(RB3LYP) =  -613.768895953     A.U. after   13 cycles
 SCF Done:  E(RB3LYP) =  -613.769286635     A.U. after   12 cycles
 SCF Done:  E(RB3LYP) =  -613.769210243     A.U. after   11 cycles
 SCF Done:  E(RB3LYP) =  -613.769379497     A.U. after   12 cycles
 SCF Done:  E(RB3LYP) =  -613.769414950     A.U. after   11 cycles
 SCF Done:  E(RB3LYP) =  -613.769417699     A.U. after    9 cycles
 SCF Done:  E(RB3LYP) =  -613.769426485     A.U. after   16 cycles
 SCF Done:  E(RB3LYP) =  -613.769436344     A.U. after   11 cycles
 SCF Done:  E(RB3LYP) =  -613.769464083     A.U. after   11 cycles
 SCF Done:  E(RB3LYP) =  -613.769497171     A.U. after   11 cycles
 SCF Done:  E(RB3LYP) =  -613.769494078     A.U. after   16 cycles
 SCF Done:  E(RB3LYP) =  -613.769499101     A.U. after   16 cycles
 SCF Done:  E(RB3LYP) =  -613.769499278     A.U. after    9 cycles
 SCF Done:  E(RB3LYP) =  -613.769499295     A.U. after   16 cycles
 SCF Done:  E(RB3LYP) =  -613.769499302     A.U. after   16 cycles
 SCF Done:  E(RB3LYP) =  -613.769499306     A.U. after   16 cycles
 Optimization completed.
    -- Stationary point found.
 Normal termination of Gaussian 09 at Wed Sep 29 04:36:58 2021.

 ----------------------------------------------------------------------
 #p freq b3lyp/6-31G* volume NMR pop=NPA density=current Geom=AllCheck
 Guess=Read
 ----------------------------------------------------------------------

 CC(=O)Oc1ccc2c(c1)cccc2_conf_0
 ------------------------------
 Redundant internal coordinates taken from checkpoint file:
 C12H10O2_f078_conf_0.chk
 Charge =  0 Multiplicity = 1

 SCF Done:  E(RB3LYP) =  -613.769499306     A.U. after    1 cycles

  1  C    Isotropic =   167.7265   Anisotropy =    41.6300

  2  C    Isotropic =    29.6633   Anisotropy =    74.1827

  3  O    Isotropic =   -92.0647   Anisotropy =   557.7016

  4  O    Isotropic =   108.3461   Anisotropy =   176.0716

  5  C    Isotropic =    44.7926   Anisotropy =   105.0114

  6  C    Isotropic =    77.0961   Anisotropy =   134.9931

  7  C    Isotropic =    67.1930   Anisotropy =   143.3016

  8  C    Isotropic =    66.2693   Anisotropy =   195.9710

  9  C    Isotropic =    62.3967   Anisotropy =   195.2408

 10  C    Isotropic =    78.1482   Anisotropy =   131.0398

 11  C    Isotropic =    66.9323   Anisotropy =   146.5635

 12  C    Isotropic =    69.8328   Anisotropy =   162.8615

 13  C    Isotropic =    70.9171   Anisotropy =   161.0698

 14  C    Isotropic =    68.1999   Anisotropy =   145.5147

 15  H    Isotropic =    30.5049   Anisotropy =     7.4819

 16  H    Isotropic =    29.9136   Anisotropy =     5.7660

 17  H    Isotropic =    29.9135   Anisotropy =     5.7658

 18  H    Isotropic =    25.2302   Anisotropy =     6.4699

 19  H    Isotropic =    24.6391   Anisotropy =     6.6804

 20  H    Isotropic =    23.2861   Anisotropy =    11.2452

 21  H    Isotropic =    24.5495   Anisotropy =     7.5230

 22  H    Isotropic =    24.7801   Anisotropy =     5.2341

 23  H    Isotropic =    24.8409   Anisotropy =     5.0253

 24  H    Isotropic =    24.6537   Anisotropy =     6.7789

  Exact polarizability: 207.267 -11.598 138.562  -0.003  -0.002  49.309
 Approx polarizability: 308.343 -24.855 254.904  -0.006  -0.003  76.225

                     1                      2                      3
                     A                      A                      A
 Frequencies --    14.2546                53.8486                84.1213
 Red. masses --     5.6842                 2.8211                 1.2056
 Frc consts  --     0.0007                 0.0048                 0.0050
 IR Inten    --     1.9719                 2.3808                 0.0466

                     4                      5                      6
                     A                      A                      A
 Frequencies --   132.3876               147.9017               185.4532
 Red. masses --     4.9951                 5.2353                 3.7041
 Frc consts  --     0.0516                 0.0675                 0.0751
 IR Inten    --     2.7152                 0.0671                 0.6184

                     7                      8                      9
                     A                      A                      A
 Frequencies --   284.2784               302.7040               319.7227
 Red. masses --     5.2255                 4.7359                 5.1387
 Frc consts  --     0.2488                 0.2557                 0.3095
 IR Inten    --     2.5259                 1.4256                 0.7929

                    10                     11                     12
                     A                      A                      A
 Frequencies --   409.8916               424.8813               486.7849
 Red. masses --     3.4008                 4.4144                 2.6031
 Frc consts  --     0.3366                 0.4695                 0.3634
 IR Inten    --     0.0000                 4.7434                10.4684

                    13                     14                     15
                     A                      A                      A
 Frequencies --   493.7018               526.9156               540.4232
 Red. masses --     4.9128                 6.6954                 3.5892
 Frc consts  --     0.7055                 1.0952                 0.6176
 IR Inten    --     6.3626                 0.9013                 0.0228

                    16                     17                     18
                     A                      A                      A
 Frequencies --   589.9300               617.6279               651.4655
 Red. masses --     2.9383                 5.8616                 3.1672
 Frc consts  --     0.6025                 1.3174                 0.7920
 IR Inten    --     5.1626                 0.6316                 0.0000

                    19                     20                     21
                     A                      A                      A
 Frequencies --   663.5107               736.5230               765.4431
 Red. masses --     5.6514                 6.5558                 1.3102
 Frc consts  --     1.4659                 2.0953                 0.4523
 IR Inten    --    13.0096                 5.1290                20.9151

                    22                     23                     24
                     A                      A                      A
 Frequencies --   773.9970               786.6861               830.9082
 Red. masses --     3.1726                 4.7994                 1.3912
 Frc consts  --     1.1198                 1.7500                 0.5659
 IR Inten    --     2.1695                 0.1870                30.6806

                    25                     26                     27
                     A                      A                      A
 Frequencies --   878.3334               900.5019               920.5006
 Red. masses --     1.5217                 5.4177                 1.4448
 Frc consts  --     0.6917                 2.5884                 0.7213
 IR Inten    --    14.3862                 4.9140                18.3287

                    28                     29                     30
                     A                      A                      A
 Frequencies --   936.3654               954.8394               965.3009
 Red. masses --     6.2284                 1.3227                 1.3107
 Frc consts  --     3.2175                 0.7105                 0.7196
 IR Inten    --     5.0158                 5.0065                 0.9525

                    31                     32                     33
                     A                      A                      A
 Frequencies --   980.0325               990.4125              1040.5438
 Red. masses --     3.6524                 1.2736                 1.8114
 Frc consts  --     2.0669                 0.7360                 1.1556
 IR Inten    --     7.6060                 0.1272                84.2900

                    34                     35                     36
                     A                      A                      A
 Frequencies --  1052.7020              1072.6647              1148.4656
 Red. masses --     2.2112                 1.7195                 1.7378
 Frc consts  --     1.4438                 1.1657                 1.3505
 IR Inten    --     1.5383                 7.0493                17.9155

                    37                     38                     39
                     A                      A                      A
 Frequencies --  1178.1621              1184.7803              1188.2805
 Red. masses --     1.2347                 1.6720                 1.1853
 Frc consts  --     1.0098                 1.3828                 0.9861
 IR Inten    --     1.5396                91.6812                 0.3176

                    40                     41                     42
                     A                      A                      A
 Frequencies --  1246.3305              1254.9711              1283.5169
 Red. masses --     2.9316                 3.7863                 1.7480
 Frc consts  --     2.6830                 3.5135                 1.6967
 IR Inten    --     2.9585               631.1829               137.1805

                    43                     44                     45
                     A                      A                      A
 Frequencies --  1297.1586              1397.4212              1412.4760
 Red. masses --     1.8636                 1.9451                 5.0647
 Frc consts  --     1.8475                 2.2380                 5.9534
 IR Inten    --    50.5581                 0.8672                16.9793

                    46                     47                     48
                     A                      A                      A
 Frequencies --  1423.2054              1427.0734              1488.3013
 Red. masses --     1.3605                 4.6427                 2.5274
 Frc consts  --     1.6237                 5.5708                 3.2984
 IR Inten    --    43.4835                63.1910                 3.6852

                    49                     50                     51
                     A                      A                      A
 Frequencies --  1499.7672              1504.2873              1514.5481
 Red. masses --     1.0505                 1.0463                 2.2100
 Frc consts  --     1.3921                 1.3949                 2.9868
 IR Inten    --    12.6840                 8.1899                36.0335

                    52                     53                     54
                     A                      A                      A
 Frequencies --  1564.8709              1631.2239              1658.5607
 Red. masses --     3.4466                 7.3960                 5.3772
 Frc consts  --     4.9728                11.5950                 8.7150
 IR Inten    --    21.5078                 8.2453                41.8463

                    55                     56                     57
                     A                      A                      A
 Frequencies --  1683.8959              1836.2085              3072.2305
 Red. masses --     6.1533                11.2918                 1.0371
 Frc consts  --    10.2800                22.4315                 5.7672
 IR Inten    --    19.7712               187.0657                 1.8031

                    58                     59                     60
                     A                      A                      A
 Frequencies --  3134.7922              3178.2454              3184.4625
 Red. masses --     1.1007                 1.0859                 1.0878
 Frc consts  --     6.3731                 6.4628                 6.4993
 IR Inten    --     5.4600                 3.0797                 0.7006

                    61                     62                     63
                     A                      A                      A
 Frequencies --  3184.7212              3188.8917              3197.0768
 Red. masses --     1.1033                 1.0885                 1.0934
 Frc consts  --     6.5928                 6.5214                 6.5849
 IR Inten    --     8.0243                 9.0480                32.8856

                    64                     65                     66
                     A                      A                      A
 Frequencies --  3209.3074              3218.9458              3281.4380
 Red. masses --     1.0973                 1.0939                 1.0911
 Frc consts  --     6.6586                 6.6783                 6.9221
 IR Inten    --    31.2683                 8.3809                 2.8638

 - Thermochemistry -
 -------------------
 Temperature   298.150 Kelvin.  Pressure   1.00000 Atm.
 Atom     1 has atomic number  6 and mass  12.00000

 Molecular mass:   186.06808 amu.
 Principal axes and moments of inertia in atomic units:
                           1         2         3
     Eigenvalues --   941.130344772.230825702.15420
           X            0.99998  -0.00610  -0.00000
           Y            0.00610   0.99998  -0.00001
           Z            0.00000   0.00001   1.00000
 This molecule is an asymmetric top.
 Rotational symmetry number  1.
 Warning -- assumption of classical behavior for rotation
           may cause significant error
 Rotational temperatures (Kelvin)      0.09203     0.01815     0.01519
 Rotational constants (GHZ):           1.91763     0.37818     0.31650
 Zero-point vibrational energy     497581.8 (Joules/Mol)
                                  118.92490 (Kcal/Mol)
 Warning -- explicit consideration of  17 degrees of freedom as
           vibrations may cause significant error
 Vibrational temperatures:     20.51    77.48   121.03   190.48   212.80
          (Kelvin)            266.83   409.01   435.52   460.01   589.74
                              611.31   700.37   710.33   758.11   777.55
                              848.78   888.63   937.31   954.64  1059.69
                             1101.30  1113.61  1131.86  1195.49  1263.72
                             1295.62  1324.39  1347.22  1373.80  1388.85
                             1410.05  1424.98  1497.11  1514.60  1543.32
                             1652.38  1695.11  1704.63  1709.67  1793.19
                             1805.62  1846.69  1866.32  2010.57  2032.24
                             2047.67  2053.24  2141.33  2157.83  2164.33
                             2179.09  2251.50  2346.96  2386.30  2422.75
                             2641.89  4420.25  4510.26  4572.78  4581.73
                             4582.10  4588.10  4599.87  4617.47  4631.34
                             4721.25

 Zero-point correction=                           0.189519 (Hartree/Particle)
 Thermal correction to Energy=                    0.201116
 Thermal correction to Enthalpy=                  0.202060
 Thermal correction to Gibbs Free Energy=         0.149907
 Sum of electronic and zero-point Energies=           -613.579980
 Sum of electronic and thermal Energies=              -613.568384
 Sum of electronic and thermal Enthalpies=            -613.567439
 Sum of electronic and thermal Free Energies=         -613.619593

                     E (Thermal)             CV                S
                      KCal/Mol        Cal/Mol-Kelvin    Cal/Mol-Kelvin
 Total                  126.202             44.653            109.766
 Electronic               0.000              0.000              0.000
 Translational            0.889              2.981             41.569
 Rotational               0.889              2.981             31.616
 Vibrational            124.425             38.691             36.581
 Vibration     1          0.593              1.986              7.307
 Vibration     2          0.596              1.976              4.671
 Vibration     3          0.601              1.960              3.792
 Vibration     4          0.613              1.921              2.911
 Vibration     5          0.617              1.905              2.699
 Vibration     6          0.632              1.860              2.273
 Vibration     7          0.683              1.703              1.508
 Vibration     8          0.694              1.669              1.402
 Vibration     9          0.706              1.636              1.312
 Vibration    10          0.774              1.449              0.927
 Vibration    11          0.787              1.416              0.876
 Vibration    12          0.843              1.279              0.692
 Vibration    13          0.849              1.264              0.674
 Vibration    14          0.882              1.190              0.594
 Vibration    15          0.895              1.161              0.564
 Vibration    16          0.947              1.053              0.467
 Vibration    17          0.977              0.995              0.420

 Optimization completed.
    -- Stationary point found.
 Normal termination of Gaussian 09 at Wed Sep 29 05:22:38 2021.
 Gaussian 09:  AM64L-G09RevA.02 11-Jun-2009

 ----------------------------------------------------------------------
 #p TD(NStates=10, Root=1) b3lyp/6-31G* volume pop=NPA density=current
 Geom=AllCheck Guess=Read
 ----------------------------------------------------------------------

 CC(=O)Oc1ccc2c(c1)cccc2_conf_0
 ------------------------------
 Redundant internal coordinates taken from checkpoint file:
 C12H10O2_f078_conf_0.chk
 Charge =  0 Multiplicity = 1

                         Standard orientation:
 ---------------------------------------------------------------------
 Center     Atomic      Atomic             Coordinates (Angstroms)
 Number     Number       Type             X           Y           Z
 ---------------------------------------------------------------------
      1          6           0       -4.653466    0.009453    0.000005
      2          6           0       -3.222307   -0.474411   -0.000060
      3          8           0       -2.876599   -1.631809   -0.000288
      4          8           0       -2.384962    0.603069    0.000196
      5          6           0       -0.990834    0.543653    0.000092
      6          6           0       -0.397597    1.832065   -0.000005
      7          6           0        0.968744    1.960678   -0.000066
      8          6           0        1.810599    0.815483   -0.000032
      9          6           0        1.198523   -0.479098    0.000072
     10          6           0       -0.219471   -0.597376    0.000134
     11          6           0        2.034474   -1.628498    0.000104
     12          6           0        3.405871   -1.504022    0.000035
     13          6           0        4.009433   -0.222833   -0.000067
     14          6           0        3.227065    0.910437   -0.000099
     15          1           0       -5.323511   -0.850730   -0.000312
     16          1           0       -4.842446    0.629989   -0.882109
     17          1           0       -4.842549    0.629398    0.882514
     18          1           0       -1.049593    2.699692   -0.000026
     19          1           0        1.421737    2.949007   -0.000140
     20          1           0       -0.676898   -1.575679    0.000191
     21          1           0        1.569944   -2.611474    0.000182
     22          1           0        4.031875   -2.392304    0.000057
     23          1           0        5.092717   -0.138128   -0.000121
     24          1           0        3.685008    1.896980   -0.000180
 ---------------------------------------------------------------------

 SCF Done:  E(RB3LYP) =  -613.769499306     A.U. after    1 cycles

 Excitation energies and oscillator strengths:

 Excited State   1:      Singlet-A      4.3414 eV  285.59 nm  f=0.0336  <S**2>=0.000
      48 -> 50         0.24719
      48 -> 51         0.13412
      49 -> 50         0.59376
      49 -> 51        -0.23242
 This state for optimization and/or second-order correction.
 Total Energy, E(TD-HF/TD-KS) =  -613.609956691
 Copying the excited state density for this state as the 1-particle RhoCI density.

 Excited State   2:      Singlet-A      4.4266 eV  280.09 nm  f=0.0084  <S**2>=0.000
      48 -> 50        -0.43015
      49 -> 50         0.34048
      49 -> 51         0.43221

 Excited State   3:      Singlet-A      5.2823 eV  234.72 nm  f=0.4187  <S**2>=0.000
      48 -> 50         0.33164
      49 -> 51         0.42248
      49 -> 52         0.44614

 Excited State   4:      Singlet-A      5.3701 eV  230.88 nm  f=0.0005  <S**2>=0.000
      47 -> 50         0.53615
      47 -> 51         0.35306
      47 -> 52         0.28636

 Excited State   5:      Singlet-A      5.6363 eV  219.98 nm  f=0.2933  <S**2>=0.000
      46 -> 50         0.25542
      48 -> 50         0.22391
      48 -> 51         0.41923
      48 -> 52         0.18100
      49 -> 51         0.14924
      49 -> 52        -0.35387
      49 -> 53        -0.14280

 Excited State   6:      Singlet-A      5.7907 eV  214.11 nm  f=0.0408  <S**2>=0.000
      46 -> 50         0.41454
      48 -> 51        -0.37367
      48 -> 52        -0.12667
      49 -> 53        -0.40139

 Excited State   7:      Singlet-A      6.0106 eV  206.28 nm  f=0.0004  <S**2>=0.000
      47 -> 50        -0.44918
      47 -> 51         0.47261
      47 -> 52         0.23876

 Excited State   8:      Singlet-A      6.0847 eV  203.76 nm  f=0.3574  <S**2>=0.000
      45 -> 50         0.18239
      46 -> 51         0.24242
      48 -> 50        -0.20063
      48 -> 51         0.34552
      48 -> 52        -0.25728
      48 -> 53        -0.16198
      49 -> 51        -0.12208
      49 -> 52         0.24490
      49 -> 53        -0.23861

 Excited State   9:      Singlet-A      6.2127 eV  199.57 nm  f=0.4082  <S**2>=0.000
      46 -> 50         0.17430
      46 -> 51        -0.30998
      48 -> 50        -0.20912
      48 -> 51         0.11331
      48 -> 52         0.35523
      48 -> 53         0.24575
      49 -> 51        -0.17207
      49 -> 52         0.28772

 Excited State  10:      Singlet-A      6.4753 eV  191.47 nm  f=0.0441  <S**2>=0.000
      45 -> 50         0.14778
      46 -> 50        -0.19151
      46 -> 51         0.21800
      46 -> 52        -0.11599
      48 -> 51        -0.11661
      48 -> 52         0.46125
      48 -> 53        -0.27631
      49 -> 53        -0.22197

 The electronic state is 1-A.
 Alpha  occ. eigenvalues --  -19.20813 -19.14633 -10.32918 -10.25663 -10.20180
 Alpha  occ. eigenvalues --  -10.19969 -10.19747 -10.19603 -10.19501 -10.19090
 Alpha  occ. eigenvalues --  -10.19050 -10.18987 -10.18900 -10.18773  -1.11239
 Alpha  occ. eigenvalues --   -1.03121  -0.87330  -0.82436  -0.77726  -0.76657
 Alpha  occ. eigenvalues --   -0.73583  -0.71715  -0.65848  -0.61834  -0.59802
 Alpha  occ. eigenvalues --   -0.57474  -0.51791  -0.51165  -0.49677  -0.48000
 Alpha  occ. eigenvalues --   -0.47105  -0.45991  -0.44462  -0.43440  -0.42004
 Alpha  occ. eigenvalues --   -0.41543  -0.41520  -0.40947  -0.38423  -0.37799
 Alpha  occ. eigenvalues --   -0.37478  -0.35275  -0.34344  -0.33452  -0.31057
 Alpha  occ. eigenvalues --   -0.28264  -0.27616  -0.23679  -0.21355
 Alpha virt. eigenvalues --   -0.03880  -0.01449   0.01252   0.03526   0.09221
 Alpha virt. eigenvalues --    0.10523   0.10807   0.11327   0.12428   0.14992
 Alpha virt. eigenvalues --    0.16811   0.16815   0.17214   0.17904   0.18929

 Mulliken atomic charges:
              1
     1  C   -0.525018
     2  C    0.590760
     3  O   -0.439669
     4  O   -0.488429
     5  C    0.349970
     6  C   -0.195362
     7  C   -0.213870
     8  C    0.157927
     9  C    0.127991
    10  C   -0.245244
    11  C   -0.194210
    12  C   -0.153574
    13  C   -0.111393
    14  C   -0.206306
    15  H    0.187610
    16  H    0.187136
    17  H    0.187139
    18  H    0.132437
    19  H    0.129110
    20  H    0.191111
    21  H    0.134652
    22  H    0.125541
    23  H    0.138901
    24  H    0.132791
 Sum of Mulliken atomic charges =  -0.00000

 Dipole moment (field-independent basis, Debye):
    X=             -0.6301    Y=              1.4605    Z=              0.0003  Tot=              1.5906
 Quadrupole moment (field-independent basis, Debye-Ang):
   XX=            -63.2256   YY=            -78.7609   ZZ=            -82.8450
   XY=             -3.8114   XZ=             -0.0015   YZ=             -0.0018

 Summary of Natural Population Analysis:

                                       Natural Population
                Natural  -----------------------------------------------
    Atom  No    Charge         Core      Valence    Rydberg      Total
 -----------------------------------------------------------------------
      C    1   -0.77434      1.99934     4.76835    0.00664     6.77434
      C    2    0.82155      1.99945     3.13632    0.04268     5.17845
      O    3   -0.57750      1.99977     6.55757    0.02015     8.57750
      O    4   -0.51390      1.99969     6.50277    0.01143     8.51390
      C    5    0.36269      1.99873     3.61690    0.02168     5.63731
      C    6   -0.32242      1.99905     4.30630    0.01707     6.32242
      C    7   -0.21967      1.99907     4.20480    0.01581     6.21967
      C    8   -0.05056      1.99903     4.03652    0.01501     6.05056
      C    9   -0.04604      1.99903     4.03168    0.01533     6.04604
      C   10   -0.26648      1.99898     4.25212    0.01539     6.26648
      C   11   -0.20029      1.99906     4.18579    0.01545     6.20029
      C   12   -0.29024      1.99912     4.27493    0.01619     6.29024
      C   13   -0.16265      1.99911     4.14877    0.01477     6.16265
      C   14   -0.22265      1.99907     4.20825    0.01534     6.22265
      H   15    0.25947      0.00000     0.73964    0.00089     0.74053
      H   16    0.25939      0.00000     0.73977    0.00084     0.74061
      H   17    0.25939      0.00000     0.73977    0.00084     0.74061
      H   18    0.24471      0.00000     0.75426    0.00103     0.75529
      H   19    0.23359      0.00000     0.76533    0.00108     0.76641
      H   20    0.26907      0.00000     0.72915    0.00178     0.73093
      H   21    0.23352      0.00000     0.76536    0.00112     0.76648
      H   22    0.23531      0.00000     0.76390    0.00079     0.76469
      H   23    0.23548      0.00000     0.76366    0.00086     0.76452
      H   24    0.23258      0.00000     0.76628    0.00114     0.76742
 =======================================================================
   * Total *   -0.00000     27.98850    69.75819    0.25330    98.00000

 Normal termination of Gaussian 09 at Wed Sep 29 08:49:43 2021.
