 Gaussian 09, Revision A.02,

 -----------------------------------
 #p opt b3lyp/6-31G* scf=(xqc,tight)
 -----------------------------------

 ----------------------------
 CC(=O)Oc1cccc2c1cccc2_conf_0
 ----------------------------
 Symbolic Z-matrix:
 Charge =  0 Multiplicity = 1

 SCF Done:  E(RB3LYP) =  -613.762300659     A.U. after   16 cycles
 SCF Done:  E(RB3LYP) =  -613.768110161     A.U. after   13 cycles
 SCF Done:  E(RB3LYP) =  -613.768141449     A.U. after   13 cycles
 SCF Done:  E(RB3LYP) =  -613.768090405     A.U. after   12 cycles
 SCF Done:  E(RB3LYP) =  -613.768378031     A.U. after   11 cycles
 SCF Done:  E(RB3LYP) =  -613.768462912     A.U. after   11 cycles
 SCF Done:  E(RB3LYP) =  -613.768474379     A.U. after   11 cycles
 SCF Done:  E(RB3LYP) =  -613.768489076     A.U. after   10 cycles
 SCF Done:  E(RB3LYP) =  -613.768518465     A.U. after   12 cycles
 SCF Done:  E(RB3LYP) =  -613.768541886     A.U. after   12 cycles
 SCF Done:  E(RB3LYP) =  -613.768544316     A.U. after    9 cycles
 SCF Done:  E(RB3LYP) =  -613.768545886     A.U. after    9 cycles
 SCF Done:  E(RB3LYP) =  -613.768547500     A.U. after    9 cycles
 SCF Done:  E(RB3LYP) =  -613.768548413     A.U. after   10 cycles
 SCF Done:  E(RB3LYP) =  -613.768548487     A.U. after    7 cycles
 Optimization completed.
    -- Stationary point found.
 Normal termination of Gaussian 09 at Wed Sep 29 03:34:02 2021.

 ----------------------------------------------------------------------
 #p freq b3lyp/6-31G* volume NMR pop=NPA density=current Geom=AllCheck
 Guess=Read
 ----------------------------------------------------------------------

 CC(=O)Oc1cccc2c1cccc2_conf_0
 ----------------------------
 Redundant internal coordinates taken from checkpoint file:
 C12H10O2_efb4_conf_0.chk
 Charge =  0 Multiplicity = 1

 SCF Done:  E(RB3LYP) =  -613.768548487     A.U. after    1 cycles

  1  C    Isotropic =   168.9500   Anisotropy =    39.5095

  2  C    Isotropic =    31.0153   Anisotropy =    77.1853

  3  O    Isotropic =   -78.2554   Anisotropy =   571.4155

  4  O    Isotropic =   110.4261   Anisotropy =   177.9252

  5  C    Isotropic =    49.0482   Anisotropy =    99.0274

  6  C    Isotropic =    76.4089   Anisotropy =   148.7912

  7  C    Isotropic =    70.5260   Anisotropy =   159.1363

  8  C    Isotropic =    70.8185   Anisotropy =   142.3374

  9  C    Isotropic =    62.5079   Anisotropy =   195.9147

 10  C    Isotropic =    69.9256   Anisotropy =   179.3612

 11  C    Isotropic =    73.1114   Anisotropy =   162.5125

 12  C    Isotropic =    70.5683   Anisotropy =   162.2193

 13  C    Isotropic =    70.2373   Anisotropy =   162.7463

 14  C    Isotropic =    67.8328   Anisotropy =   145.7421

 15  H    Isotropic =    29.8113   Anisotropy =     6.1133

 16  H    Isotropic =    29.8604   Anisotropy =     5.5014

 17  H    Isotropic =    30.4160   Anisotropy =     7.7764

 18  H    Isotropic =    24.7898   Anisotropy =     8.4681

 19  H    Isotropic =    24.8057   Anisotropy =     4.9403

 20  H    Isotropic =    24.7179   Anisotropy =     6.3042

 21  H    Isotropic =    24.1387   Anisotropy =     9.6690

 22  H    Isotropic =    24.7621   Anisotropy =     5.6984

 23  H    Isotropic =    24.7858   Anisotropy =     5.0163

 24  H    Isotropic =    24.5601   Anisotropy =     6.7355

  Exact polarizability: 171.612 -10.697 158.424   6.924   0.530  54.893
 Approx polarizability: 263.134 -27.383 280.282  13.340   5.087  89.938

                     1                      2                      3
                     A                      A                      A
 Frequencies --    25.6832                61.4847                91.8656
 Red. masses --     6.9591                 2.4536                 1.3016
 Frc consts  --     0.0027                 0.0055                 0.0065
 IR Inten    --     1.7133                 2.2435                 0.1322

                     4                      5                      6
                     A                      A                      A
 Frequencies --   104.5168               169.5725               179.9667
 Red. masses --     3.6411                 4.5940                 4.1245
 Frc consts  --     0.0234                 0.0778                 0.0787
 IR Inten    --     1.1950                 1.9456                 2.2526

                     7                      8                      9
                     A                      A                      A
 Frequencies --   261.1881               287.9387               328.0475
 Red. masses --     7.3661                 4.3616                 3.6211
 Frc consts  --     0.2961                 0.2131                 0.2296
 IR Inten    --     4.1727                 0.1421                 1.7614

                    10                     11                     12
                     A                      A                      A
 Frequencies --   429.6951               450.1114               478.8529
 Red. masses --     3.4061                 4.4658                 3.4385
 Frc consts  --     0.3705                 0.5331                 0.4645
 IR Inten    --     2.7938                 0.3849                 0.0758

                    13                     14                     15
                     A                      A                      A
 Frequencies --   505.0590               531.5283               564.4267
 Red. masses --     5.5542                 6.6285                 4.8478
 Frc consts  --     0.8348                 1.1034                 0.9099
 IR Inten    --     7.1125                 0.1157                10.9080

                    16                     17                     18
                     A                      A                      A
 Frequencies --   569.9512               595.1410               636.1755
 Red. masses --     3.5570                 3.2157                 4.0186
 Frc consts  --     0.6808                 0.6711                 0.9582
 IR Inten    --     0.6765                 7.3357                 1.5707

                    19                     20                     21
                     A                      A                      A
 Frequencies --   675.9916               748.8793               759.3477
 Red. masses --     4.9634                 1.4085                 4.9438
 Frc consts  --     1.3363                 0.4654                 1.6795
 IR Inten    --     2.9760                 1.1000                 7.7342

                    22                     23                     24
                     A                      A                      A
 Frequencies --   790.5177               803.5890               811.1286
 Red. masses --     1.9225                 5.2224                 1.7384
 Frc consts  --     0.7078                 1.9870                 0.6739
 IR Inten    --    39.3965                 0.3977                39.7201

                    25                     26                     27
                     A                      A                      A
 Frequencies --   853.7668               882.3145               905.1206
 Red. masses --     3.4195                 1.7555                 1.5606
 Frc consts  --     1.4685                 0.8052                 0.7533
 IR Inten    --    10.7593                 2.4482                 2.3707

                    28                     29                     30
                     A                      A                      A
 Frequencies --   930.2861               959.0543               971.9196
 Red. masses --     4.8144                 1.3256                 1.2892
 Frc consts  --     2.4548                 0.7184                 0.7175
 IR Inten    --    14.9083                 0.3424                 1.0381

                    31                     32                     33
                     A                      A                      A
 Frequencies --   993.4728              1023.1533              1049.7490
 Red. masses --     1.2710                 1.9855                 2.6830
 Frc consts  --     0.7391                 1.2246                 1.7420
 IR Inten    --     0.1008                32.4538                23.4911

                    34                     35                     36
                     A                      A                      A
 Frequencies --  1072.6258              1076.7305              1111.1086
 Red. masses --     1.8496                 2.3251                 2.3265
 Frc consts  --     1.2538                 1.5882                 1.6923
 IR Inten    --    21.8916                38.2009                35.8899

                    37                     38                     39
                     A                      A                      A
 Frequencies --  1179.2226              1190.3919              1203.3120
 Red. masses --     1.3828                 1.1746                 1.3096
 Frc consts  --     1.1329                 0.9807                 1.1173
 IR Inten    --     7.6547                26.2710                11.9344

                    40                     41                     42
                     A                      A                      A
 Frequencies --  1239.3606              1250.6022              1261.8050
 Red. masses --     4.0651                 2.1862                 1.9549
 Frc consts  --     3.6789                 2.0145                 1.8338
 IR Inten    --   708.0888                 1.9457                12.3844

                    43                     44                     45
                     A                      A                      A
 Frequencies --  1292.3420              1395.1767              1416.9386
 Red. masses --     1.8741                 3.6088                 5.9248
 Frc consts  --     1.8441                 4.1388                 7.0086
 IR Inten    --    12.5314                 1.0410                 0.7123

                    46                     47                     48
                     A                      A                      A
 Frequencies --  1422.9772              1436.2005              1491.4060
 Red. masses --     1.3833                 2.0023                 2.1361
 Frc consts  --     1.6503                 2.4333                 2.7993
 IR Inten    --    69.8958                25.9022                 4.1669

                    49                     50                     51
                     A                      A                      A
 Frequencies --  1499.6137              1504.7883              1510.1763
 Red. masses --     1.0524                 1.0498                 2.4314
 Frc consts  --     1.3944                 1.4005                 3.2670
 IR Inten    --    11.0654                 8.9934                 9.6306

                    52                     53                     54
                     A                      A                      A
 Frequencies --  1563.7975              1629.9735              1658.5520
 Red. masses --     3.4774                 7.0741                 5.1012
 Frc consts  --     5.0103                11.0735                 8.2676
 IR Inten    --     9.4754                13.3878                17.9256

                    55                     56                     57
                     A                      A                      A
 Frequencies --  1687.0185              1853.8865              3072.5458
 Red. masses --     6.3528                11.5969                 1.0372
 Frc consts  --    10.6526                23.4833                 5.7690
 IR Inten    --     2.2020               221.5011                 1.5835

                    58                     59                     60
                     A                      A                      A
 Frequencies --  3134.8713              3180.8520              3185.2400
 Red. masses --     1.1005                 1.0861                 1.1033
 Frc consts  --     6.3723                 6.4742                 6.5953
 IR Inten    --     4.9471                 0.6732                 8.2133

                    61                     62                     63
                     A                      A                      A
 Frequencies --  3186.9422              3192.3175              3206.0365
 Red. masses --     1.0870                 1.0897                 1.0949
 Frc consts  --     6.5048                 6.5426                 6.6304
 IR Inten    --     1.9092                16.4708                32.0861

                    64                     65                     66
                     A                      A                      A
 Frequencies --  3207.0816              3227.2955              3248.3997
 Red. masses --     1.0947                 1.0931                 1.0928
 Frc consts  --     6.6339                 6.7079                 6.7943
 IR Inten    --    26.4763                11.2166                 2.8718

 - Thermochemistry -
 -------------------
 Temperature   298.150 Kelvin.  Pressure   1.00000 Atm.
 Atom     1 has atomic number  6 and mass  12.00000

 Molecular mass:   186.06808 amu.
 Principal axes and moments of inertia in atomic units:
                           1         2         3
     Eigenvalues --  1427.256883523.839034764.23411
           X            0.99980   0.01852   0.00760
           Y           -0.01852   0.99983  -0.00029
           Z           -0.00761   0.00015   0.99997
 This molecule is an asymmetric top.
 Rotational symmetry number  1.
 Warning -- assumption of classical behavior for rotation
           may cause significant error
 Rotational temperatures (Kelvin)      0.06069     0.02458     0.01818
 Rotational constants (GHZ):           1.26448     0.51215     0.37881
 Zero-point vibrational energy     497760.7 (Joules/Mol)
                                  118.96765 (Kcal/Mol)
 Warning -- explicit consideration of  17 degrees of freedom as
           vibrations may cause significant error
 Vibrational temperatures:     36.95    88.46   132.17   150.38   243.98
          (Kelvin)            258.93   375.79   414.28   471.99   618.23
                              647.61   688.96   726.67   764.75   812.08
                              820.03   856.27   915.31   972.60  1077.47
                             1092.53  1137.38  1156.18  1167.03  1228.38
                             1269.45  1302.26  1338.47  1379.86  1398.37
                             1429.38  1472.09  1510.35  1543.27  1549.17
                             1598.64  1696.64  1712.71  1731.30  1783.16
                             1799.34  1815.45  1859.39  2007.35  2038.66
                             2047.34  2066.37  2145.80  2157.61  2165.05
                             2172.80  2249.95  2345.17  2386.28  2427.24
                             2667.33  4420.70  4510.37  4576.53  4582.84
                             4585.29  4593.03  4612.77  4614.27  4643.35
                             4673.72

 Zero-point correction=                           0.189587 (Hartree/Particle)
 Thermal correction to Energy=                    0.201153
 Thermal correction to Enthalpy=                  0.202097
 Thermal correction to Gibbs Free Energy=         0.150594
 Sum of electronic and zero-point Energies=           -613.578961
 Sum of electronic and thermal Energies=              -613.567395
 Sum of electronic and thermal Enthalpies=            -613.566451
 Sum of electronic and thermal Free Energies=         -613.617955

                     E (Thermal)             CV                S
                      KCal/Mol        Cal/Mol-Kelvin    Cal/Mol-Kelvin
 Total                  126.225             44.618            108.398
 Electronic               0.000              0.000              0.000
 Translational            0.889              2.981             41.569
 Rotational               0.889              2.981             31.550
 Vibrational            124.448             38.657             35.280
 Vibration     1          0.593              1.985              6.138
 Vibration     2          0.597              1.973              4.409
 Vibration     3          0.602              1.955              3.620
 Vibration     4          0.605              1.946              3.368
 Vibration     5          0.625              1.880              2.440
 Vibration     6          0.629              1.867              2.329
 Vibration     7          0.669              1.744              1.654
 Vibration     8          0.685              1.696              1.486
 Vibration     9          0.711              1.619              1.270
 Vibration    10          0.791              1.406              0.860
 Vibration    11          0.809              1.361              0.795
 Vibration    12          0.835              1.297              0.713
 Vibration    13          0.860              1.239              0.646
 Vibration    14          0.886              1.180              0.584
 Vibration    15          0.920              1.108              0.515
 Vibration    16          0.926              1.096              0.504
 Vibration    17          0.953              1.042              0.458

 Optimization completed.
    -- Stationary point found.
 Normal termination of Gaussian 09 at Wed Sep 29 04:20:06 2021.
 Gaussian 09:  AM64L-G09RevA.02 11-Jun-2009

 ----------------------------------------------------------------------
 #p TD(NStates=10, Root=1) b3lyp/6-31G* volume pop=NPA density=current
 Geom=AllCheck Guess=Read
 ----------------------------------------------------------------------

 CC(=O)Oc1cccc2c1cccc2_conf_0
 ----------------------------
 Redundant internal coordinates taken from checkpoint file:
 C12H10O2_efb4_conf_0.chk
 Charge =  0 Multiplicity = 1

                         Standard orientation:
 ---------------------------------------------------------------------
 Center     Atomic      Atomic             Coordinates (Angstroms)
 Number     Number       Type             X           Y           Z
 ---------------------------------------------------------------------
      1          6           0       -3.789422   -1.366260   -0.213421
      2          6           0       -2.820876   -0.283146    0.195750
      3          8           0       -3.035870    0.596484    0.990408
      4          8           0       -1.637913   -0.450720   -0.482089
      5          6           0       -0.555507    0.408168   -0.278751
      6          6           0       -0.685666    1.777037   -0.304245
      7          6           0        0.464916    2.587522   -0.159846
      8          6           0        1.709361    2.023578   -0.000944
      9          6           0        1.865257    0.612098    0.020908
     10          6           0        0.710008   -0.225214   -0.119564
     11          6           0        0.869902   -1.636312   -0.097502
     12          6           0        2.117786   -2.196352    0.060281
     13          6           0        3.262010   -1.374190    0.200560
     14          6           0        3.135747   -0.004032    0.180317
     15          1           0       -3.384398   -2.350741    0.043466
     16          1           0       -3.939529   -1.347937   -1.297702
     17          1           0       -4.739801   -1.212826    0.298485
     18          1           0       -1.661729    2.229614   -0.423653
     19          1           0        0.351347    3.667693   -0.176279
     20          1           0        2.590423    2.650568    0.109425
     21          1           0       -0.006907   -2.264450   -0.209133
     22          1           0        2.227689   -3.277313    0.076788
     23          1           0        4.240721   -1.829968    0.323626
     24          1           0        4.011347    0.631862    0.287177
 ---------------------------------------------------------------------

 SCF Done:  E(RB3LYP) =  -613.768548487     A.U. after    2 cycles

 Excitation energies and oscillator strengths:

 Excited State   1:      Singlet-A      4.3020 eV  288.20 nm  f=0.1059  <S**2>=0.000
      48 -> 51         0.13589
      49 -> 50         0.68897
 This state for optimization and/or second-order correction.
 Total Energy, E(TD-HF/TD-KS) =  -613.610453346
 Copying the excited state density for this state as the 1-particle RhoCI density.

 Excited State   2:      Singlet-A      4.4731 eV  277.18 nm  f=0.0004  <S**2>=0.000
      48 -> 50        -0.48804
      49 -> 51         0.50919

 Excited State   3:      Singlet-A      5.1682 eV  239.90 nm  f=0.0121  <S**2>=0.000
      47 -> 50        -0.10328
      49 -> 52         0.69365

 Excited State   4:      Singlet-A      5.4550 eV  227.28 nm  f=0.0496  <S**2>=0.000
      46 -> 50         0.42149
      46 -> 52         0.34860
      47 -> 50         0.29627
      47 -> 52         0.19219
      48 -> 50         0.14764
      48 -> 52         0.16878
      49 -> 51         0.12824

 Excited State   5:      Singlet-A      5.6828 eV  218.17 nm  f=0.0127  <S**2>=0.000
      46 -> 50        -0.30566
      47 -> 50         0.51664
      49 -> 53         0.33341

 Excited State   6:      Singlet-A      5.9335 eV  208.96 nm  f=0.5583  <S**2>=0.000
      46 -> 50        -0.22806
      47 -> 50        -0.11267
      48 -> 50         0.39582
      48 -> 52         0.36053
      49 -> 51         0.36769

 Excited State   7:      Singlet-A      5.9886 eV  207.03 nm  f=0.2328  <S**2>=0.000
      46 -> 50        -0.28309
      46 -> 52         0.29881
      47 -> 51        -0.15371
      47 -> 52         0.16806
      48 -> 50        -0.23130
      48 -> 52         0.37811
      49 -> 51        -0.22662

 Excited State   8:      Singlet-A      6.1389 eV  201.97 nm  f=0.0551  <S**2>=0.000
      45 -> 50         0.12342
      46 -> 50        -0.24994
      46 -> 51        -0.10898
      46 -> 52         0.32296
      47 -> 51         0.32053
      47 -> 52         0.22624
      48 -> 52        -0.28863
      48 -> 53         0.17522
      49 -> 51         0.10019

 Excited State   9:      Singlet-A      6.2370 eV  198.79 nm  f=0.1671  <S**2>=0.000
      46 -> 51         0.11074
      47 -> 53        -0.12929
      48 -> 51         0.65234
      49 -> 50        -0.11670

 Excited State  10:      Singlet-A      6.3787 eV  194.37 nm  f=0.0432  <S**2>=0.000
      44 -> 50        -0.10812
      45 -> 50        -0.22677
      47 -> 50        -0.26900
      47 -> 51         0.10768
      49 -> 53         0.55183

 The electronic state is 1-A.
 Alpha  occ. eigenvalues --  -19.20333 -19.14443 -10.32731 -10.25282 -10.20266
 Alpha  occ. eigenvalues --  -10.20210 -10.20112 -10.19429 -10.19295 -10.19252
 Alpha  occ. eigenvalues --  -10.19245 -10.19214 -10.19158 -10.19072  -1.10952
 Alpha  occ. eigenvalues --   -1.02879  -0.87398  -0.82264  -0.78469  -0.75364
 Alpha  occ. eigenvalues --   -0.74382  -0.71693  -0.64713  -0.62002  -0.61490
 Alpha  occ. eigenvalues --   -0.56091  -0.52190  -0.50549  -0.49610  -0.48678
 Alpha  occ. eigenvalues --   -0.47522  -0.47014  -0.44058  -0.43214  -0.42316
 Alpha  occ. eigenvalues --   -0.41745  -0.40719  -0.40497  -0.38985  -0.38246
 Alpha  occ. eigenvalues --   -0.37038  -0.34913  -0.33890  -0.32949  -0.31768
 Alpha  occ. eigenvalues --   -0.28032  -0.27465  -0.24470  -0.21256
 Alpha virt. eigenvalues --   -0.04024  -0.00995   0.00266   0.03860   0.09321
 Alpha virt. eigenvalues --    0.09780   0.09998   0.11203   0.12823   0.14923
 Alpha virt. eigenvalues --    0.15862   0.17026   0.17376   0.17925   0.19046

 Mulliken atomic charges:
              1
     1  C   -0.525203
     2  C    0.576370
     3  O   -0.446505
     4  O   -0.501563
     5  C    0.278312
     6  C   -0.138089
     7  C   -0.145486
     8  C   -0.183222
     9  C    0.133806
    10  C    0.096694
    11  C   -0.192722
    12  C   -0.132343
    13  C   -0.126373
    14  C   -0.213975
    15  H    0.181867
    16  H    0.181588
    17  H    0.185174
    18  H    0.159794
    19  H    0.142413
    20  H    0.138709
    21  H    0.138599
    22  H    0.131293
    23  H    0.130875
    24  H    0.129986
 Sum of Mulliken atomic charges =  -0.00000

 Dipole moment (field-independent basis, Debye):
    X=              0.5903    Y=             -0.7514    Z=             -1.2428  Tot=              1.5677
 Quadrupole moment (field-independent basis, Debye-Ang):
   XX=            -72.7586   YY=            -70.7467   ZZ=            -85.1797
   XY=              6.2336   XZ=              5.8932   YZ=             -1.9814

 Summary of Natural Population Analysis:

                                       Natural Population
                Natural  -----------------------------------------------
    Atom  No    Charge         Core      Valence    Rydberg      Total
 -----------------------------------------------------------------------
      C    1   -0.77363      1.99934     4.76755    0.00675     6.77363
      C    2    0.80116      1.99945     3.15573    0.04366     5.19884
      O    3   -0.57741      1.99978     6.55722    0.02041     8.57741
      O    4   -0.53271      1.99970     6.52170    0.01131     8.53271
      C    5    0.33986      1.99866     3.63837    0.02311     5.66014
      C    6   -0.25879      1.99901     4.24431    0.01547     6.25879
      C    7   -0.21910      1.99912     4.20450    0.01548     6.21910
      C    8   -0.18902      1.99905     4.17458    0.01539     6.18902
      C    9   -0.05881      1.99904     4.04464    0.01513     6.05881
      C   10   -0.08619      1.99896     4.07210    0.01512     6.08619
      C   11   -0.22068      1.99906     4.20506    0.01656     6.22068
      C   12   -0.22316      1.99911     4.20856    0.01549     6.22316
      C   13   -0.23166      1.99911     4.21715    0.01540     6.23166
      C   14   -0.21863      1.99906     4.20369    0.01589     6.21863
      H   15    0.25529      0.00000     0.74365    0.00105     0.74471
      H   16    0.25582      0.00000     0.74320    0.00098     0.74418
      H   17    0.25831      0.00000     0.74077    0.00092     0.74169
      H   18    0.25860      0.00000     0.74029    0.00110     0.74140
      H   19    0.24175      0.00000     0.75746    0.00079     0.75825
      H   20    0.23505      0.00000     0.76379    0.00116     0.76495
      H   21    0.24116      0.00000     0.75744    0.00140     0.75884
      H   22    0.23559      0.00000     0.76357    0.00083     0.76441
      H   23    0.23618      0.00000     0.76300    0.00082     0.76382
      H   24    0.23101      0.00000     0.76782    0.00117     0.76899
 =======================================================================
   * Total *    0.00000     27.98845    69.75615    0.25539    98.00000

 Normal termination of Gaussian 09 at Wed Sep 29 08:00:34 2021.
