 Gaussian 09, Revision A.02,

 -----------------------------------
 #p opt b3lyp/6-31G* scf=(xqc,tight)
 -----------------------------------

 ------------------------------
 O=C(C(C)(C)C)Oc1ccccc1C_conf_0
 ------------------------------
 Symbolic Z-matrix:
 Charge =  0 Multiplicity = 1

 SCF Done:  E(RB3LYP) =  -617.379152209     A.U. after   15 cycles
 SCF Done:  E(RB3LYP) =  -617.383114471     A.U. after   12 cycles
 SCF Done:  E(RB3LYP) =  -617.382451738     A.U. after   16 cycles
 SCF Done:  E(RB3LYP) =  -617.383750527     A.U. after   16 cycles
 SCF Done:  E(RB3LYP) =  -617.383939064     A.U. after   15 cycles
 SCF Done:  E(RB3LYP) =  -617.384344497     A.U. after   11 cycles
 SCF Done:  E(RB3LYP) =  -617.384695294     A.U. after   13 cycles
 SCF Done:  E(RB3LYP) =  -617.384958840     A.U. after   14 cycles
 SCF Done:  E(RB3LYP) =  -617.385214714     A.U. after   14 cycles
 SCF Done:  E(RB3LYP) =  -617.385286111     A.U. after   12 cycles
 SCF Done:  E(RB3LYP) =  -617.385295951     A.U. after   12 cycles
 SCF Done:  E(RB3LYP) =  -617.385322044     A.U. after   12 cycles
 SCF Done:  E(RB3LYP) =  -617.385329411     A.U. after   10 cycles
 SCF Done:  E(RB3LYP) =  -617.385331718     A.U. after   10 cycles
 SCF Done:  E(RB3LYP) =  -617.385332092     A.U. after    8 cycles
 Optimization completed.
    -- Stationary point found.
 Normal termination of Gaussian 09 at Wed Sep 29 15:56:41 2021.

 ----------------------------------------------------------------------
 #p freq b3lyp/6-31G* volume NMR pop=NPA density=current Geom=AllCheck
 Guess=Read
 ----------------------------------------------------------------------

 O=C(C(C)(C)C)Oc1ccccc1C_conf_0
 ------------------------------
 Redundant internal coordinates taken from checkpoint file:
 C12H16O2_b2e0_conf_0.chk
 Charge =  0 Multiplicity = 1

 SCF Done:  E(RB3LYP) =  -617.385332092     A.U. after    1 cycles

  1  O    Isotropic =   -64.5725   Anisotropy =   577.3769

  2  C    Isotropic =    22.7167   Anisotropy =    78.5940

  3  C    Isotropic =   148.6864   Anisotropy =    24.2873

  4  C    Isotropic =   162.0443   Anisotropy =    37.3365

  5  C    Isotropic =   161.9939   Anisotropy =    37.3138

  6  C    Isotropic =   162.7129   Anisotropy =    31.4886

  7  O    Isotropic =   107.8171   Anisotropy =   165.3605

  8  C    Isotropic =    46.0203   Anisotropy =   104.8860

  9  C    Isotropic =    72.8408   Anisotropy =   150.2491

 10  C    Isotropic =    69.6966   Anisotropy =   160.0163

 11  C    Isotropic =    71.7692   Anisotropy =   160.9312

 12  C    Isotropic =    65.4549   Anisotropy =   142.6079

 13  C    Isotropic =    66.6965   Anisotropy =   158.2154

 14  C    Isotropic =   170.3351   Anisotropy =    24.2132

 15  H    Isotropic =    30.3477   Anisotropy =     7.4658

 16  H    Isotropic =    30.8526   Anisotropy =     7.7625

 17  H    Isotropic =    31.0851   Anisotropy =     7.8239

 18  H    Isotropic =    30.4179   Anisotropy =     5.9202

 19  H    Isotropic =    31.0734   Anisotropy =     7.8951

 20  H    Isotropic =    30.8202   Anisotropy =     8.2961

 21  H    Isotropic =    30.6654   Anisotropy =     7.9174

 22  H    Isotropic =    30.6319   Anisotropy =     8.2946

 23  H    Isotropic =    31.4731   Anisotropy =     7.8401

 24  H    Isotropic =    25.1472   Anisotropy =     8.8372

 25  H    Isotropic =    25.0926   Anisotropy =     4.4543

 26  H    Isotropic =    25.2159   Anisotropy =     3.8956

 27  H    Isotropic =    25.1295   Anisotropy =     6.5392

 28  H    Isotropic =    30.4805   Anisotropy =     8.2594

 29  H    Isotropic =    29.9196   Anisotropy =     6.4917

 30  H    Isotropic =    29.7327   Anisotropy =     6.8838

  Exact polarizability: 165.752   3.828 133.286   2.569  -3.265  82.542
 Approx polarizability: 222.069   4.609 212.715   7.115  -0.577 127.126

                     1                      2                      3
                     A                      A                      A
 Frequencies --    24.1145                46.5440                54.1018
 Red. masses --     3.4046                 4.5355                 4.8683
 Frc consts  --     0.0012                 0.0058                 0.0084
 IR Inten    --     0.2137                 0.8421                 0.1105

                     4                      5                      6
                     A                      A                      A
 Frequencies --    92.2691               133.2630               176.1650
 Red. masses --     4.1518                 1.0395                 3.1561
 Frc consts  --     0.0208                 0.0109                 0.0577
 IR Inten    --     0.8910                 0.2715                 0.5744

                     7                      8                      9
                     A                      A                      A
 Frequencies --   204.7960               209.3988               231.6331
 Red. masses --     1.3740                 3.8803                 1.5346
 Frc consts  --     0.0340                 0.1002                 0.0485
 IR Inten    --     0.4639                 1.2871                 0.1786

                    10                     11                     12
                     A                      A                      A
 Frequencies --   258.2944               268.8734               282.9975
 Red. masses --     1.7174                 1.3251                 1.2711
 Frc consts  --     0.0675                 0.0564                 0.0600
 IR Inten    --     1.3055                 0.3070                 0.4634

                    13                     14                     15
                     A                      A                      A
 Frequencies --   314.5630               325.7610               355.2572
 Red. masses --     3.5926                 2.9210                 3.1945
 Frc consts  --     0.2094                 0.1826                 0.2375
 IR Inten    --     0.7223                 5.7721                 5.9331

                    16                     17                     18
                     A                      A                      A
 Frequencies --   378.1911               441.1576               453.0599
 Red. masses --     2.3188                 3.5403                 3.5292
 Frc consts  --     0.1954                 0.4060                 0.4268
 IR Inten    --     0.4484                 4.7966                 1.4531

                    19                     20                     21
                     A                      A                      A
 Frequencies --   458.5542               537.5271               558.7652
 Red. masses --     2.9933                 4.2315                 4.9512
 Frc consts  --     0.3708                 0.7204                 0.9108
 IR Inten    --     1.3074                 0.6224                 1.5185

                    22                     23                     24
                     A                      A                      A
 Frequencies --   580.1181               626.2476               720.1871
 Red. masses --     4.2173                 5.1938                 3.5821
 Frc consts  --     0.8362                 1.2001                 1.0947
 IR Inten    --     3.1615                 0.4176                 2.4627

                    25                     26                     27
                     A                      A                      A
 Frequencies --   755.9712               764.9658               773.4322
 Red. masses --     2.9130                 1.9010                 4.3518
 Frc consts  --     0.9809                 0.6554                 1.5338
 IR Inten    --     7.2944                29.6545                 3.4836

                    28                     29                     30
                     A                      A                      A
 Frequencies --   823.0911               842.3676               869.0437
 Red. masses --     3.2269                 4.4135                 1.4540
 Frc consts  --     1.2880                 1.8452                 0.6470
 IR Inten    --     2.5712                 7.2048                 0.8426

                    31                     32                     33
                     A                      A                      A
 Frequencies --   906.1861               940.9557               951.1784
 Red. masses --     3.2757                 1.4169                 1.7574
 Frc consts  --     1.5848                 0.7391                 0.9368
 IR Inten    --     9.6481                 2.3043                 1.3082

                    34                     35                     36
                     A                      A                      A
 Frequencies --   955.5822               976.8946               981.6875
 Red. masses --     1.6312                 1.2511                 1.1981
 Frc consts  --     0.8776                 0.7035                 0.6803
 IR Inten    --     3.0671                 0.1170                 0.0241

                    37                     38                     39
                     A                      A                      A
 Frequencies --  1016.9700              1058.0276              1062.3392
 Red. masses --     1.5820                 1.4809                 1.4273
 Frc consts  --     0.9640                 0.9767                 0.9490
 IR Inten    --     3.6105                30.9490                 1.6153

                    40                     41                     42
                     A                      A                      A
 Frequencies --  1075.9482              1076.3104              1138.3588
 Red. masses --     1.6124                 1.9120                 2.3351
 Frc consts  --     1.0997                 1.3050                 1.7828
 IR Inten    --     3.3354                 3.8538                36.2965

                    43                     44                     45
                     A                      A                      A
 Frequencies --  1150.7967              1194.4538              1207.1716
 Red. masses --     3.2131                 1.1006                 2.4915
 Frc consts  --     2.5071                 0.9252                 2.1392
 IR Inten    --   542.1235                 1.9107               103.2070

                    46                     47                     48
                     A                      A                      A
 Frequencies --  1242.7826              1254.0309              1266.1535
 Red. masses --     2.6824                 2.9795                 2.9320
 Frc consts  --     2.4410                 2.7606                 2.7694
 IR Inten    --     2.0155                75.9518                45.1887

                    49                     50                     51
                     A                      A                      A
 Frequencies --  1308.5903              1320.5542              1354.3578
 Red. masses --     3.1312                 1.4788                 7.1602
 Frc consts  --     3.1591                 1.5194                 7.7382
 IR Inten    --    39.9671                 0.1344                 3.3131

                    52                     53                     54
                     A                      A                      A
 Frequencies --  1423.1685              1429.1537              1444.8591
 Red. masses --     1.2061                 1.2325                 1.2452
 Frc consts  --     1.4393                 1.4832                 1.5316
 IR Inten    --     3.7946                 4.1803                 0.4352

                    55                     56                     57
                     A                      A                      A
 Frequencies --  1458.1634              1490.2856              1508.3749
 Red. masses --     1.2214                 1.8320                 1.0502
 Frc consts  --     1.5301                 2.3973                 1.4079
 IR Inten    --    14.1078                 9.1588                 0.2259

                    58                     59                     60
                     A                      A                      A
 Frequencies --  1512.0168              1516.1987              1520.4636
 Red. masses --     1.0468                 1.0475                 1.0729
 Frc consts  --     1.4101                 1.4187                 1.4614
 IR Inten    --     6.2215                 1.4762                 1.7524

                    61                     62                     63
                     A                      A                      A
 Frequencies --  1526.6706              1530.0247              1533.3048
 Red. masses --     1.2533                 1.0693                 1.0708
 Frc consts  --     1.7210                 1.4748                 1.4833
 IR Inten    --    11.2591                 2.6465                10.5346

                    64                     65                     66
                     A                      A                      A
 Frequencies --  1542.1557              1550.8312              1644.1936
 Red. masses --     2.0063                 1.0923                 5.7176
 Frc consts  --     2.8113                 1.5478                 9.1069
 IR Inten    --    73.2893                10.1967                 8.4027

                    67                     68                     69
                     A                      A                      A
 Frequencies --  1664.6512              1831.6802              3050.1841
 Red. masses --     6.4184                12.7004                 1.0362
 Frc consts  --    10.4791                25.1054                 5.6797
 IR Inten    --     4.1948               185.5091                 8.8132

                    70                     71                     72
                     A                      A                      A
 Frequencies --  3050.4632              3051.8159              3060.9746
 Red. masses --     1.0361                 1.0363                 1.0368
 Frc consts  --     5.6805                 5.6868                 5.7238
 IR Inten    --    40.5580                13.4008                26.5631

                    73                     74                     75
                     A                      A                      A
 Frequencies --  3102.6703              3113.4632              3114.5291
 Red. masses --     1.1007                 1.1030                 1.1022
 Frc consts  --     6.2429                 6.2996                 6.2994
 IR Inten    --    15.0839                10.9336                26.9543

                    76                     77                     78
                     A                      A                      A
 Frequencies --  3128.8153              3131.6922              3139.3825
 Red. masses --     1.1015                 1.1019                 1.1023
 Frc consts  --     6.3530                 6.3673                 6.4010
 IR Inten    --    38.9044                23.4092                 2.6008

                    79                     80                     81
                     A                      A                      A
 Frequencies --  3140.5261              3143.6794              3181.3793
 Red. masses --     1.1022                 1.1008                 1.0868
 Frc consts  --     6.4050                 6.4094                 6.4808
 IR Inten    --    20.8622                41.6062                 6.8379

                    82                     83                     84
                     A                      A                      A
 Frequencies --  3194.8496              3209.6366              3237.0433
 Red. masses --     1.0895                 1.0955                 1.0936
 Frc consts  --     6.5523                 6.6494                 6.7515
 IR Inten    --    14.7555                29.1324                 4.2964

 - Thermochemistry -
 -------------------
 Temperature   298.150 Kelvin.  Pressure   1.00000 Atm.
 Atom     1 has atomic number  8 and mass  15.99491

 Molecular mass:   192.11503 amu.
 Principal axes and moments of inertia in atomic units:
                           1         2         3
     Eigenvalues --  1259.234994397.905615049.55692
           X            0.99999  -0.00033   0.00480
           Y            0.00045   0.99970  -0.02455
           Z           -0.00479   0.02455   0.99969
 This molecule is an asymmetric top.
 Rotational symmetry number  1.
 Warning -- assumption of classical behavior for rotation
           may cause significant error
 Rotational temperatures (Kelvin)      0.06878     0.01969     0.01715
 Rotational constants (GHZ):           1.43320     0.41036     0.35741
 Zero-point vibrational energy     670969.5 (Joules/Mol)
                                  160.36556 (Kcal/Mol)
 Warning -- explicit consideration of  22 degrees of freedom as
           vibrations may cause significant error
 Vibrational temperatures:     34.70    66.97    77.84   132.75   191.74
          (Kelvin)            253.46   294.66   301.28   333.27   371.63
                              386.85   407.17   452.59   468.70   511.14
                              544.13   634.73   651.85   659.76   773.38
                              803.94   834.66   901.03  1036.19  1087.67
                             1100.61  1112.80  1184.24  1211.98  1250.36
                             1303.80  1353.82  1368.53  1374.87  1405.53
                             1412.43  1463.19  1522.26  1528.47  1548.05
                             1548.57  1637.84  1655.74  1718.55  1736.85
                             1788.08  1804.27  1821.71  1882.77  1899.98
                             1948.62  2047.62  2056.23  2078.83  2097.97
                             2144.19  2170.21  2175.45  2181.47  2187.61
                             2196.54  2201.36  2206.08  2218.82  2231.30
                             2365.62  2395.06  2635.38  4388.53  4388.93
                             4390.88  4404.05  4464.04  4479.57  4481.11
                             4501.66  4505.80  4516.87  4518.51  4523.05
                             4577.29  4596.67  4617.95  4657.38

 Zero-point correction=                           0.255559 (Hartree/Particle)
 Thermal correction to Energy=                    0.270136
 Thermal correction to Enthalpy=                  0.271081
 Thermal correction to Gibbs Free Energy=         0.213485
 Sum of electronic and zero-point Energies=           -617.129773
 Sum of electronic and thermal Energies=              -617.115196
 Sum of electronic and thermal Enthalpies=            -617.114251
 Sum of electronic and thermal Free Energies=         -617.171847

                     E (Thermal)             CV                S
                      KCal/Mol        Cal/Mol-Kelvin    Cal/Mol-Kelvin
 Total                  169.513             54.900            121.220
 Electronic               0.000              0.000              0.000
 Translational            0.889              2.981             41.664
 Rotational               0.889              2.981             31.703
 Vibrational            167.736             48.939             47.853
 Vibration     1          0.593              1.985              6.263
 Vibration     2          0.595              1.979              4.959
 Vibration     3          0.596              1.976              4.662
 Vibration     4          0.602              1.955              3.611
 Vibration     5          0.613              1.920              2.898
 Vibration     6          0.628              1.872              2.369
 Vibration     7          0.640              1.833              2.090
 Vibration     8          0.642              1.826              2.049
 Vibration     9          0.653              1.793              1.866
 Vibration    10          0.667              1.749              1.673
 Vibration    11          0.673              1.730              1.603
 Vibration    12          0.682              1.705              1.515
 Vibration    13          0.702              1.646              1.338
 Vibration    14          0.710              1.624              1.281
 Vibration    15          0.731              1.564              1.143
 Vibration    16          0.748              1.517              1.046
 Vibration    17          0.801              1.380              0.823
 Vibration    18          0.812              1.354              0.787
 Vibration    19          0.817              1.342              0.770
 Vibration    20          0.893              1.167              0.571
 Vibration    21          0.914              1.121              0.526
 Vibration    22          0.937              1.074              0.485

 Optimization completed.
    -- Stationary point found.
 Normal termination of Gaussian 09 at Wed Sep 29 16:55:16 2021.
 Gaussian 09:  AM64L-G09RevA.02 11-Jun-2009

 ----------------------------------------------------------------------
 #p TD(NStates=10, Root=1) b3lyp/6-31G* volume pop=NPA density=current
 Geom=AllCheck Guess=Read
 ----------------------------------------------------------------------

 O=C(C(C)(C)C)Oc1ccccc1C_conf_0
 ------------------------------
 Redundant internal coordinates taken from checkpoint file:
 C12H16O2_b2e0_conf_0.chk
 Charge =  0 Multiplicity = 1

                         Standard orientation:
 ---------------------------------------------------------------------
 Center     Atomic      Atomic             Coordinates (Angstroms)
 Number     Number       Type             X           Y           Z
 ---------------------------------------------------------------------
      1          8           0        0.942985   -1.300040   -1.168224
      2          6           0        1.188938   -0.461472   -0.336049
      3          6           0        2.587545    0.010915    0.076695
      4          6           0        2.714725    1.527013   -0.192179
      5          6           0        2.787637   -0.271011    1.582930
      6          6           0        3.627456   -0.761604   -0.750191
      7          8           0        0.222503    0.204009    0.379091
      8          6           0       -1.132499   -0.094518    0.193108
      9          6           0       -1.609561   -1.396393    0.324707
     10          6           0       -2.979021   -1.634902    0.211693
     11          6           0       -3.853840   -0.574463   -0.024212
     12          6           0       -3.354307    0.722362   -0.146910
     13          6           0       -1.984483    0.992500   -0.043583
     14          6           0       -1.441609    2.393999   -0.173782
     15          1           0        1.991406    2.099611    0.394670
     16          1           0        2.557787    1.756430   -1.252609
     17          1           0        3.721918    1.864980    0.077734
     18          1           0        2.056737    0.269097    2.190999
     19          1           0        3.791958    0.045994    1.886770
     20          1           0        2.694119   -1.341084    1.802036
     21          1           0        3.492480   -0.585702   -1.821599
     22          1           0        3.548022   -1.839578   -0.580386
     23          1           0        4.636739   -0.439617   -0.469920
     24          1           0       -0.916032   -2.209053    0.505479
     25          1           0       -3.356580   -2.648815    0.309337
     26          1           0       -4.921688   -0.754320   -0.111655
     27          1           0       -4.036845    1.549350   -0.328024
     28          1           0       -2.249272    3.103992   -0.375085
     29          1           0       -0.712426    2.469378   -0.989024
     30          1           0       -0.928111    2.713038    0.740985
 ---------------------------------------------------------------------

 SCF Done:  E(RB3LYP) =  -617.385332092     A.U. after    1 cycles

 Excitation energies and oscillator strengths:

 Excited State   1:      Singlet-A      5.2936 eV  234.21 nm  f=0.0063  <S**2>=0.000
      51 -> 53         0.42594
      51 -> 54        -0.16185
      51 -> 55         0.10669
      52 -> 53         0.28058
      52 -> 54         0.43119
 This state for optimization and/or second-order correction.
 Total Energy, E(TD-HF/TD-KS) =  -617.190794205
 Copying the excited state density for this state as the 1-particle RhoCI density.

 Excited State   2:      Singlet-A      5.5271 eV  224.32 nm  f=0.0288  <S**2>=0.000
      50 -> 53         0.47171
      50 -> 55        -0.28332
      51 -> 55        -0.14407
      52 -> 53         0.28133
      52 -> 54        -0.22069
      52 -> 55        -0.19705

 Excited State   3:      Singlet-A      5.6522 eV  219.36 nm  f=0.0771  <S**2>=0.000
      50 -> 53        -0.29499
      50 -> 55         0.16040
      51 -> 53        -0.26083
      51 -> 54        -0.13854
      51 -> 55         0.10301
      52 -> 53         0.50713
      52 -> 55        -0.15381

 Excited State   4:      Singlet-A      6.1732 eV  200.84 nm  f=0.0068  <S**2>=0.000
      50 -> 53         0.22214
      51 -> 53        -0.33136
      51 -> 54        -0.24351
      51 -> 55         0.33874
      52 -> 55         0.38318

 Excited State   5:      Singlet-A      6.2149 eV  199.49 nm  f=0.0400  <S**2>=0.000
      51 -> 53         0.19740
      51 -> 54        -0.29937
      51 -> 55        -0.32912
      52 -> 53         0.11629
      52 -> 54        -0.28709
      52 -> 55         0.38930

 Excited State   6:      Singlet-A      6.6349 eV  186.87 nm  f=0.0677  <S**2>=0.000
      50 -> 54         0.66369
      51 -> 54         0.14602
      52 -> 53         0.10315
      52 -> 55         0.13144

 Excited State   7:      Singlet-A      6.6972 eV  185.13 nm  f=0.0314  <S**2>=0.000
      50 -> 53         0.32104
      50 -> 55         0.55167
      51 -> 53         0.12628
      51 -> 55         0.17266
      52 -> 54        -0.11402

 Excited State   8:      Singlet-A      6.9670 eV  177.96 nm  f=0.5345  <S**2>=0.000
      49 -> 53         0.29888
      50 -> 54        -0.19200
      51 -> 53        -0.10851
      51 -> 54         0.42274
      51 -> 55        -0.17997
      52 -> 53         0.17555
      52 -> 54         0.18903
      52 -> 55         0.26279

 Excited State   9:      Singlet-A      7.0534 eV  175.78 nm  f=0.3245  <S**2>=0.000
      49 -> 54        -0.21676
      50 -> 53        -0.14159
      50 -> 55        -0.21378
      51 -> 53         0.22834
      51 -> 54         0.23321
      51 -> 55         0.37776
      52 -> 54        -0.31807
      52 -> 55         0.12305

 Excited State  10:      Singlet-A      7.4879 eV  165.58 nm  f=0.1070  <S**2>=0.000
      46 -> 53         0.13845
      48 -> 53         0.12136
      49 -> 53         0.55911
      49 -> 55         0.17609
      51 -> 54        -0.17318
      52 -> 53        -0.10776
      52 -> 55        -0.16608

 The electronic state is 1-A.
 Alpha  occ. eigenvalues --  -19.19794 -19.13946 -10.31574 -10.24613 -10.21467
 Alpha  occ. eigenvalues --  -10.19952 -10.18994 -10.18936 -10.18911 -10.18743
 Alpha  occ. eigenvalues --  -10.18547 -10.18365 -10.18332 -10.17483  -1.10449
 Alpha  occ. eigenvalues --   -1.02236  -0.85662  -0.82352  -0.77348  -0.74688
 Alpha  occ. eigenvalues --   -0.69335  -0.69264  -0.68563  -0.65539  -0.60450
 Alpha  occ. eigenvalues --   -0.58142  -0.55013  -0.49453  -0.48920  -0.48026
 Alpha  occ. eigenvalues --   -0.47383  -0.45245  -0.43935  -0.43419  -0.42633
 Alpha  occ. eigenvalues --   -0.41795  -0.41219  -0.40376  -0.39208  -0.39049
 Alpha  occ. eigenvalues --   -0.38251  -0.36933  -0.36509  -0.35774  -0.35114
 Alpha  occ. eigenvalues --   -0.34209  -0.33556  -0.33461  -0.31321  -0.27019
 Alpha  occ. eigenvalues --   -0.24468  -0.23474
 Alpha virt. eigenvalues --   -0.00700   0.00210   0.01832   0.07637   0.09416
 Alpha virt. eigenvalues --    0.11045   0.12634   0.13673   0.13938   0.15043
 Alpha virt. eigenvalues --    0.15223   0.15640   0.16328   0.16781   0.17768

 Mulliken atomic charges:
              1
     1  O   -0.463103
     2  C    0.599819
     3  C   -0.000956
     4  C   -0.451306
     5  C   -0.449700
     6  C   -0.434339
     7  O   -0.522390
     8  C    0.289511
     9  C   -0.144994
    10  C   -0.143823
    11  C   -0.119947
    12  C   -0.203798
    13  C    0.150195
    14  C   -0.522082
    15  H    0.158191
    16  H    0.148525
    17  H    0.144778
    18  H    0.159529
    19  H    0.143779
    20  H    0.148229
    21  H    0.155189
    22  H    0.154339
    23  H    0.134572
    24  H    0.152829
    25  H    0.142826
    26  H    0.135567
    27  H    0.130960
    28  H    0.157011
    29  H    0.175224
    30  H    0.175364
 Sum of Mulliken atomic charges =  -0.00000

 Dipole moment (field-independent basis, Debye):
    X=             -0.5995    Y=              1.5455    Z=              1.2385  Tot=              2.0693
 Quadrupole moment (field-independent basis, Debye-Ang):
   XX=            -74.6855   YY=            -80.4824   ZZ=            -87.9515
   XY=              1.3412   XZ=              1.8278   YZ=             -4.0402

 Summary of Natural Population Analysis:

                                       Natural Population
                Natural  -----------------------------------------------
    Atom  No    Charge         Core      Valence    Rydberg      Total
 -----------------------------------------------------------------------
      O    1   -0.56662      1.99977     6.54666    0.02019     8.56662
      C    2    0.78096      1.99928     3.17083    0.04893     5.21904
      C    3   -0.14561      1.99906     4.13383    0.01272     6.14561
      C    4   -0.66909      1.99938     4.65989    0.00982     6.66909
      C    5   -0.66936      1.99938     4.66018    0.00979     6.66936
      C    6   -0.66894      1.99939     4.65854    0.01101     6.66894
      O    7   -0.53323      1.99970     6.52257    0.01096     8.53323
      C    8    0.30345      1.99867     3.67413    0.02375     5.69655
      C    9   -0.27797      1.99904     4.26070    0.01824     6.27797
      C   10   -0.19480      1.99913     4.17869    0.01697     6.19480
      C   11   -0.23544      1.99914     4.21910    0.01721     6.23544
      C   12   -0.23172      1.99908     4.21592    0.01672     6.23172
      C   13   -0.01873      1.99898     4.00362    0.01613     6.01873
      C   14   -0.69540      1.99940     4.68776    0.00824     6.69540
      H   15    0.23917      0.00000     0.75974    0.00109     0.76083
      H   16    0.23455      0.00000     0.76448    0.00097     0.76545
      H   17    0.23260      0.00000     0.76623    0.00117     0.76740
      H   18    0.24141      0.00000     0.75751    0.00108     0.75859
      H   19    0.23164      0.00000     0.76696    0.00140     0.76836
      H   20    0.23474      0.00000     0.76429    0.00098     0.76526
      H   21    0.24229      0.00000     0.75665    0.00106     0.75771
      H   22    0.24189      0.00000     0.75706    0.00105     0.75811
      H   23    0.22816      0.00000     0.77089    0.00095     0.77184
      H   24    0.25057      0.00000     0.74843    0.00100     0.74943
      H   25    0.23541      0.00000     0.76377    0.00082     0.76459
      H   26    0.23474      0.00000     0.76443    0.00082     0.76526
      H   27    0.23099      0.00000     0.76802    0.00099     0.76901
      H   28    0.23950      0.00000     0.75969    0.00081     0.76050
      H   29    0.25248      0.00000     0.74599    0.00153     0.74752
      H   30    0.25238      0.00000     0.74601    0.00161     0.74762
 =======================================================================
   * Total *    0.00000     27.98940    75.75257    0.25803   104.00000

 Normal termination of Gaussian 09 at Wed Sep 29 21:46:40 2021.
