 Gaussian 09, Revision A.02,

 -----------------------------------
 #p opt b3lyp/6-31G* scf=(xqc,tight)
 -----------------------------------

 ---------------------------------------
 O=C(C(C)(C)C)Oc1ccc(cc1)C(F)(F)F_conf_0
 ---------------------------------------
 Symbolic Z-matrix:
 Charge =  0 Multiplicity = 1

 SCF Done:  E(RB3LYP) =  -915.099827464     A.U. after   15 cycles
 SCF Done:  E(RB3LYP) =  -915.103255901     A.U. after   15 cycles
 SCF Done:  E(RB3LYP) =  -915.101985344     A.U. after   12 cycles
 SCF Done:  E(RB3LYP) =  -915.103565604     A.U. after   12 cycles
 SCF Done:  E(RB3LYP) =  -915.103842971     A.U. after   11 cycles
 SCF Done:  E(RB3LYP) =  -915.104086818     A.U. after   11 cycles
 SCF Done:  E(RB3LYP) =  -915.104273209     A.U. after   13 cycles
 SCF Done:  E(RB3LYP) =  -915.104404680     A.U. after   11 cycles
 SCF Done:  E(RB3LYP) =  -915.104564836     A.U. after   11 cycles
 SCF Done:  E(RB3LYP) =  -915.104591397     A.U. after   10 cycles
 SCF Done:  E(RB3LYP) =  -915.104767201     A.U. after   11 cycles
 SCF Done:  E(RB3LYP) =  -915.104770957     A.U. after   10 cycles
 SCF Done:  E(RB3LYP) =  -915.104771157     A.U. after    8 cycles
 SCF Done:  E(RB3LYP) =  -915.104730265     A.U. after   11 cycles
 SCF Done:  E(RB3LYP) =  -915.104771432     A.U. after   11 cycles
 SCF Done:  E(RB3LYP) =  -915.104771142     A.U. after    9 cycles
 SCF Done:  E(RB3LYP) =  -915.104771558     A.U. after    9 cycles
 SCF Done:  E(RB3LYP) =  -915.104771607     A.U. after    7 cycles
 Optimization completed.
    -- Stationary point found.
 Normal termination of Gaussian 09 at Wed Sep 29 10:47:45 2021.

 ----------------------------------------------------------------------
 #p freq b3lyp/6-31G* volume NMR pop=NPA density=current Geom=AllCheck
 Guess=Read
 ----------------------------------------------------------------------

 O=C(C(C)(C)C)Oc1ccc(cc1)C(F)(F)F_conf_0
 ---------------------------------------
 Redundant internal coordinates taken from checkpoint file:
 C12H13F3O2_c0b9_conf_0.chk
 Charge =  0 Multiplicity = 1

 SCF Done:  E(RB3LYP) =  -915.104771607     A.U. after    1 cycles

  1  O    Isotropic =   -64.5435   Anisotropy =   577.6781

  2  C    Isotropic =    22.8557   Anisotropy =    76.1358

  3  C    Isotropic =   148.8169   Anisotropy =    24.4348

  4  C    Isotropic =   162.9414   Anisotropy =    31.3614

  5  C    Isotropic =   162.3193   Anisotropy =    38.0500

  6  C    Isotropic =   162.4387   Anisotropy =    37.1965

  7  O    Isotropic =   107.8295   Anisotropy =   172.5119

  8  C    Isotropic =    42.8438   Anisotropy =   115.4026

  9  C    Isotropic =    73.2862   Anisotropy =   156.0416

 10  C    Isotropic =    68.7569   Anisotropy =   166.1655

 11  C    Isotropic =    66.8014   Anisotropy =   146.8570

 12  C    Isotropic =    68.5942   Anisotropy =   166.8386

 13  C    Isotropic =    76.0616   Anisotropy =   141.7557

 14  C    Isotropic =    63.0391   Anisotropy =    12.2519

 15  F    Isotropic =   274.5843   Anisotropy =   121.6254

 16  F    Isotropic =   271.6578   Anisotropy =   123.5095

 17  F    Isotropic =   248.1450   Anisotropy =   127.9233

 18  H    Isotropic =    30.6567   Anisotropy =     7.9512

 19  H    Isotropic =    30.6396   Anisotropy =     8.1602

 20  H    Isotropic =    31.4657   Anisotropy =     7.8265

 21  H    Isotropic =    30.8588   Anisotropy =     7.9928

 22  H    Isotropic =    31.0896   Anisotropy =     7.9203

 23  H    Isotropic =    30.3904   Anisotropy =     7.4419

 24  H    Isotropic =    30.8493   Anisotropy =     8.0762

 25  H    Isotropic =    30.4680   Anisotropy =     6.3105

 26  H    Isotropic =    31.0891   Anisotropy =     7.8577

 27  H    Isotropic =    24.6996   Anisotropy =     9.2104

 28  H    Isotropic =    24.7009   Anisotropy =     8.0816

 29  H    Isotropic =    24.6826   Anisotropy =     7.9686

 30  H    Isotropic =    25.3315   Anisotropy =     7.0436

  Exact polarizability: 180.379  -0.993 124.565   0.811  -5.495  83.890
 Approx polarizability: 230.993   0.694 212.941   3.474  -7.437 126.905

                     1                      2                      3
                     A                      A                      A
 Frequencies --    12.6056                27.3383                34.3477
 Red. masses --     6.2459                 4.1184                 5.8310
 Frc consts  --     0.0006                 0.0018                 0.0041
 IR Inten    --     0.1869                 0.0202                 0.0020

                     4                      5                      6
                     A                      A                      A
 Frequencies --    43.2753                75.3757               117.2917
 Red. masses --     5.0547                 7.1504                 6.5995
 Frc consts  --     0.0056                 0.0239                 0.0535
 IR Inten    --     0.7210                 0.5557                 1.0400

                     7                      8                      9
                     A                      A                      A
 Frequencies --   170.9745               188.0312               206.9255
 Red. masses --     5.3350                 6.2801                 1.3418
 Frc consts  --     0.0919                 0.1308                 0.0338
 IR Inten    --     0.5349                 0.4383                 0.3730

                    10                     11                     12
                     A                      A                      A
 Frequencies --   227.1984               248.0770               268.3063
 Red. masses --     2.1256                 2.3604                 1.0742
 Frc consts  --     0.0646                 0.0856                 0.0456
 IR Inten    --     0.2479                 1.3207                 0.0662

                    13                     14                     15
                     A                      A                      A
 Frequencies --   280.4700               303.8805               351.8268
 Red. masses --     1.3662                 3.3939                 4.2914
 Frc consts  --     0.0633                 0.1847                 0.3130
 IR Inten    --     0.7721                 4.6926                 0.5171

                    16                     17                     18
                     A                      A                      A
 Frequencies --   355.7664               368.8708               379.5309
 Red. masses --     3.0573                 4.4710                 3.3499
 Frc consts  --     0.2280                 0.3584                 0.2843
 IR Inten    --     3.1481                 7.0751                 5.2588

                    19                     20                     21
                     A                      A                      A
 Frequencies --   410.2396               421.5201               430.7587
 Red. masses --     7.4335                 3.1449                 6.4595
 Frc consts  --     0.7371                 0.3292                 0.7062
 IR Inten    --     4.5288                 0.3469                 0.2852

                    22                     23                     24
                     A                      A                      A
 Frequencies --   469.0472               510.2531               574.1774
 Red. masses --     3.4979                 5.1454                10.3922
 Frc consts  --     0.4534                 0.7893                 2.0186
 IR Inten    --     2.1122                 0.9733                 0.1595

                    25                     26                     27
                     A                      A                      A
 Frequencies --   583.0176               597.9274               644.9887
 Red. masses --     4.2530                 3.7930                 6.5881
 Frc consts  --     0.8517                 0.7990                 1.6148
 IR Inten    --     0.9230                 9.0504                20.2850

                    28                     29                     30
                     A                      A                      A
 Frequencies --   647.5529               735.0493               755.0532
 Red. masses --     6.9996                 5.1888                 9.8071
 Frc consts  --     1.7293                 1.6518                 3.2942
 IR Inten    --     1.3925                 0.6538                 2.4050

                    31                     32                     33
                     A                      A                      A
 Frequencies --   757.1330               807.3772               837.1317
 Red. masses --     6.7794                 3.4321                 2.7052
 Frc consts  --     2.2897                 1.3181                 1.1170
 IR Inten    --     3.9562                 3.9549                 5.8108

                    34                     35                     36
                     A                      A                      A
 Frequencies --   839.6766               864.6212               907.5562
 Red. masses --     1.4843                 2.2221                 3.5305
 Frc consts  --     0.6166                 0.9787                 1.7133
 IR Inten    --     1.4481                30.6759                21.6092

                    37                     38                     39
                     A                      A                      A
 Frequencies --   949.9835               956.8111               964.5528
 Red. masses --     1.7677                 1.6348                 1.2918
 Frc consts  --     0.9399                 0.8818                 0.7081
 IR Inten    --     1.5218                 3.5844                 0.5872

                    40                     41                     42
                     A                      A                      A
 Frequencies --   966.3161               982.0051              1035.5491
 Red. masses --     1.3321                 1.1981                 3.3756
 Frc consts  --     0.7329                 0.6807                 2.1327
 IR Inten    --     0.6069                 0.0128                41.9444

                    43                     44                     45
                     A                      A                      A
 Frequencies --  1058.5157              1060.6746              1089.1838
 Red. masses --     1.5160                 1.4271                 3.7525
 Frc consts  --     1.0008                 0.9459                 2.6229
 IR Inten    --    73.1257                 2.3350               203.9514

                    46                     47                     48
                     A                      A                      A
 Frequencies --  1137.5607              1140.7147              1184.7054
 Red. masses --     1.4700                 3.8063                 9.8074
 Frc consts  --     1.1208                 2.9182                 8.1100
 IR Inten    --    55.5471               445.4488               249.4523

                    49                     50                     51
                     A                      A                      A
 Frequencies --  1202.2250              1211.3780              1240.9413
 Red. masses --     1.3998                 4.6159                 2.6517
 Frc consts  --     1.1920                 3.9909                 2.4059
 IR Inten    --   133.0617               136.6116                 6.4416

                    52                     53                     54
                     A                      A                      A
 Frequencies --  1245.6164              1265.4945              1307.0486
 Red. masses --     3.2038                 2.9438                 3.0928
 Frc consts  --     2.9287                 2.7776                 3.1130
 IR Inten    --   223.0414                54.5086                45.7405

                    55                     56                     57
                     A                      A                      A
 Frequencies --  1340.1609              1344.8427              1363.1488
 Red. masses --     1.4507                 3.8323                10.5213
 Frc consts  --     1.5352                 4.0837                11.5188
 IR Inten    --    53.2539               322.7259                15.9652

                    58                     59                     60
                     A                      A                      A
 Frequencies --  1424.0758              1430.6014              1459.6967
 Red. masses --     1.2067                 1.2296                 1.6484
 Frc consts  --     1.4418                 1.4826                 2.0693
 IR Inten    --     3.8800                 4.0522                14.2222

                    61                     62                     63
                     A                      A                      A
 Frequencies --  1459.9779              1508.3383              1515.5624
 Red. masses --     1.8906                 1.0482                 1.0450
 Frc consts  --     2.3743                 1.4051                 1.4142
 IR Inten    --    13.5076                 0.0381                 0.1648

                    64                     65                     66
                     A                      A                      A
 Frequencies --  1520.9117              1529.9889              1532.8881
 Red. masses --     1.0453                 1.0486                 1.0534
 Frc consts  --     1.4247                 1.4462                 1.4584
 IR Inten    --     0.0299                 6.0649                 7.6817

                    67                     68                     69
                     A                      A                      A
 Frequencies --  1550.7640              1561.1205              1645.1136
 Red. masses --     1.0782                 2.5303                 7.2092
 Frc consts  --     1.5277                 3.6333                11.4955
 IR Inten    --    35.4709                28.3188                 9.5061

                    70                     71                     72
                     A                      A                      A
 Frequencies --  1671.1250              1834.6344              3051.9870
 Red. masses --     5.8370                12.6752                 1.0354
 Frc consts  --     9.6040                25.1364                 5.6824
 IR Inten    --    64.1872               178.9670                27.0044

                    73                     74                     75
                     A                      A                      A
 Frequencies --  3053.8691              3062.7880              3116.2863
 Red. masses --     1.0359                 1.0363                 1.1030
 Frc consts  --     5.6923                 5.7278                 6.3113
 IR Inten    --    10.6653                24.0679                12.0869

                    76                     77                     78
                     A                      A                      A
 Frequencies --  3118.0625              3131.0440              3139.3155
 Red. masses --     1.1025                 1.1020                 1.1026
 Frc consts  --     6.3156                 6.3652                 6.4022
 IR Inten    --    20.8704                37.9262                 2.1956

                    79                     80                     81
                     A                      A                      A
 Frequencies --  3140.5982              3143.6316              3215.2209
 Red. masses --     1.1024                 1.1013                 1.0883
 Frc consts  --     6.4065                 6.4121                 6.6283
 IR Inten    --    21.3955                43.1500                 3.4082

                    82                     83                     84
                     A                      A                      A
 Frequencies --  3223.7864              3229.1175              3260.0616
 Red. masses --     1.0901                 1.0951                 1.0934
 Frc consts  --     6.6751                 6.7277                 6.8467
 IR Inten    --     2.6970                 3.1935                 0.9830

 - Thermochemistry -
 -------------------
 Temperature   298.150 Kelvin.  Pressure   1.00000 Atm.
 Atom     1 has atomic number  8 and mass  15.99491

 Molecular mass:   246.08676 amu.
 Principal axes and moments of inertia in atomic units:
                           1         2         3
     Eigenvalues --  1223.43431********************
           X            1.00000   0.00194   0.00085
           Y           -0.00191   0.99926  -0.03842
           Z           -0.00093   0.03842   0.99926
 This molecule is an asymmetric top.
 Rotational symmetry number  1.
 Warning -- assumption of classical behavior for rotation
           may cause significant error
 Rotational temperatures (Kelvin)      0.07080     0.00829     0.00800
 Rotational constants (GHZ):           1.47514     0.17273     0.16670
 Zero-point vibrational energy     610281.9 (Joules/Mol)
                                  145.86088 (Kcal/Mol)
 Warning -- explicit consideration of  26 degrees of freedom as
           vibrations may cause significant error
 Vibrational temperatures:     18.14    39.33    49.42    62.26   108.45
          (Kelvin)            168.76   245.99   270.53   297.72   326.89
                              356.93   386.03   403.53   437.22   506.20
                              511.87   530.72   546.06   590.24   606.47
                              619.76   674.85   734.14   826.11   838.83
                              860.28   927.99   931.68  1057.57  1086.35
                             1089.34  1161.63  1204.44  1208.11  1244.00
                             1305.77  1366.81  1376.64  1387.77  1390.31
                             1412.88  1489.92  1522.97  1526.07  1567.09
                             1636.69  1641.23  1704.52  1729.73  1742.90
                             1785.44  1792.16  1820.76  1880.55  1928.19
                             1934.93  1961.26  2048.92  2058.31  2100.18
                             2100.58  2170.16  2180.55  2188.25  2201.31
                             2205.48  2231.20  2246.10  2366.95  2404.37
                             2639.63  4391.12  4393.83  4406.66  4483.64
                             4486.19  4504.87  4516.77  4518.61  4522.98
                             4625.98  4638.30  4645.97  4690.50

 Zero-point correction=                           0.232444 (Hartree/Particle)
 Thermal correction to Energy=                    0.249014
 Thermal correction to Enthalpy=                  0.249958
 Thermal correction to Gibbs Free Energy=         0.185500
 Sum of electronic and zero-point Energies=           -914.872327
 Sum of electronic and thermal Energies=              -914.855757
 Sum of electronic and thermal Enthalpies=            -914.854813
 Sum of electronic and thermal Free Energies=         -914.919272

                     E (Thermal)             CV                S
                      KCal/Mol        Cal/Mol-Kelvin    Cal/Mol-Kelvin
 Total                  156.259             61.630            135.665
 Electronic               0.000              0.000              0.000
 Translational            0.889              2.981             42.402
 Rotational               0.889              2.981             33.292
 Vibrational            154.481             55.668             59.971
 Vibration     1          0.593              1.987              7.551
 Vibration     2          0.593              1.984              6.014
 Vibration     3          0.594              1.983              5.561
 Vibration     4          0.595              1.980              5.103
 Vibration     5          0.599              1.965              4.008
 Vibration     6          0.608              1.935              3.145
 Vibration     7          0.626              1.878              2.425
 Vibration     8          0.633              1.856              2.247
 Vibration     9          0.641              1.830              2.071
 Vibration    10          0.651              1.800              1.901
 Vibration    11          0.662              1.766              1.744
 Vibration    12          0.673              1.731              1.607
 Vibration    13          0.680              1.710              1.531
 Vibration    14          0.695              1.666              1.395
 Vibration    15          0.728              1.572              1.158
 Vibration    16          0.731              1.563              1.141
 Vibration    17          0.741              1.536              1.084
 Vibration    18          0.750              1.514              1.041
 Vibration    19          0.774              1.448              0.926
 Vibration    20          0.784              1.423              0.887
 Vibration    21          0.792              1.403              0.856
 Vibration    22          0.826              1.319              0.740
 Vibration    23          0.865              1.227              0.633
 Vibration    24          0.930              1.087              0.496
 Vibration    25          0.940              1.068              0.480
 Vibration    26          0.956              1.036              0.453

 Optimization completed.
    -- Stationary point found.
 Normal termination of Gaussian 09 at Wed Sep 29 11:59:12 2021.
 Gaussian 09:  AM64L-G09RevA.02 11-Jun-2009

 ----------------------------------------------------------------------
 #p TD(NStates=10, Root=1) b3lyp/6-31G* volume pop=NPA density=current
 Geom=AllCheck Guess=Read
 ----------------------------------------------------------------------

 O=C(C(C)(C)C)Oc1ccc(cc1)C(F)(F)F_conf_0
 ---------------------------------------
 Redundant internal coordinates taken from checkpoint file:
 C12H13F3O2_c0b9_conf_0.chk
 Charge =  0 Multiplicity = 1

                         Standard orientation:
 ---------------------------------------------------------------------
 Center     Atomic      Atomic             Coordinates (Angstroms)
 Number     Number       Type             X           Y           Z
 ---------------------------------------------------------------------
      1          8           0        2.223609   -1.419014   -0.835358
      2          6           0        2.539179   -0.415203   -0.246168
      3          6           0        3.968222    0.065562    0.020290
      4          6           0        4.945738   -0.959477   -0.576472
      5          6           0        4.171069    1.445352   -0.646091
      6          6           0        4.183968    0.184568    1.546023
      7          8           0        1.626884    0.472155    0.282795
      8          6           0        0.256906    0.261210    0.174136
      9          6           0       -0.347456   -0.973956    0.415046
     10          6           0       -1.736436   -1.066422    0.359386
     11          6           0       -2.513235    0.059350    0.074561
     12          6           0       -1.895505    1.291443   -0.156821
     13          6           0       -0.508725    1.393101   -0.107682
     14          6           0       -4.007377   -0.062552   -0.038268
     15          9           0       -4.491686   -1.066494    0.726558
     16          9           0       -4.633705    1.075190    0.339882
     17          9           0       -4.397172   -0.316577   -1.310078
     18          1           0        4.798350   -1.067522   -1.655150
     19          1           0        4.811734   -1.946595   -0.123855
     20          1           0        5.976468   -0.633707   -0.398043
     21          1           0        4.010117    1.390562   -1.728885
     22          1           0        5.198782    1.785714   -0.476332
     23          1           0        3.488802    2.193543   -0.233234
     24          1           0        4.034646   -0.779838    2.045255
     25          1           0        3.500614    0.912443    1.992059
     26          1           0        5.211555    0.509205    1.745457
     27          1           0        0.253366   -1.846337    0.634293
     28          1           0       -2.218021   -2.019760    0.549080
     29          1           0       -2.496988    2.169454   -0.367361
     30          1           0       -0.008407    2.340785   -0.277685
 ---------------------------------------------------------------------

 SCF Done:  E(RB3LYP) =  -915.104771607     A.U. after    1 cycles

 Excitation energies and oscillator strengths:

 Excited State   1:      Singlet-A      5.2635 eV  235.55 nm  f=0.0022  <S**2>=0.000
      62 -> 67        -0.14225
      63 -> 65         0.52769
      64 -> 66        -0.43577
 This state for optimization and/or second-order correction.
 Total Energy, E(TD-HF/TD-KS) =  -914.911340786
 Copying the excited state density for this state as the 1-particle RhoCI density.

 Excited State   2:      Singlet-A      5.4547 eV  227.30 nm  f=0.0115  <S**2>=0.000
      62 -> 65         0.52383
      62 -> 67        -0.28203
      63 -> 67        -0.22913
      64 -> 65        -0.10368
      64 -> 66         0.26693

 Excited State   3:      Singlet-A      5.6380 eV  219.91 nm  f=0.2212  <S**2>=0.000
      63 -> 66         0.21043
      64 -> 65         0.64052
      64 -> 67        -0.14769

 Excited State   4:      Singlet-A      6.2945 eV  196.97 nm  f=0.0348  <S**2>=0.000
      62 -> 65        -0.15899
      62 -> 66         0.29485
      62 -> 67        -0.18267
      63 -> 66         0.39582
      63 -> 67        -0.10500
      64 -> 67         0.40903

 Excited State   5:      Singlet-A      6.3817 eV  194.28 nm  f=0.0574  <S**2>=0.000
      62 -> 65         0.32598
      62 -> 66         0.35674
      62 -> 67         0.27542
      63 -> 66         0.17179
      63 -> 67         0.36420

 Excited State   6:      Singlet-A      6.4177 eV  193.19 nm  f=0.0141  <S**2>=0.000
      62 -> 65         0.19703
      62 -> 66        -0.41148
      63 -> 67         0.26680
      64 -> 67         0.42353

 Excited State   7:      Singlet-A      6.5360 eV  189.69 nm  f=0.0954  <S**2>=0.000
      62 -> 67         0.42011
      63 -> 65         0.36635
      63 -> 66         0.10249
      63 -> 67        -0.19155
      64 -> 66         0.30814
      64 -> 67         0.16603

 Excited State   8:      Singlet-A      6.9796 eV  177.64 nm  f=0.4039  <S**2>=0.000
      61 -> 65         0.38489
      62 -> 66        -0.27627
      63 -> 66         0.41991
      64 -> 65        -0.14715
      64 -> 67        -0.19503

 Excited State   9:      Singlet-A      7.0353 eV  176.23 nm  f=0.1869  <S**2>=0.000
      61 -> 65         0.11005
      61 -> 66        -0.24025
      62 -> 65        -0.15198
      62 -> 67        -0.28435
      63 -> 65         0.20297
      63 -> 67         0.40882
      64 -> 66         0.31176

 Excited State  10:      Singlet-A      7.3822 eV  167.95 nm  f=0.2528  <S**2>=0.000
      58 -> 65        -0.16899
      60 -> 65         0.12900
      61 -> 65         0.49925
      62 -> 66         0.16525
      63 -> 66        -0.25089
      64 -> 65         0.15245
      64 -> 67         0.19821

 The electronic state is 1-A.
 Alpha  occ. eigenvalues --  -24.72278 -24.72219 -24.71590 -19.21277 -19.15246
 Alpha  occ. eigenvalues --  -10.43069 -10.32810 -10.27008 -10.22285 -10.21730
 Alpha  occ. eigenvalues --  -10.21408 -10.21308 -10.20924 -10.20794 -10.19011
 Alpha  occ. eigenvalues --  -10.19002 -10.18147  -1.29767  -1.21270  -1.20725
 Alpha  occ. eigenvalues --   -1.11899  -1.03681  -0.87918  -0.83366  -0.78866
 Alpha  occ. eigenvalues --   -0.76906  -0.71131  -0.69967  -0.69295  -0.66183
 Alpha  occ. eigenvalues --   -0.63774  -0.60907  -0.57730  -0.57583  -0.56826
 Alpha  occ. eigenvalues --   -0.56618  -0.50251  -0.49371  -0.48719  -0.46874
 Alpha  occ. eigenvalues --   -0.46290  -0.45525  -0.45087  -0.44734  -0.44505
 Alpha  occ. eigenvalues --   -0.44150  -0.43230  -0.41796  -0.41419  -0.40791
 Alpha  occ. eigenvalues --   -0.39904  -0.39439  -0.39246  -0.38064  -0.37589
 Alpha  occ. eigenvalues --   -0.37158  -0.37057  -0.35916  -0.34387  -0.34236
 Alpha  occ. eigenvalues --   -0.33184  -0.28346  -0.26847  -0.25686
 Alpha virt. eigenvalues --   -0.03254  -0.01942   0.00369   0.07585   0.08530
 Alpha virt. eigenvalues --    0.11864   0.12424   0.12750   0.14365   0.14406
 Alpha virt. eigenvalues --    0.14456   0.14677   0.15337   0.15897   0.17217

 Mulliken atomic charges:
              1
     1  O   -0.425521
     2  C    0.609739
     3  C   -0.006605
     4  C   -0.439144
     5  C   -0.449587
     6  C   -0.450487
     7  O   -0.510908
     8  C    0.340076
     9  C   -0.155609
    10  C   -0.174910
    11  C   -0.004786
    12  C   -0.173399
    13  C   -0.170966
    14  C    0.778323
    15  F   -0.271319
    16  F   -0.272060
    17  F   -0.261028
    18  H    0.159206
    19  H    0.156948
    20  H    0.142237
    21  H    0.154402
    22  H    0.151370
    23  H    0.161604
    24  H    0.152210
    25  H    0.165155
    26  H    0.150852
    27  H    0.166609
    28  H    0.163223
    29  H    0.160755
    30  H    0.153621
 Sum of Mulliken atomic charges =  -0.00000

 Dipole moment (field-independent basis, Debye):
    X=              3.6087    Y=              1.3893    Z=              0.9482  Tot=              3.9815
 Quadrupole moment (field-independent basis, Debye-Ang):
   XX=            -99.2012   YY=            -94.1222   ZZ=            -99.0802
   XY=              2.3286   XZ=              1.3338   YZ=             -3.8952

 Summary of Natural Population Analysis:

                                       Natural Population
                Natural  -----------------------------------------------
    Atom  No    Charge         Core      Valence    Rydberg      Total
 -----------------------------------------------------------------------
      O    1   -0.51000      1.99978     6.48995    0.02027     8.51000
      C    2    0.78004      1.99926     3.17259    0.04811     5.21996
      C    3   -0.14232      1.99906     4.13065    0.01262     6.14232
      C    4   -0.67161      1.99939     4.66125    0.01096     6.67161
      C    5   -0.66932      1.99938     4.66002    0.00992     6.66932
      C    6   -0.66994      1.99938     4.66068    0.00988     6.66994
      O    7   -0.51117      1.99970     6.50020    0.01127     8.51117
      C    8    0.28379      1.99876     3.69381    0.02364     5.71621
      C    9   -0.26716      1.99904     4.25110    0.01701     6.26716
      C   10   -0.18632      1.99908     4.16970    0.01754     6.18632
      C   11   -0.17176      1.99888     4.15590    0.01698     6.17176
      C   12   -0.20467      1.99908     4.18788    0.01771     6.20467
      C   13   -0.23705      1.99905     4.22049    0.01752     6.23705
      C   14    1.11217      1.99906     2.81837    0.07039     4.88783
      F   15   -0.36471      1.99993     7.35861    0.00617     9.36471
      F   16   -0.36542      1.99993     7.35930    0.00619     9.36542
      F   17   -0.36289      1.99993     7.35674    0.00621     9.36289
      H   18    0.24384      0.00000     0.75516    0.00100     0.75616
      H   19    0.24260      0.00000     0.75641    0.00100     0.75740
      H   20    0.23306      0.00000     0.76606    0.00088     0.76694
      H   21    0.23807      0.00000     0.76102    0.00091     0.76193
      H   22    0.23689      0.00000     0.76200    0.00111     0.76311
      H   23    0.24240      0.00000     0.75647    0.00113     0.75760
      H   24    0.23699      0.00000     0.76208    0.00093     0.76301
      H   25    0.24450      0.00000     0.75448    0.00102     0.75550
      H   26    0.23659      0.00000     0.76215    0.00126     0.76341
      H   27    0.25727      0.00000     0.74159    0.00114     0.74273
      H   28    0.24995      0.00000     0.74862    0.00142     0.75005
      H   29    0.24915      0.00000     0.74945    0.00139     0.75085
      H   30    0.24703      0.00000     0.75182    0.00115     0.75297
 =======================================================================
   * Total *   -0.00000     33.98870    93.67456    0.33674   128.00000

 Normal termination of Gaussian 09 at Wed Sep 29 17:59:37 2021.
