 Gaussian 09, Revision A.02,

 -----------------------------------
 #p opt b3lyp/6-31G* scf=(xqc,tight)
 -----------------------------------

 -----------------------------
 COc1cccc2c1ccn2CCN(C)C_conf_0
 -----------------------------
 Symbolic Z-matrix:
 Charge =  0 Multiplicity = 1

 SCF Done:  E(RB3LYP) =  -690.918364278     A.U. after   14 cycles
 SCF Done:  E(RB3LYP) =  -690.922975863     A.U. after   12 cycles
 SCF Done:  E(RB3LYP) =  -690.924287970     A.U. after   12 cycles
 SCF Done:  E(RB3LYP) =  -690.924792676     A.U. after   12 cycles
 SCF Done:  E(RB3LYP) =  -690.925012694     A.U. after   11 cycles
 SCF Done:  E(RB3LYP) =  -690.925150247     A.U. after   11 cycles
 SCF Done:  E(RB3LYP) =  -690.925176734     A.U. after   10 cycles
 SCF Done:  E(RB3LYP) =  -690.925183496     A.U. after    8 cycles
 SCF Done:  E(RB3LYP) =  -690.925184669     A.U. after    8 cycles
 SCF Done:  E(RB3LYP) =  -690.925185093     A.U. after    8 cycles
 SCF Done:  E(RB3LYP) =  -690.925185303     A.U. after    8 cycles
 SCF Done:  E(RB3LYP) =  -690.925185363     A.U. after    7 cycles
 Optimization completed.
    -- Stationary point found.
 Normal termination of Gaussian 09 at Thu Sep 30 12:30:27 2021.

 ----------------------------------------------------------------------
 #p freq b3lyp/6-31G* volume NMR pop=NPA density=current Geom=AllCheck
 Guess=Read
 ----------------------------------------------------------------------

 COc1cccc2c1ccn2CCN(C)C_conf_0
 -----------------------------
 Redundant internal coordinates taken from checkpoint file:
 C13H18N2O_038e_conf_0.chk
 Charge =  0 Multiplicity = 1

 SCF Done:  E(RB3LYP) =  -690.925185363     A.U. after    1 cycles

  1  C    Isotropic =   137.4032   Anisotropy =    66.2065

  2  O    Isotropic =   241.5174   Anisotropy =    88.9623

  3  C    Isotropic =    44.3552   Anisotropy =   113.0824

  4  C    Isotropic =    95.6105   Anisotropy =   129.3965

  5  C    Isotropic =    73.5239   Anisotropy =   151.6369

  6  C    Isotropic =    93.9596   Anisotropy =   132.4152

  7  C    Isotropic =    60.7460   Anisotropy =   129.9550

  8  C    Isotropic =    75.9522   Anisotropy =   131.4339

  9  C    Isotropic =    94.1444   Anisotropy =   114.6782

 10  C    Isotropic =    71.5861   Anisotropy =    87.2921

 11  N    Isotropic =   120.5046   Anisotropy =    85.7534

 12  C    Isotropic =   143.7750   Anisotropy =    44.9135

 13  C    Isotropic =   132.1046   Anisotropy =    65.3922

 14  N    Isotropic =   225.5476   Anisotropy =    38.7503

 15  C    Isotropic =   143.2532   Anisotropy =    66.6545

 16  C    Isotropic =   147.8698   Anisotropy =    58.5144

 17  H    Isotropic =    28.2454   Anisotropy =     8.6005

 18  H    Isotropic =    28.5381   Anisotropy =     8.5491

 19  H    Isotropic =    28.5340   Anisotropy =     8.6558

 20  H    Isotropic =    26.1418   Anisotropy =     6.9553

 21  H    Isotropic =    25.2874   Anisotropy =     5.4416

 22  H    Isotropic =    25.6131   Anisotropy =     7.8071

 23  H    Isotropic =    25.7602   Anisotropy =     4.8172

 24  H    Isotropic =    25.6221   Anisotropy =     5.0623

 25  H    Isotropic =    28.4062   Anisotropy =     5.4055

 26  H    Isotropic =    28.0112   Anisotropy =     6.1164

 27  H    Isotropic =    29.6426   Anisotropy =     7.3211

 28  H    Isotropic =    29.7608   Anisotropy =     6.8029

 29  H    Isotropic =    29.9353   Anisotropy =     9.2845

 30  H    Isotropic =    29.9421   Anisotropy =    10.0364

 31  H    Isotropic =    30.1092   Anisotropy =     8.3524

 32  H    Isotropic =    29.5811   Anisotropy =     7.2487

 33  H    Isotropic =    30.3223   Anisotropy =     7.8834

 34  H    Isotropic =    29.9791   Anisotropy =     9.4329

  Exact polarizability: 210.397   7.249 161.465  15.156  -0.302  89.985
 Approx polarizability: 282.145  13.061 273.101  32.418   1.054 134.858

                     1                      2                      3
                     A                      A                      A
 Frequencies --    28.8993                36.0175                37.2062
 Red. masses --     2.7207                 3.8619                 4.1286
 Frc consts  --     0.0013                 0.0030                 0.0034
 IR Inten    --     0.2254                 0.0278                 0.4728

                     4                      5                      6
                     A                      A                      A
 Frequencies --    87.4750               104.2249               160.8392
 Red. masses --     3.3023                 2.1872                 3.7696
 Frc consts  --     0.0149                 0.0140                 0.0575
 IR Inten    --     4.3026                 0.2118                 1.0201

                     7                      8                      9
                     A                      A                      A
 Frequencies --   185.4040               196.0509               220.1146
 Red. masses --     3.2710                 2.6798                 2.8780
 Frc consts  --     0.0662                 0.0607                 0.0822
 IR Inten    --     2.3265                 1.8153                 0.2580

                    10                     11                     12
                     A                      A                      A
 Frequencies --   247.3036               248.2312               260.3338
 Red. masses --     1.5587                 1.1601                 1.3638
 Frc consts  --     0.0562                 0.0421                 0.0545
 IR Inten    --     1.2131                 0.5314                 0.4366

                    13                     14                     15
                     A                      A                      A
 Frequencies --   277.7586               296.3476               320.1340
 Red. masses --     2.1349                 2.6312                 3.2549
 Frc consts  --     0.0970                 0.1361                 0.1965
 IR Inten    --     1.3091                 0.3255                 0.2824

                    16                     17                     18
                     A                      A                      A
 Frequencies --   366.2555               387.6668               435.4001
 Red. masses --     3.1600                 2.5966                 2.8161
 Frc consts  --     0.2497                 0.2299                 0.3145
 IR Inten    --     1.0419                 7.2874                 2.5109

                    19                     20                     21
                     A                      A                      A
 Frequencies --   464.7911               499.2837               535.6317
 Red. masses --     2.3456                 6.2003                 4.2342
 Frc consts  --     0.2985                 0.9107                 0.7157
 IR Inten    --     0.6101                 1.6982                 2.1782

                    22                     23                     24
                     A                      A                      A
 Frequencies --   551.5848               600.3476               628.6126
 Red. masses --     4.3068                 4.0564                 4.5424
 Frc consts  --     0.7720                 0.8614                 1.0575
 IR Inten    --     1.7429                 1.9066                13.0123

                    25                     26                     27
                     A                      A                      A
 Frequencies --   641.8729               698.2143               720.1625
 Red. masses --     4.9048                 5.2527                 1.3618
 Frc consts  --     1.1906                 1.5087                 0.4161
 IR Inten    --     5.0455                 6.0753                13.2661

                    28                     29                     30
                     A                      A                      A
 Frequencies --   744.4815               753.2419               792.5624
 Red. masses --     1.2959                 4.3570                 4.1293
 Frc consts  --     0.4232                 1.4565                 1.5283
 IR Inten    --    68.6019                26.1992                 6.0590

                    31                     32                     33
                     A                      A                      A
 Frequencies --   799.6204               833.6988               843.0128
 Red. masses --     1.2439                 1.3687                 1.3568
 Frc consts  --     0.4686                 0.5605                 0.5681
 IR Inten    --     1.9781                 3.2753                 0.0483

                    34                     35                     36
                     A                      A                      A
 Frequencies --   869.4162               881.6095               930.2686
 Red. masses --     4.2576                 4.1527                 1.2253
 Frc consts  --     1.8961                 1.9016                 0.6248
 IR Inten    --     9.6479                 4.9546                 0.6289

                    37                     38                     39
                     A                      A                      A
 Frequencies --   966.3261              1039.2239              1040.6209
 Red. masses --     5.2679                 2.2110                 2.7244
 Frc consts  --     2.8983                 1.4069                 1.7382
 IR Inten    --     2.1431                17.7181                 4.9757

                    40                     41                     42
                     A                      A                      A
 Frequencies --  1070.6417              1078.5902              1097.5530
 Red. masses --     1.7728                 2.1009                 1.9488
 Frc consts  --     1.1973                 1.4400                 1.3831
 IR Inten    --    34.0783                30.9457                14.7437

                    43                     44                     45
                     A                      A                      A
 Frequencies --  1101.2473              1107.1349              1133.1169
 Red. masses --     1.3758                 3.9593                 1.2692
 Frc consts  --     0.9831                 2.8594                 0.9601
 IR Inten    --    26.0093                56.5245                 6.2388

                    46                     47                     48
                     A                      A                      A
 Frequencies --  1165.5156              1185.7651              1194.8755
 Red. masses --     1.4506                 1.2713                 1.2716
 Frc consts  --     1.1610                 1.0532                 1.0697
 IR Inten    --    22.5337                 0.8535                 5.1369

                    49                     50                     51
                     A                      A                      A
 Frequencies --  1204.6372              1219.2666              1228.9234
 Red. masses --     1.6131                 1.4691                 2.1363
 Frc consts  --     1.3792                 1.2868                 1.9009
 IR Inten    --     9.1038                 8.9363                 7.5481

                    52                     53                     54
                     A                      A                      A
 Frequencies --  1235.9201              1279.5156              1300.2396
 Red. masses --     1.9609                 2.0018                 2.8546
 Frc consts  --     1.7648                 1.9309                 2.8434
 IR Inten    --     2.6143                22.7371               316.8285

                    55                     56                     57
                     A                      A                      A
 Frequencies --  1315.0073              1329.4047              1350.5325
 Red. masses --     2.4195                 1.9546                 1.3829
 Frc consts  --     2.4651                 2.0353                 1.4861
 IR Inten    --    24.5721                27.4134                 7.4510

                    58                     59                     60
                     A                      A                      A
 Frequencies --  1368.1258              1395.2559              1412.1830
 Red. masses --     1.4212                 4.6099                 2.3753
 Frc consts  --     1.5673                 5.2875                 2.7909
 IR Inten    --    24.4671                28.3057                22.8288

                    61                     62                     63
                     A                      A                      A
 Frequencies --  1436.5949              1448.8279              1469.9280
 Red. masses --     1.4180                 3.7166                 1.1724
 Frc consts  --     1.7243                 4.5965                 1.4925
 IR Inten    --     2.7247                17.1676                 5.5410

                    64                     65                     66
                     A                      A                      A
 Frequencies --  1485.8535              1498.4826              1498.8787
 Red. masses --     3.2739                 1.2243                 1.2045
 Frc consts  --     4.2586                 1.6197                 1.5943
 IR Inten    --    55.5264                 6.3453                10.2184

                    67                     68                     69
                     A                      A                      A
 Frequencies --  1512.8074              1517.4747              1519.2032
 Red. masses --     1.0540                 1.1302                 1.0493
 Frc consts  --     1.4212                 1.5334                 1.4269
 IR Inten    --     7.8343                 4.5322                 4.8496

                    70                     71                     72
                     A                      A                      A
 Frequencies --  1524.0053              1529.8299              1535.6691
 Red. masses --     1.0864                 1.0500                 1.1012
 Frc consts  --     1.4867                 1.4479                 1.5301
 IR Inten    --    11.0813                11.2911                65.1391

                    73                     74                     75
                     A                      A                      A
 Frequencies --  1536.2657              1541.5275              1549.6892
 Red. masses --     1.0877                 1.0562                 2.4618
 Frc consts  --     1.5125                 1.4788                 3.4833
 IR Inten    --    13.1997                 6.2873                85.8459

                    76                     77                     78
                     A                      A                      A
 Frequencies --  1566.6236              1634.6880              1662.8919
 Red. masses --     4.3612                 6.0771                 7.3407
 Frc consts  --     6.3065                 9.5679                11.9595
 IR Inten    --    14.2006                81.1159                25.5168

                    79                     80                     81
                     A                      A                      A
 Frequencies --  2934.9665              2940.5024              2952.3331
 Red. masses --     1.0614                 1.0660                 1.0684
 Frc consts  --     5.3867                 5.4305                 5.4866
 IR Inten    --    38.6410                56.7801               120.7660

                    82                     83                     84
                     A                      A                      A
 Frequencies --  3023.0904              3071.9938              3078.0919
 Red. masses --     1.0346                 1.0645                 1.0717
 Frc consts  --     5.5706                 5.9190                 5.9826
 IR Inten    --    68.9121                12.0980                34.1048

                    85                     86                     87
                     A                      A                      A
 Frequencies --  3080.5502              3084.8424              3087.7471
 Red. masses --     1.1065                 1.0824                 1.0710
 Frc consts  --     6.1867                 6.0689                 6.0160
 IR Inten    --    45.3802                31.6089                45.4020

                    88                     89                     90
                     A                      A                      A
 Frequencies --  3120.9030              3124.0628              3130.3851
 Red. masses --     1.1052                 1.1041                 1.1037
 Frc consts  --     6.3426                 6.3489                 6.3723
 IR Inten    --     5.6536                47.6797                39.3861

                    91                     92                     93
                     A                      A                      A
 Frequencies --  3152.5945              3186.7360              3207.9370
 Red. masses --     1.0998                 1.0864                 1.0932
 Frc consts  --     6.4401                 6.5002                 6.6283
 IR Inten    --    28.8615                 7.7517                23.8767

                    94                     95                     96
                     A                      A                      A
 Frequencies --  3226.5422              3257.9682              3284.8927
 Red. masses --     1.0913                 1.0912                 1.1014
 Frc consts  --     6.6937                 6.8239                 7.0020
 IR Inten    --    15.6393                 0.7014                 3.9033

 - Thermochemistry -
 -------------------
 Temperature   298.150 Kelvin.  Pressure   1.00000 Atm.
 Atom     1 has atomic number  6 and mass  12.00000

 Molecular mass:   218.14191 amu.
 Principal axes and moments of inertia in atomic units:
                           1         2         3
     Eigenvalues --  1384.953977577.319878396.50626
           X            1.00000  -0.00085  -0.00143
           Y            0.00084   0.99997  -0.00814
           Z            0.00144   0.00814   0.99997
 This molecule is an asymmetric top.
 Rotational symmetry number  1.
 Warning -- assumption of classical behavior for rotation
           may cause significant error
 Rotational temperatures (Kelvin)      0.06254     0.01143     0.01032
 Rotational constants (GHZ):           1.30311     0.23818     0.21494
 Zero-point vibrational energy     771107.3 (Joules/Mol)
                                  184.29907 (Kcal/Mol)
 Warning -- explicit consideration of  23 degrees of freedom as
           vibrations may cause significant error
 Vibrational temperatures:     41.58    51.82    53.53   125.86   149.96
          (Kelvin)            231.41   266.75   282.07   316.70   355.81
                              357.15   374.56   399.63   426.38   460.60
                              526.96   557.77   626.44   668.73   718.36
                              770.65   793.61   863.77   904.43   923.51
                             1004.57  1036.15  1071.14  1083.75  1140.32
                             1150.47  1199.51  1212.91  1250.89  1268.44
                             1338.45  1390.33  1495.21  1497.22  1540.41
                             1551.85  1579.13  1584.45  1592.92  1630.30
                             1676.91  1706.05  1719.16  1733.20  1754.25
                             1768.14  1778.21  1840.94  1870.75  1892.00
                             1912.71  1943.11  1968.43  2007.46  2031.81
                             2066.94  2084.54  2114.90  2137.81  2155.98
                             2156.55  2176.59  2183.30  2185.79  2192.70
                             2201.08  2209.48  2210.34  2217.91  2229.65
                             2254.02  2351.95  2392.53  4222.76  4230.72
                             4247.74  4349.55  4419.91  4428.68  4432.22
                             4438.39  4442.57  4490.28  4494.82  4503.92
                             4535.87  4585.00  4615.50  4642.27  4687.48
                             4726.22

 Zero-point correction=                           0.293699 (Hartree/Particle)
 Thermal correction to Energy=                    0.309296
 Thermal correction to Enthalpy=                  0.310240
 Thermal correction to Gibbs Free Energy=         0.249679
 Sum of electronic and zero-point Energies=           -690.631486
 Sum of electronic and thermal Energies=              -690.615889
 Sum of electronic and thermal Enthalpies=            -690.614945
 Sum of electronic and thermal Free Energies=         -690.675506

                     E (Thermal)             CV                S
                      KCal/Mol        Cal/Mol-Kelvin    Cal/Mol-Kelvin
 Total                  194.086             59.398            127.462
 Electronic               0.000              0.000              0.000
 Translational            0.889              2.981             42.043
 Rotational               0.889              2.981             32.844
 Vibrational            192.309             53.437             52.575
 Vibration     1          0.593              1.984              5.904
 Vibration     2          0.594              1.982              5.467
 Vibration     3          0.594              1.982              5.403
 Vibration     4          0.601              1.958              3.716
 Vibration     5          0.605              1.946              3.374
 Vibration     6          0.622              1.890              2.540
 Vibration     7          0.631              1.860              2.273
 Vibration     8          0.636              1.845              2.170
 Vibration     9          0.647              1.810              1.958
 Vibration    10          0.661              1.767              1.750
 Vibration    11          0.662              1.766              1.743
 Vibration    12          0.668              1.745              1.660
 Vibration    13          0.679              1.715              1.547
 Vibration    14          0.690              1.681              1.437
 Vibration    15          0.706              1.635              1.309
 Vibration    16          0.739              1.542              1.095
 Vibration    17          0.756              1.497              1.009
 Vibration    18          0.796              1.393              0.841
 Vibration    19          0.822              1.328              0.752
 Vibration    20          0.855              1.252              0.660
 Vibration    21          0.891              1.171              0.575
 Vibration    22          0.907              1.136              0.541
 Vibration    23          0.958              1.031              0.449

 Optimization completed.
    -- Stationary point found.
 Normal termination of Gaussian 09 at Thu Sep 30 13:40:54 2021.
 Gaussian 09:  AM64L-G09RevA.02 11-Jun-2009

 ----------------------------------------------------------------------
 #p TD(NStates=10, Root=1) b3lyp/6-31G* volume pop=NPA density=current
 Geom=AllCheck Guess=Read
 ----------------------------------------------------------------------

 COc1cccc2c1ccn2CCN(C)C_conf_0
 -----------------------------
 Redundant internal coordinates taken from checkpoint file:
 C13H18N2O_038e_conf_0.chk
 Charge =  0 Multiplicity = 1

                         Standard orientation:
 ---------------------------------------------------------------------
 Center     Atomic      Atomic             Coordinates (Angstroms)
 Number     Number       Type             X           Y           Z
 ---------------------------------------------------------------------
      1          6           0        5.193986    0.014053    0.668248
      2          8           0        3.972610   -0.648160    0.389407
      3          6           0        2.871963    0.119580    0.130330
      4          6           0        2.847534    1.511485    0.113396
      5          6           0        1.647280    2.201950   -0.166484
      6          6           0        0.458900    1.539453   -0.432259
      7          6           0        0.495581    0.135278   -0.415644
      8          6           0        1.681480   -0.590405   -0.135664
      9          6           0        1.356904   -1.984182   -0.201307
     10          6           0        0.025205   -2.060934   -0.511009
     11          7           0       -0.508485   -0.788443   -0.651948
     12          6           0       -1.908285   -0.487218   -0.899347
     13          6           0       -2.701921   -0.264171    0.400196
     14          7           0       -4.124873   -0.048428    0.146818
     15          6           0       -4.929273   -0.315069    1.333750
     16          6           0       -4.406855    1.283671   -0.376398
     17          1           0        5.930013   -0.772931    0.844758
     18          1           0        5.115528    0.645410    1.563599
     19          1           0        5.520243    0.633121   -0.178321
     20          1           0        3.745638    2.083839    0.314510
     21          1           0        1.663842    3.288565   -0.169430
     22          1           0       -0.454573    2.088240   -0.639267
     23          1           0        2.031717   -2.813786   -0.049635
     24          1           0       -0.607266   -2.926045   -0.659882
     25          1           0       -2.352494   -1.322401   -1.449247
     26          1           0       -1.957554    0.389812   -1.552621
     27          1           0       -2.244356    0.562956    0.976893
     28          1           0       -2.596715   -1.168127    1.010525
     29          1           0       -4.760280   -1.342127    1.674042
     30          1           0       -5.991367   -0.210061    1.086435
     31          1           0       -4.707698    0.367886    2.177312
     32          1           0       -3.866928    1.454946   -1.312459
     33          1           0       -4.133397    2.092359    0.330336
     34          1           0       -5.476709    1.370788   -0.593736
 ---------------------------------------------------------------------

 SCF Done:  E(RB3LYP) =  -690.925185363     A.U. after    1 cycles

 Excitation energies and oscillator strengths:

 Excited State   1:      Singlet-A      4.6965 eV  264.00 nm  f=0.1673  <S**2>=0.000
      58 -> 60         0.19987
      58 -> 61        -0.16246
      59 -> 60         0.63376
      59 -> 61         0.13462
 This state for optimization and/or second-order correction.
 Total Energy, E(TD-HF/TD-KS) =  -690.752593690
 Copying the excited state density for this state as the 1-particle RhoCI density.

 Excited State   2:      Singlet-A      5.0275 eV  246.61 nm  f=0.0261  <S**2>=0.000
      57 -> 60        -0.12195
      58 -> 60         0.43209
      59 -> 60        -0.23293
      59 -> 61         0.48467

 Excited State   3:      Singlet-A      5.6070 eV  221.12 nm  f=0.0106  <S**2>=0.000
      57 -> 60         0.62372
      58 -> 60         0.30078
      59 -> 61        -0.11815

 Excited State   4:      Singlet-A      5.9524 eV  208.29 nm  f=0.1429  <S**2>=0.000
      56 -> 60         0.51341
      57 -> 60         0.20397
      58 -> 60        -0.21676
      59 -> 61         0.23531
      59 -> 62         0.17748
      59 -> 63        -0.21684

 Excited State   5:      Singlet-A      6.1619 eV  201.21 nm  f=0.2030  <S**2>=0.000
      56 -> 60         0.36563
      57 -> 60        -0.17389
      58 -> 60         0.28034
      59 -> 61        -0.34218
      59 -> 62        -0.25626
      59 -> 63        -0.20577

 Excited State   6:      Singlet-A      6.2942 eV  196.98 nm  f=0.1244  <S**2>=0.000
      57 -> 60        -0.12113
      58 -> 60         0.19638
      58 -> 61         0.12377
      59 -> 61        -0.19182
      59 -> 62         0.60433

 Excited State   7:      Singlet-A      6.4132 eV  193.33 nm  f=0.1639  <S**2>=0.000
      57 -> 61         0.39176
      58 -> 61         0.54803

 Excited State   8:      Singlet-A      6.6231 eV  187.20 nm  f=0.0589  <S**2>=0.000
      56 -> 60         0.22393
      57 -> 61         0.37776
      58 -> 61        -0.17939
      59 -> 63         0.48707

 Excited State   9:      Singlet-A      6.6901 eV  185.32 nm  f=0.2702  <S**2>=0.000
      55 -> 60         0.14653
      56 -> 60        -0.17208
      57 -> 61         0.42241
      58 -> 61        -0.29080
      59 -> 60        -0.11409
      59 -> 63        -0.37093

 Excited State  10:      Singlet-A      6.8431 eV  181.18 nm  f=0.0524  <S**2>=0.000
      56 -> 61         0.49038
      57 -> 62        -0.13285
      57 -> 63        -0.12428
      58 -> 61         0.11000
      58 -> 62        -0.33539
      58 -> 63         0.26259

 The electronic state is 1-A.
 Alpha  occ. eigenvalues --  -19.16743 -14.37176 -14.33073 -10.23354 -10.23256
 Alpha  occ. eigenvalues --  -10.22726 -10.21275 -10.20629 -10.20601 -10.20516
 Alpha  occ. eigenvalues --  -10.20511 -10.17664 -10.17375 -10.16951 -10.16836
 Alpha  occ. eigenvalues --  -10.16398  -1.05246  -0.97597  -0.92342  -0.83179
 Alpha  occ. eigenvalues --   -0.79346  -0.75005  -0.71907  -0.71637  -0.70781
 Alpha  occ. eigenvalues --   -0.68068  -0.65523  -0.60114  -0.58894  -0.57954
 Alpha  occ. eigenvalues --   -0.55588  -0.52148  -0.49263  -0.48498  -0.47806
 Alpha  occ. eigenvalues --   -0.46649  -0.46144  -0.45866  -0.45351  -0.44437
 Alpha  occ. eigenvalues --   -0.42782  -0.41769  -0.40210  -0.39402  -0.39024
 Alpha  occ. eigenvalues --   -0.38342  -0.37676  -0.37093  -0.36659  -0.36239
 Alpha  occ. eigenvalues --   -0.35004  -0.34421  -0.33538  -0.31789  -0.29869
 Alpha  occ. eigenvalues --   -0.24218  -0.22014  -0.20923  -0.18112
 Alpha virt. eigenvalues --    0.00751   0.03952   0.07248   0.07962   0.10077
 Alpha virt. eigenvalues --    0.10878   0.11017   0.11926   0.13341   0.13956
 Alpha virt. eigenvalues --    0.14385   0.15051   0.15234   0.15965   0.16157

 Mulliken atomic charges:
              1
     1  C   -0.214183
     2  O   -0.489144
     3  C    0.269168
     4  C   -0.176555
     5  C   -0.197884
     6  C   -0.179413
     7  C    0.295215
     8  C    0.047997
     9  C   -0.201311
    10  C   -0.003504
    11  N   -0.472502
    12  C   -0.163915
    13  C   -0.119482
    14  N   -0.368763
    15  C   -0.297403
    16  C   -0.306407
    17  H    0.166425
    18  H    0.152937
    19  H    0.153234
    20  H    0.124477
    21  H    0.104646
    22  H    0.109298
    23  H    0.144339
    24  H    0.139035
    25  H    0.169596
    26  H    0.165647
    27  H    0.136911
    28  H    0.149086
    29  H    0.152869
    30  H    0.151265
    31  H    0.125006
    32  H    0.153012
    33  H    0.126111
    34  H    0.154190
 Sum of Mulliken atomic charges =  -0.00000

 Dipole moment (field-independent basis, Debye):
    X=             -1.2030    Y=             -0.0614    Z=              0.5449  Tot=              1.3221
 Quadrupole moment (field-independent basis, Debye-Ang):
   XX=            -76.4512   YY=            -93.6517   ZZ=            -98.1706
   XY=              0.2959   XZ=              2.1393   YZ=             -0.4006

 Summary of Natural Population Analysis:

                                       Natural Population
                Natural  -----------------------------------------------
    Atom  No    Charge         Core      Valence    Rydberg      Total
 -----------------------------------------------------------------------
      C    1   -0.31727      1.99943     4.30371    0.01413     6.31727
      O    2   -0.48925      1.99975     6.47761    0.01188     8.48925
      C    3    0.30135      1.99872     3.67618    0.02375     5.69865
      C    4   -0.26503      1.99906     4.25283    0.01313     6.26503
      C    5   -0.31712      1.99915     4.29820    0.01977     6.31712
      C    6   -0.30163      1.99901     4.28528    0.01735     6.30163
      C    7    0.14996      1.99902     3.83114    0.01989     5.85004
      C    8   -0.16859      1.99898     4.15155    0.01806     6.16859
      C    9   -0.21587      1.99904     4.20190    0.01493     6.21587
      C   10   -0.10955      1.99916     4.08854    0.02185     6.10955
      N   11   -0.31656      1.99929     5.30454    0.01273     7.31656
      C   12   -0.25533      1.99932     4.23819    0.01782     6.25533
      C   13   -0.26603      1.99932     4.25024    0.01647     6.26603
      N   14   -0.50014      1.99947     5.48627    0.01439     7.50014
      C   15   -0.46942      1.99949     4.45703    0.01290     6.46942
      C   16   -0.47381      1.99948     4.46128    0.01305     6.47381
      H   17    0.22582      0.00000     0.77359    0.00058     0.77418
      H   18    0.20303      0.00000     0.79425    0.00272     0.79697
      H   19    0.20317      0.00000     0.79410    0.00273     0.79683
      H   20    0.23052      0.00000     0.76862    0.00087     0.76948
      H   21    0.22664      0.00000     0.77254    0.00082     0.77336
      H   22    0.22598      0.00000     0.77299    0.00103     0.77402
      H   23    0.24672      0.00000     0.75264    0.00065     0.75328
      H   24    0.22646      0.00000     0.77296    0.00058     0.77354
      H   25    0.24817      0.00000     0.74929    0.00255     0.75183
      H   26    0.23770      0.00000     0.75989    0.00241     0.76230
      H   27    0.21018      0.00000     0.78560    0.00421     0.78982
      H   28    0.23577      0.00000     0.76217    0.00205     0.76423
      H   29    0.22689      0.00000     0.77229    0.00082     0.77311
      H   30    0.22750      0.00000     0.77159    0.00091     0.77250
      H   31    0.19354      0.00000     0.80320    0.00326     0.80646
      H   32    0.22293      0.00000     0.77618    0.00088     0.77707
      H   33    0.19350      0.00000     0.80312    0.00338     0.80650
      H   34    0.22976      0.00000     0.76938    0.00086     0.77024
 =======================================================================
   * Total *   -0.00000     31.98770    85.71891    0.29339   118.00000

 Normal termination of Gaussian 09 at Thu Sep 30 19:13:45 2021.
