 Gaussian 09, Revision A.02,

 -----------------------------------
 #p opt b3lyp/6-31G* scf=(xqc,tight)
 -----------------------------------

 ----------------------------------
 COc1ccc2c(c1)ccc(c2)C(=O)OC_conf_0
 ----------------------------------
 Symbolic Z-matrix:
 Charge =  0 Multiplicity = 1

 SCF Done:  E(RB3LYP) =  -728.289749082     A.U. after   15 cycles
 SCF Done:  E(RB3LYP) =  -728.294799795     A.U. after   16 cycles
 SCF Done:  E(RB3LYP) =  -728.294975315     A.U. after   12 cycles
 SCF Done:  E(RB3LYP) =  -728.294774180     A.U. after   16 cycles
 SCF Done:  E(RB3LYP) =  -728.295179613     A.U. after   16 cycles
 SCF Done:  E(RB3LYP) =  -728.295261888     A.U. after   11 cycles
 SCF Done:  E(RB3LYP) =  -728.295264478     A.U. after    8 cycles
 SCF Done:  E(RB3LYP) =  -728.295265831     A.U. after    8 cycles
 SCF Done:  E(RB3LYP) =  -728.295266614     A.U. after    7 cycles
 SCF Done:  E(RB3LYP) =  -728.295267239     A.U. after    7 cycles
 SCF Done:  E(RB3LYP) =  -728.295267393     A.U. after   20 cycles
 Optimization completed.
    -- Stationary point found.
 Normal termination of Gaussian 09 at Thu Sep 30 16:27:52 2021.

 ----------------------------------------------------------------------
 #p freq b3lyp/6-31G* volume NMR pop=NPA density=current Geom=AllCheck
 Guess=Read
 ----------------------------------------------------------------------

 COc1ccc2c(c1)ccc(c2)C(=O)OC_conf_0
 ----------------------------------
 Redundant internal coordinates taken from checkpoint file:
 C13H12O3_e27f_conf_0.chk
 Charge =  0 Multiplicity = 1

 SCF Done:  E(RB3LYP) =  -728.295267393     A.U. after    1 cycles

  1  C    Isotropic =   137.1384   Anisotropy =    65.5039

  2  O    Isotropic =   235.0281   Anisotropy =    79.0281

  3  C    Isotropic =    39.2873   Anisotropy =   125.1725

  4  C    Isotropic =    84.3174   Anisotropy =   145.0131

  5  C    Isotropic =    63.6703   Anisotropy =   148.5977

  6  C    Isotropic =    68.7391   Anisotropy =   188.5208

  7  C    Isotropic =    60.0966   Anisotropy =   197.1049

  8  C    Isotropic =    82.3126   Anisotropy =   112.8566

  9  C    Isotropic =    69.2228   Anisotropy =   139.7760

 10  C    Isotropic =    69.3349   Anisotropy =   164.6126

 11  C    Isotropic =    70.4119   Anisotropy =   140.2797

 12  C    Isotropic =    61.9627   Anisotropy =   159.3238

 13  C    Isotropic =    32.1396   Anisotropy =    73.9350

 14  O    Isotropic =   -38.5772   Anisotropy =   563.9331

 15  O    Isotropic =   165.9872   Anisotropy =   131.1949

 16  C    Isotropic =   139.1462   Anisotropy =    62.1762

 17  H    Isotropic =    28.1849   Anisotropy =     8.1946

 18  H    Isotropic =    28.4877   Anisotropy =     8.2745

 19  H    Isotropic =    28.4870   Anisotropy =     8.2751

 20  H    Isotropic =    25.3185   Anisotropy =     8.0377

 21  H    Isotropic =    24.3897   Anisotropy =     7.5832

 22  H    Isotropic =    25.1938   Anisotropy =     8.1142

 23  H    Isotropic =    24.7611   Anisotropy =     7.4972

 24  H    Isotropic =    24.2825   Anisotropy =     8.7800

 25  H    Isotropic =    23.6367   Anisotropy =     9.4757

 26  H    Isotropic =    28.6885   Anisotropy =     7.3610

 27  H    Isotropic =    28.2827   Anisotropy =     8.4197

 28  H    Isotropic =    28.2830   Anisotropy =     8.4204

  Exact polarizability: 270.838   9.190 142.319  -0.003  -0.003  60.600
 Approx polarizability: 386.925  10.623 263.094  -0.005  -0.002  92.039

                     1                      2                      3
                     A                      A                      A
 Frequencies --    40.0454                60.2240                85.4691
 Red. masses --     4.1716                 4.4401                 3.3858
 Frc consts  --     0.0039                 0.0095                 0.0146
 IR Inten    --     2.3731                 0.1651                 2.6042

                     4                      5                      6
                     A                      A                      A
 Frequencies --   110.4533               118.1085               142.7826
 Red. masses --     4.5030                 1.2827                 3.0261
 Frc consts  --     0.0324                 0.0105                 0.0363
 IR Inten    --     1.3703                 1.9548                 3.3402

                     7                      8                      9
                     A                      A                      A
 Frequencies --   188.7542               208.2114               213.1727
 Red. masses --     3.0392                 3.7559                 3.8068
 Frc consts  --     0.0638                 0.0959                 0.1019
 IR Inten    --     0.1002                 1.0760                 1.7507

                    10                     11                     12
                     A                      A                      A
 Frequencies --   261.7050               263.3311               307.7463
 Red. masses --     1.2942                 7.8332                 3.8506
 Frc consts  --     0.0522                 0.3200                 0.2149
 IR Inten    --     0.0048                 0.7477                 6.9729

                    13                     14                     15
                     A                      A                      A
 Frequencies --   349.5698               366.8271               419.7361
 Red. masses --     5.3464                 4.3444                 3.4105
 Frc consts  --     0.3849                 0.3444                 0.3540
 IR Inten    --     2.3150                18.1004                 0.0560

                    16                     17                     18
                     A                      A                      A
 Frequencies --   451.7700               488.6843               507.3707
 Red. masses --     5.7701                 2.6851                 5.8932
 Frc consts  --     0.6939                 0.3778                 0.8938
 IR Inten    --     1.1194                 8.1800                 2.1413

                    19                     20                     21
                     A                      A                      A
 Frequencies --   532.6126               553.3440               578.6506
 Red. masses --     6.6634                 3.6663                 4.7701
 Frc consts  --     1.1137                 0.6614                 0.9410
 IR Inten    --     0.2211                 0.1586                31.6124

                    22                     23                     24
                     A                      A                      A
 Frequencies --   658.9749               661.3021               735.1053
 Red. masses --     3.6693                 6.8726                 6.2946
 Frc consts  --     0.9388                 1.7708                 2.0041
 IR Inten    --     0.1742                 0.6905                 1.4563

                    25                     26                     27
                     A                      A                      A
 Frequencies --   752.1158               773.5405               794.5406
 Red. masses --     3.8754                 3.5961                 5.2999
 Frc consts  --     1.2916                 1.2678                 1.9713
 IR Inten    --    11.0166                14.7720                 3.9753

                    28                     29                     30
                     A                      A                      A
 Frequencies --   820.9670               834.9469               837.1001
 Red. masses --     1.4465                 4.5554                 1.6518
 Frc consts  --     0.5744                 1.8711                 0.6820
 IR Inten    --    27.1519                 9.4073                 0.3439

                    31                     32                     33
                     A                      A                      A
 Frequencies --   890.6594               923.3817               941.6654
 Red. masses --     1.5604                 5.7250                 1.3315
 Frc consts  --     0.7293                 2.8760                 0.6956
 IR Inten    --    32.5920                 5.5642                 6.1334

                    34                     35                     36
                     A                      A                      A
 Frequencies --   964.3115               975.4789               980.1842
 Red. masses --     1.3977                 4.0875                 1.2974
 Frc consts  --     0.7658                 2.2917                 0.7344
 IR Inten    --     5.7980                 2.0138                 0.0309

                    37                     38                     39
                     A                      A                      A
 Frequencies --  1030.6268              1079.0275              1133.0568
 Red. masses --     4.7269                 3.6269                 2.5404
 Frc consts  --     2.9582                 2.4880                 1.9216
 IR Inten    --    26.9904                51.0066                70.1945

                    40                     41                     42
                     A                      A                      A
 Frequencies --  1177.7896              1183.7406              1185.0365
 Red. masses --     1.5741                 1.2670                 1.2728
 Frc consts  --     1.2866                 1.0460                 1.0531
 IR Inten    --     9.2766                 0.6844                 0.8534

                    43                     44                     45
                     A                      A                      A
 Frequencies --  1191.0777              1202.2939              1216.1682
 Red. masses --     1.2778                 1.6481                 1.5228
 Frc consts  --     1.0681                 1.4037                 1.3271
 IR Inten    --     0.2099               137.5598                16.2304

                    46                     47                     48
                     A                      A                      A
 Frequencies --  1222.1153              1246.2905              1296.1727
 Red. masses --     1.5773                 2.2069                 1.7768
 Frc consts  --     1.3880                 2.0196                 1.7588
 IR Inten    --    10.0837               631.7217                10.4435

                    49                     50                     51
                     A                      A                      A
 Frequencies --  1312.5344              1321.8854              1385.9591
 Red. masses --     2.4830                 4.7119                 2.1437
 Frc consts  --     2.5203                 4.8510                 2.4261
 IR Inten    --   598.4612                76.7988                 4.7571

                    52                     53                     54
                     A                      A                      A
 Frequencies --  1412.3036              1429.8144              1461.2306
 Red. masses --     4.2551                 4.8078                 4.4424
 Frc consts  --     5.0005                 5.7910                 5.5887
 IR Inten    --     8.7155                 5.6731                 2.9974

                    55                     56                     57
                     A                      A                      A
 Frequencies --  1491.3287              1501.2868              1510.9450
 Red. masses --     1.2109                 1.2658                 1.0488
 Frc consts  --     1.5868                 1.6810                 1.4107
 IR Inten    --     6.1380                59.4574                 5.5473

                    58                     59                     60
                     A                      A                      A
 Frequencies --  1524.2072              1524.9300              1531.2428
 Red. masses --     1.0480                 1.0558                 1.5529
 Frc consts  --     1.4346                 1.4465                 2.1453
 IR Inten    --     5.5170                18.3077               107.9542

                    61                     62                     63
                     A                      A                      A
 Frequencies --  1537.6762              1558.2015              1618.4518
 Red. masses --     1.3674                 3.4362                 7.2137
 Frc consts  --     1.9049                 4.9155                11.1330
 IR Inten    --     0.1120                94.0805                 0.7518

                    64                     65                     66
                     A                      A                      A
 Frequencies --  1663.7300              1684.2892              1796.4016
 Red. masses --     5.7169                 6.3010                11.5726
 Frc consts  --     9.3235                10.5316                22.0034
 IR Inten    --     1.5603               247.0599               225.5126

                    67                     68                     69
                     A                      A                      A
 Frequencies --  3029.0838              3073.0278              3089.7747
 Red. masses --     1.0346                 1.0295                 1.1070
 Frc consts  --     5.5931                 5.7279                 6.2265
 IR Inten    --    73.7904                48.1839                42.0791

                    70                     71                     72
                     A                      A                      A
 Frequencies --  3146.6054              3159.3723              3177.9624
 Red. masses --     1.1074                 1.0999                 1.1070
 Frc consts  --     6.4599                 6.4687                 6.5873
 IR Inten    --    22.5471                27.9490                19.8309

                    73                     74                     75
                     A                      A                      A
 Frequencies --  3187.8704              3189.5161              3206.4290
 Red. masses --     1.0895                 1.0893                 1.0906
 Frc consts  --     6.5233                 6.5293                 6.6062
 IR Inten    --    11.2422                 7.4149                 7.5982

                    76                     77                     78
                     A                      A                      A
 Frequencies --  3210.4389              3230.9935              3235.1120
 Red. masses --     1.0903                 1.0915                 1.0924
 Frc consts  --     6.6210                 6.7133                 6.7361
 IR Inten    --     0.7161                13.5295                 5.0823

 - Thermochemistry -
 -------------------
 Temperature   298.150 Kelvin.  Pressure   1.00000 Atm.
 Atom     1 has atomic number  6 and mass  12.00000

 Molecular mass:   216.07864 amu.
 Principal axes and moments of inertia in atomic units:
                           1         2         3
     Eigenvalues --   865.787448277.041139119.90923
           X            0.99996   0.00882  -0.00000
           Y           -0.00882   0.99996  -0.00002
           Z            0.00000   0.00002   1.00000
 This molecule is an asymmetric top.
 Rotational symmetry number  1.
 Warning -- assumption of classical behavior for rotation
           may cause significant error
 Rotational temperatures (Kelvin)      0.10004     0.01046     0.00950
 Rotational constants (GHZ):           2.08451     0.21804     0.19789
 Zero-point vibrational energy     587120.3 (Joules/Mol)
                                  140.32511 (Kcal/Mol)
 Warning -- explicit consideration of  21 degrees of freedom as
           vibrations may cause significant error
 Vibrational temperatures:     57.62    86.65   122.97   158.92   169.93
          (Kelvin)            205.43   271.57   299.57   306.71   376.53
                              378.87   442.78   502.95   527.78   603.91
                              650.00   703.11   729.99   766.31   796.14
                              832.55   948.12   951.46  1057.65  1082.13
                             1112.95  1143.17  1181.19  1201.30  1204.40
                             1281.46  1328.54  1354.84  1387.43  1403.49
                             1410.26  1482.84  1552.48  1630.21  1694.57
                             1703.14  1705.00  1713.69  1729.83  1749.79
                             1758.35  1793.13  1864.90  1888.44  1901.90
                             1994.08  2031.99  2057.18  2102.38  2145.69
                             2160.01  2173.91  2192.99  2194.03  2203.11
                             2212.37  2241.90  2328.59  2393.73  2423.31
                             2584.62  4358.17  4421.40  4445.49  4527.26
                             4545.63  4572.37  4586.63  4589.00  4613.33
                             4619.10  4648.67  4654.60

 Zero-point correction=                           0.223622 (Hartree/Particle)
 Thermal correction to Energy=                    0.237666
 Thermal correction to Enthalpy=                  0.238610
 Thermal correction to Gibbs Free Energy=         0.182185
 Sum of electronic and zero-point Energies=           -728.071645
 Sum of electronic and thermal Energies=              -728.057602
 Sum of electronic and thermal Enthalpies=            -728.056658
 Sum of electronic and thermal Free Energies=         -728.113083

                     E (Thermal)             CV                S
                      KCal/Mol        Cal/Mol-Kelvin    Cal/Mol-Kelvin
 Total                  149.137             53.282            118.757
 Electronic               0.000              0.000              0.000
 Translational            0.889              2.981             42.015
 Rotational               0.889              2.981             32.547
 Vibrational            147.360             47.320             44.196
 Vibration     1          0.594              1.981              5.257
 Vibration     2          0.597              1.973              4.450
 Vibration     3          0.601              1.959              3.761
 Vibration     4          0.606              1.941              3.261
 Vibration     5          0.608              1.934              3.131
 Vibration     6          0.616              1.910              2.766
 Vibration     7          0.633              1.855              2.240
 Vibration     8          0.642              1.828              2.059
 Vibration     9          0.644              1.821              2.016
 Vibration    10          0.669              1.743              1.650
 Vibration    11          0.670              1.740              1.640
 Vibration    12          0.698              1.659              1.374
 Vibration    13          0.727              1.576              1.168
 Vibration    14          0.740              1.540              1.093
 Vibration    15          0.782              1.427              0.893
 Vibration    16          0.810              1.357              0.790
 Vibration    17          0.845              1.275              0.687
 Vibration    18          0.863              1.234              0.640
 Vibration    19          0.888              1.178              0.581
 Vibration    20          0.909              1.132              0.537
 Vibration    21          0.935              1.077              0.488

 Optimization completed.
    -- Stationary point found.
 Normal termination of Gaussian 09 at Thu Sep 30 17:31:59 2021.
 Gaussian 09:  AM64L-G09RevA.02 11-Jun-2009

 ----------------------------------------------------------------------
 #p TD(NStates=10, Root=1) b3lyp/6-31G* volume pop=NPA density=current
 Geom=AllCheck Guess=Read
 ----------------------------------------------------------------------

 COc1ccc2c(c1)ccc(c2)C(=O)OC_conf_0
 ----------------------------------
 Redundant internal coordinates taken from checkpoint file:
 C13H12O3_e27f_conf_0.chk
 Charge =  0 Multiplicity = 1

                         Standard orientation:
 ---------------------------------------------------------------------
 Center     Atomic      Atomic             Coordinates (Angstroms)
 Number     Number       Type             X           Y           Z
 ---------------------------------------------------------------------
      1          6           0       -5.569385   -0.300362    0.000499
      2          8           0       -4.510428    0.645276   -0.000155
      3          6           0       -3.223664    0.193734   -0.000073
      4          6           0       -2.873125   -1.183281    0.000067
      5          6           0       -1.546250   -1.551784    0.000083
      6          6           0       -0.508902   -0.584768   -0.000048
      7          6           0       -0.869243    0.804928   -0.000192
      8          6           0       -2.234535    1.163237   -0.000195
      9          6           0        0.174548    1.775346   -0.000294
     10          6           0        1.494354    1.398661   -0.000225
     11          6           0        1.850703    0.019464   -0.000108
     12          6           0        0.859662   -0.943915   -0.000044
     13          6           0        3.264925   -0.438825   -0.000108
     14          8           0        3.618945   -1.602857   -0.000742
     15          8           0        4.142424    0.594796    0.000646
     16          6           0        5.526772    0.219415    0.000509
     17          1           0       -6.489878    0.286115    0.000665
     18          1           0       -5.546224   -0.935040    0.895916
     19          1           0       -5.546895   -0.935541   -0.894582
     20          1           0       -3.641863   -1.947345    0.000152
     21          1           0       -1.279760   -2.605795    0.000189
     22          1           0       -2.527930    2.208862   -0.000296
     23          1           0       -0.092916    2.829094   -0.000434
     24          1           0        2.279546    2.146003   -0.000263
     25          1           0        1.146927   -1.991418   -0.000014
     26          1           0        6.084214    1.156854    0.000999
     27          1           0        5.766074   -0.369868   -0.888916
     28          1           0        5.766005   -0.370748    0.889369
 ---------------------------------------------------------------------

 SCF Done:  E(RB3LYP) =  -728.295267393     A.U. after    1 cycles

 Excitation energies and oscillator strengths:

 Excited State   1:      Singlet-A      3.9389 eV  314.77 nm  f=0.1584  <S**2>=0.000
      56 -> 59         0.12807
      57 -> 58         0.68949
 This state for optimization and/or second-order correction.
 Total Energy, E(TD-HF/TD-KS) =  -728.150516330
 Copying the excited state density for this state as the 1-particle RhoCI density.

 Excited State   2:      Singlet-A      4.1269 eV  300.43 nm  f=0.0026  <S**2>=0.000
      56 -> 58        -0.47572
      57 -> 59         0.51286

 Excited State   3:      Singlet-A      4.7633 eV  260.29 nm  f=0.0002  <S**2>=0.000
      55 -> 58         0.65377
      55 -> 59         0.22807
      55 -> 61        -0.11036

 Excited State   4:      Singlet-A      5.0956 eV  243.32 nm  f=0.7550  <S**2>=0.000
      56 -> 58         0.48072
      56 -> 59         0.16743
      57 -> 59         0.45085
      57 -> 60        -0.11579

 Excited State   5:      Singlet-A      5.4245 eV  228.56 nm  f=0.0660  <S**2>=0.000
      54 -> 58        -0.32475
      54 -> 59         0.12835
      56 -> 59         0.52383
      57 -> 60         0.28525

 Excited State   6:      Singlet-A      5.6580 eV  219.13 nm  f=0.4677  <S**2>=0.000
      52 -> 58        -0.17210
      54 -> 58         0.41694
      56 -> 58        -0.13216
      56 -> 59         0.31631
      57 -> 59        -0.13515
      57 -> 60        -0.29251
      57 -> 61         0.20866

 Excited State   7:      Singlet-A      5.7324 eV  216.29 nm  f=0.0001  <S**2>=0.000
      55 -> 58        -0.24658
      55 -> 59         0.65268
      55 -> 61        -0.10511

 Excited State   8:      Singlet-A      6.0273 eV  205.71 nm  f=0.0005  <S**2>=0.000
      52 -> 58         0.21450
      53 -> 58        -0.23756
      54 -> 58         0.40350
      54 -> 59        -0.17907
      57 -> 60         0.42088

 Excited State   9:      Singlet-A      6.1578 eV  201.34 nm  f=0.0082  <S**2>=0.000
      53 -> 58         0.64927
      54 -> 58         0.12812
      57 -> 60         0.19520

 Excited State  10:      Singlet-A      6.1935 eV  200.18 nm  f=0.0866  <S**2>=0.000
      52 -> 58        -0.14505
      54 -> 58         0.11891
      54 -> 59         0.52694
      56 -> 59        -0.19039
      56 -> 60        -0.25728
      56 -> 61         0.10227
      57 -> 60         0.18469
      57 -> 61        -0.10954

 The electronic state is 1-A.
 Alpha  occ. eigenvalues --  -19.18676 -19.18473 -19.12592 -10.30772 -10.25629
 Alpha  occ. eigenvalues --  -10.24759 -10.23623 -10.20424 -10.20077 -10.19854
 Alpha  occ. eigenvalues --  -10.19840 -10.19832 -10.19630 -10.19315 -10.19064
 Alpha  occ. eigenvalues --  -10.18676  -1.09414  -1.07057  -1.00403  -0.87597
 Alpha  occ. eigenvalues --   -0.82711  -0.77920  -0.76275  -0.73519  -0.72278
 Alpha  occ. eigenvalues --   -0.69429  -0.63444  -0.61821  -0.60039  -0.56660
 Alpha  occ. eigenvalues --   -0.53484  -0.53067  -0.51348  -0.47711  -0.47516
 Alpha  occ. eigenvalues --   -0.47466  -0.46750  -0.45958  -0.44531  -0.43895
 Alpha  occ. eigenvalues --   -0.42155  -0.41572  -0.40604  -0.40314  -0.39138
 Alpha  occ. eigenvalues --   -0.38781  -0.36042  -0.35459  -0.35280  -0.34294
 Alpha  occ. eigenvalues --   -0.32684  -0.30579  -0.29598  -0.27994  -0.26716
 Alpha  occ. eigenvalues --   -0.23802  -0.20821
 Alpha virt. eigenvalues --   -0.05035  -0.02469   0.02778   0.05026   0.08912
 Alpha virt. eigenvalues --    0.10301   0.11391   0.12164   0.12620   0.12623
 Alpha virt. eigenvalues --    0.13621   0.14485   0.15127   0.15946   0.16130

 Mulliken atomic charges:
              1
     1  C   -0.226999
     2  O   -0.473997
     3  C    0.392062
     4  C   -0.204991
     5  C   -0.200289
     6  C    0.156251
     7  C    0.151171
     8  C   -0.240023
     9  C   -0.210490
    10  C   -0.151374
    11  C    0.054785
    12  C   -0.282545
    13  C    0.560817
    14  O   -0.518955
    15  O   -0.481615
    16  C   -0.206971
    17  H    0.183041
    18  H    0.171039
    19  H    0.171038
    20  H    0.135512
    21  H    0.147270
    22  H    0.160261
    23  H    0.132048
    24  H    0.157505
    25  H    0.149119
    26  H    0.151460
    27  H    0.162438
    28  H    0.162434
 Sum of Mulliken atomic charges =  -0.00000

 Dipole moment (field-independent basis, Debye):
    X=             -5.9967    Y=              1.4945    Z=              0.0016  Tot=              6.1801
 Quadrupole moment (field-independent basis, Debye-Ang):
   XX=            -66.3500   YY=            -89.6389   ZZ=            -94.1550
   XY=             12.7552   XZ=             -0.0005   YZ=             -0.0047

 Summary of Natural Population Analysis:

                                       Natural Population
                Natural  -----------------------------------------------
    Atom  No    Charge         Core      Valence    Rydberg      Total
 -----------------------------------------------------------------------
      C    1   -0.32276      1.99942     4.30940    0.01394     6.32276
      O    2   -0.46531      1.99974     6.45385    0.01172     8.46531
      C    3    0.34234      1.99882     3.63638    0.02246     5.65766
      C    4   -0.34523      1.99904     4.33280    0.01339     6.34523
      C    5   -0.17450      1.99906     4.15957    0.01586     6.17450
      C    6   -0.05044      1.99903     4.03661    0.01479     6.05044
      C    7   -0.06626      1.99903     4.05245    0.01478     6.06626
      C    8   -0.17081      1.99900     4.15673    0.01509     6.17081
      C    9   -0.21460      1.99906     4.20026    0.01528     6.21460
      C   10   -0.16821      1.99908     4.15521    0.01392     6.16821
      C   11   -0.15583      1.99891     4.13951    0.01741     6.15583
      C   12   -0.23601      1.99903     4.21993    0.01705     6.23601
      C   13    0.75883      1.99934     3.19714    0.04468     5.24117
      O   14   -0.62981      1.99979     6.61087    0.01915     8.62981
      O   15   -0.56166      1.99975     6.55139    0.01051     8.56166
      C   16   -0.31790      1.99943     4.30421    0.01427     6.31790
      H   17    0.23540      0.00000     0.76409    0.00051     0.76460
      H   18    0.21558      0.00000     0.78240    0.00202     0.78442
      H   19    0.21558      0.00000     0.78240    0.00202     0.78442
      H   20    0.24034      0.00000     0.75882    0.00084     0.75966
      H   21    0.24208      0.00000     0.75680    0.00113     0.75792
      H   22    0.24786      0.00000     0.75057    0.00157     0.75214
      H   23    0.23224      0.00000     0.76661    0.00115     0.76776
      H   24    0.25487      0.00000     0.74406    0.00107     0.74513
      H   25    0.25012      0.00000     0.74787    0.00201     0.74988
      H   26    0.21472      0.00000     0.78459    0.00069     0.78528
      H   27    0.21469      0.00000     0.78357    0.00174     0.78531
      H   28    0.21469      0.00000     0.78357    0.00174     0.78531
 =======================================================================
   * Total *    0.00000     31.98755    81.72166    0.29079   114.00000

 Normal termination of Gaussian 09 at Thu Sep 30 21:51:09 2021.
