 Gaussian 09, Revision A.02,

 -----------------------------------
 #p opt b3lyp/6-31G* scf=(xqc,tight)
 -----------------------------------

 ----------------------------
 C(Oc1ccccc1)Oc1ccccc1_conf_0
 ----------------------------
 Symbolic Z-matrix:
 Charge =  0 Multiplicity = 1

 SCF Done:  E(RB3LYP) =  -653.030819448     A.U. after   14 cycles
 SCF Done:  E(RB3LYP) =  -653.034809850     A.U. after   13 cycles
 SCF Done:  E(RB3LYP) =  -653.035403599     A.U. after   13 cycles
 SCF Done:  E(RB3LYP) =  -653.035798641     A.U. after   11 cycles
 SCF Done:  E(RB3LYP) =  -653.036131039     A.U. after   12 cycles
 SCF Done:  E(RB3LYP) =  -653.036308679     A.U. after   12 cycles
 SCF Done:  E(RB3LYP) =  -653.036384201     A.U. after   11 cycles
 SCF Done:  E(RB3LYP) =  -653.036406508     A.U. after   10 cycles
 SCF Done:  E(RB3LYP) =  -653.036424630     A.U. after   11 cycles
 SCF Done:  E(RB3LYP) =  -653.036435130     A.U. after   11 cycles
 SCF Done:  E(RB3LYP) =  -653.036436859     A.U. after    9 cycles
 SCF Done:  E(RB3LYP) =  -653.036436991     A.U. after    7 cycles
 Optimization completed.
    -- Stationary point found.
 Normal termination of Gaussian 09 at Wed Sep 29 13:00:56 2021.

 ----------------------------------------------------------------------
 #p freq b3lyp/6-31G* volume NMR pop=NPA density=current Geom=AllCheck
 Guess=Read
 ----------------------------------------------------------------------

 C(Oc1ccccc1)Oc1ccccc1_conf_0
 ----------------------------
 Redundant internal coordinates taken from checkpoint file:
 C13H12O2_d005_conf_0.chk
 Charge =  0 Multiplicity = 1

 SCF Done:  E(RB3LYP) =  -653.036436991     A.U. after    1 cycles

  1  C    Isotropic =   100.5915   Anisotropy =    37.0713

  2  O    Isotropic =   202.5953   Anisotropy =    81.1163

  3  C    Isotropic =    42.2822   Anisotropy =   125.0439

  4  C    Isotropic =    78.3392   Anisotropy =   138.2008

  5  C    Isotropic =    66.7636   Anisotropy =   166.0877

  6  C    Isotropic =    75.6225   Anisotropy =   157.8888

  7  C    Isotropic =    67.2527   Anisotropy =   164.8802

  8  C    Isotropic =    86.0524   Anisotropy =   139.7236

  9  O    Isotropic =   205.3646   Anisotropy =    91.5836

 10  C    Isotropic =    39.4380   Anisotropy =   123.8675

 11  C    Isotropic =    78.2020   Anisotropy =   138.2497

 12  C    Isotropic =    67.3905   Anisotropy =   164.6781

 13  C    Isotropic =    74.6005   Anisotropy =   159.3799

 14  C    Isotropic =    66.9352   Anisotropy =   165.1224

 15  C    Isotropic =    82.4578   Anisotropy =   144.6805

 16  H    Isotropic =    26.6011   Anisotropy =     4.7758

 17  H    Isotropic =    26.7599   Anisotropy =     4.0486

 18  H    Isotropic =    25.3709   Anisotropy =     6.9120

 19  H    Isotropic =    24.9696   Anisotropy =     4.4923

 20  H    Isotropic =    25.3599   Anisotropy =     3.6773

 21  H    Isotropic =    25.0344   Anisotropy =     4.9164

 22  H    Isotropic =    25.9171   Anisotropy =     8.0232

 23  H    Isotropic =    25.3605   Anisotropy =     6.2493

 24  H    Isotropic =    24.9795   Anisotropy =     4.2320

 25  H    Isotropic =    25.3109   Anisotropy =     3.8252

 26  H    Isotropic =    25.0479   Anisotropy =     5.6676

 27  H    Isotropic =    25.3917   Anisotropy =     8.8851

  Exact polarizability: 200.061  -6.353 119.744 -11.293  -4.840  87.313
 Approx polarizability: 274.887 -12.670 203.371 -23.411  -7.540 147.180

                     1                      2                      3
                     A                      A                      A
 Frequencies --    22.7439                34.7035                44.2806
 Red. masses --     5.5309                 4.3186                 3.8739
 Frc consts  --     0.0017                 0.0031                 0.0045
 IR Inten    --     0.1372                 0.3066                 0.0267

                     4                      5                      6
                     A                      A                      A
 Frequencies --   116.4701               155.6283               209.8494
 Red. masses --     5.3992                 5.0733                 3.7294
 Frc consts  --     0.0432                 0.0724                 0.0968
 IR Inten    --     1.6449                 1.0147                 0.9879

                     7                      8                      9
                     A                      A                      A
 Frequencies --   247.1677               263.4545               319.7194
 Red. masses --     5.4170                 4.2688                 3.5363
 Frc consts  --     0.1950                 0.1746                 0.2130
 IR Inten    --     0.8214                 1.1955                 5.6203

                    10                     11                     12
                     A                      A                      A
 Frequencies --   422.6035               424.2457               446.2944
 Red. masses --     3.1245                 3.1324                 4.7424
 Frc consts  --     0.3288                 0.3322                 0.5565
 IR Inten    --     0.0061                 0.0239                 4.4580

                    13                     14                     15
                     A                      A                      A
 Frequencies --   491.4628               517.4806               520.8456
 Red. masses --     6.8203                 3.0915                 3.1017
 Frc consts  --     0.9706                 0.4878                 0.4958
 IR Inten    --     0.1642                 1.8117                 6.0773

                    16                     17                     18
                     A                      A                      A
 Frequencies --   566.9146               624.3516               629.7192
 Red. masses --     4.7477                 6.4407                 6.4196
 Frc consts  --     0.8990                 1.4793                 1.4999
 IR Inten    --     4.2290                 0.6023                 1.5038

                    19                     20                     21
                     A                      A                      A
 Frequencies --   655.3496               701.8394               703.1055
 Red. masses --     6.5400                 2.4067                 2.4094
 Frc consts  --     1.6549                 0.6985                 0.7018
 IR Inten    --     2.8598                 7.6126                12.5529

                    22                     23                     24
                     A                      A                      A
 Frequencies --   765.7634               769.5551               802.9606
 Red. masses --     1.5805                 1.5611                 5.0291
 Frc consts  --     0.5461                 0.5447                 1.9104
 IR Inten    --    55.6988                51.7664                17.1157

                    25                     26                     27
                     A                      A                      A
 Frequencies --   830.4486               838.3345               855.5117
 Red. masses --     1.2569                 1.2476                 6.5640
 Frc consts  --     0.5107                 0.5166                 2.8306
 IR Inten    --     0.5357                 0.2353                10.5386

                    28                     29                     30
                     A                      A                      A
 Frequencies --   893.3900               904.2951               957.0502
 Red. masses --     1.4338                 1.4269                 1.3233
 Frc consts  --     0.6743                 0.6875                 0.7141
 IR Inten    --     5.4270                 5.8878                 0.1121

                    31                     32                     33
                     A                      A                      A
 Frequencies --   959.7887               984.6318               984.8720
 Red. masses --     1.3263                 1.2307                 1.2321
 Frc consts  --     0.7198                 0.7030                 0.7041
 IR Inten    --     0.1013                 0.2721                 0.1179

                    34                     35                     36
                     A                      A                      A
 Frequencies --  1013.7001              1017.3426              1041.9439
 Red. masses --     5.9485                 5.9665                 5.3565
 Frc consts  --     3.6014                 3.6384                 3.4263
 IR Inten    --     7.2334                 2.4565               176.3874

                    37                     38                     39
                     A                      A                      A
 Frequencies --  1054.5027              1061.3337              1111.8052
 Red. masses --     2.2030                 2.3812                 1.5459
 Frc consts  --     1.4433                 1.5804                 1.1258
 IR Inten    --     1.2122               126.8623                 8.4608

                    40                     41                     42
                     A                      A                      A
 Frequencies --  1117.1101              1136.4174              1170.6330
 Red. masses --     1.5292                 4.2198                 1.5845
 Frc consts  --     1.1244                 3.2108                 1.2793
 IR Inten    --     9.7704               139.4887                16.9188

                    43                     44                     45
                     A                      A                      A
 Frequencies --  1189.7392              1190.2401              1207.8981
 Red. masses --     1.1107                 1.1024                 1.1553
 Frc consts  --     0.9263                 0.9202                 0.9931
 IR Inten    --     9.0350                 2.7241                18.7714

                    46                     47                     48
                     A                      A                      A
 Frequencies --  1211.4570              1253.5077              1293.6676
 Red. masses --     1.1465                 3.5892                 2.3302
 Frc consts  --     0.9914                 3.3228                 2.2977
 IR Inten    --    30.4427               703.1087                57.0972

                    49                     50                     51
                     A                      A                      A
 Frequencies --  1319.6439              1349.7390              1354.9926
 Red. masses --     1.6482                 2.6391                 1.8387
 Frc consts  --     1.6912                 2.8327                 1.9890
 IR Inten    --    29.8746                24.1952                20.9039

                    52                     53                     54
                     A                      A                      A
 Frequencies --  1370.9526              1374.2684              1464.0042
 Red. masses --     2.3446                 2.0278                 1.2266
 Frc consts  --     2.5964                 2.2565                 1.5489
 IR Inten    --    17.3560                 4.0935               101.8751

                    55                     56                     57
                     A                      A                      A
 Frequencies --  1505.9711              1506.0934              1541.4942
 Red. masses --     2.3045                 2.3222                 1.5781
 Frc consts  --     3.0794                 3.1036                 2.2093
 IR Inten    --     1.7016                 1.5356                29.4230

                    58                     59                     60
                     A                      A                      A
 Frequencies --  1546.8091              1558.9003              1645.0267
 Red. masses --     2.1663                 1.4338                 5.7958
 Frc consts  --     3.0538                 2.0530                 9.2408
 IR Inten    --   136.1887                 3.7357                30.5802

                    61                     62                     63
                     A                      A                      A
 Frequencies --  1649.2811              1663.4294              1666.9512
 Red. masses --     5.9506                 5.6559                 5.5623
 Frc consts  --     9.5368                 9.2207                 9.1066
 IR Inten    --    12.6510                84.3402                30.4657

                    64                     65                     66
                     A                      A                      A
 Frequencies --  3010.9724              3091.6014              3185.5270
 Red. masses --     1.0614                 1.1040                 1.0852
 Frc consts  --     5.6695                 6.2172                 6.4883
 IR Inten    --    37.1369                40.5251                 3.1018

                    67                     68                     69
                     A                      A                      A
 Frequencies --  3185.8072              3193.4386              3194.0593
 Red. masses --     1.0852                 1.0893                 1.0897
 Frc consts  --     6.4895                 6.5452                 6.5499
 IR Inten    --     0.6573                14.1307                15.8718

                    70                     71                     72
                     A                      A                      A
 Frequencies --  3209.1294              3209.2501              3218.1740
 Red. masses --     1.0933                 1.0934                 1.0949
 Frc consts  --     6.6338                 6.6350                 6.6810
 IR Inten    --    46.1225                16.8550                15.8818

                    73                     74                     75
                     A                      A                      A
 Frequencies --  3218.2186              3222.8432              3237.3509
 Red. masses --     1.0953                 1.0933                 1.0921
 Frc consts  --     6.6834                 6.6908                 6.7436
 IR Inten    --     5.5748                 6.6055                 3.0748

 - Thermochemistry -
 -------------------
 Temperature   298.150 Kelvin.  Pressure   1.00000 Atm.
 Atom     1 has atomic number  6 and mass  12.00000

 Molecular mass:   200.08373 amu.
 Principal axes and moments of inertia in atomic units:
                           1         2         3
     Eigenvalues --   963.254367195.537607605.26466
           X            1.00000   0.00109  -0.00147
           Y           -0.00113   0.99953  -0.03054
           Z            0.00144   0.03055   0.99953
 This molecule is an asymmetric top.
 Rotational symmetry number  1.
 Warning -- assumption of classical behavior for rotation
           may cause significant error
 Rotational temperatures (Kelvin)      0.08992     0.01204     0.01139
 Rotational constants (GHZ):           1.87359     0.25081     0.23730
 Zero-point vibrational energy     576779.8 (Joules/Mol)
                                  137.85369 (Kcal/Mol)
 Warning -- explicit consideration of  16 degrees of freedom as
           vibrations may cause significant error
 Vibrational temperatures:     32.72    49.93    63.71   167.57   223.91
          (Kelvin)            301.93   355.62   379.05   460.00   608.03
                              610.39   642.12   707.10   744.54   749.38
                              815.66   898.30   906.02   942.90  1009.79
                             1011.61  1101.76  1107.22  1155.28  1194.83
                             1206.17  1230.89  1285.39  1301.08  1376.98
                             1380.92  1416.66  1417.01  1458.49  1463.73
                             1499.12  1517.19  1527.02  1599.64  1607.27
                             1635.05  1684.28  1711.77  1712.49  1737.89
                             1743.01  1803.52  1861.30  1898.67  1941.97
                             1949.53  1972.49  1977.26  2106.37  2166.75
                             2166.93  2217.86  2225.51  2242.91  2366.82
                             2372.94  2393.30  2398.37  4332.11  4448.12
                             4583.26  4583.66  4594.64  4595.53  4617.22
                             4617.39  4630.23  4630.29  4636.95  4657.82

 Zero-point correction=                           0.219684 (Hartree/Particle)
 Thermal correction to Energy=                    0.231830
 Thermal correction to Enthalpy=                  0.232774
 Thermal correction to Gibbs Free Energy=         0.178934
 Sum of electronic and zero-point Energies=           -652.816753
 Sum of electronic and thermal Energies=              -652.804607
 Sum of electronic and thermal Enthalpies=            -652.803663
 Sum of electronic and thermal Free Energies=         -652.857503

                     E (Thermal)             CV                S
                      KCal/Mol        Cal/Mol-Kelvin    Cal/Mol-Kelvin
 Total                  145.476             47.733            113.316
 Electronic               0.000              0.000              0.000
 Translational            0.889              2.981             41.785
 Rotational               0.889              2.981             32.333
 Vibrational            143.698             41.772             39.198
 Vibration     1          0.593              1.985              6.379
 Vibration     2          0.594              1.983              5.541
 Vibration     3          0.595              1.980              5.058
 Vibration     4          0.608              1.936              3.158
 Vibration     5          0.620              1.896              2.602
 Vibration     6          0.642              1.826              2.045
 Vibration     7          0.661              1.767              1.751
 Vibration     8          0.670              1.740              1.639
 Vibration     9          0.706              1.636              1.312
 Vibration    10          0.785              1.421              0.883
 Vibration    11          0.786              1.418              0.878
 Vibration    12          0.806              1.369              0.807
 Vibration    13          0.847              1.269              0.680
 Vibration    14          0.872              1.211              0.616
 Vibration    15          0.876              1.204              0.608
 Vibration    16          0.923              1.103              0.510

 Optimization completed.
    -- Stationary point found.
 Normal termination of Gaussian 09 at Wed Sep 29 14:02:55 2021.
 Gaussian 09:  AM64L-G09RevA.02 11-Jun-2009

 ----------------------------------------------------------------------
 #p TD(NStates=10, Root=1) b3lyp/6-31G* volume pop=NPA density=current
 Geom=AllCheck Guess=Read
 ----------------------------------------------------------------------

 C(Oc1ccccc1)Oc1ccccc1_conf_0
 ----------------------------
 Redundant internal coordinates taken from checkpoint file:
 C13H12O2_d005_conf_0.chk
 Charge =  0 Multiplicity = 1

                         Standard orientation:
 ---------------------------------------------------------------------
 Center     Atomic      Atomic             Coordinates (Angstroms)
 Number     Number       Type             X           Y           Z
 ---------------------------------------------------------------------
      1          6           0       -0.000661   -1.300104    0.132543
      2          8           0       -0.728578   -0.323338   -0.596540
      3          6           0       -2.036790   -0.097665   -0.253764
      4          6           0       -2.707507    0.859896   -1.027700
      5          6           0       -4.038203    1.159728   -0.759700
      6          6           0       -4.718174    0.513428    0.278741
      7          6           0       -4.046427   -0.436162    1.044122
      8          6           0       -2.707003   -0.749329    0.788595
      9          8           0        1.258805   -1.441634   -0.438404
     10          6           0        2.234714   -0.509275   -0.143943
     11          6           0        3.545680   -0.905683   -0.427712
     12          6           0        4.601759   -0.038320   -0.162807
     13          6           0        4.360671    1.223142    0.389579
     14          6           0        3.049656    1.610040    0.662965
     15          6           0        1.977241    0.754908    0.393596
     16          1           0       -0.487917   -2.277361    0.042555
     17          1           0        0.072294   -1.004787    1.190132
     18          1           0       -2.165205    1.349166   -1.830740
     19          1           0       -4.549114    1.902710   -1.366398
     20          1           0       -5.757860    0.749683    0.485170
     21          1           0       -4.560682   -0.946307    1.854425
     22          1           0       -2.207916   -1.491169    1.402320
     23          1           0        3.712626   -1.892692   -0.847576
     24          1           0        5.618420   -0.352349   -0.383857
     25          1           0        5.186224    1.897544    0.597717
     26          1           0        2.847491    2.593173    1.079877
     27          1           0        0.960088    1.084543    0.568844
 ---------------------------------------------------------------------

 SCF Done:  E(RB3LYP) =  -653.036436991     A.U. after    1 cycles

 Excitation energies and oscillator strengths:

 Excited State   1:      Singlet-A      5.2128 eV  237.84 nm  f=0.0235  <S**2>=0.000
      50 -> 56         0.23516
      50 -> 57        -0.20941
      52 -> 54         0.23624
      53 -> 54         0.56919
 This state for optimization and/or second-order correction.
 Total Energy, E(TD-HF/TD-KS) =  -652.844868341
 Copying the excited state density for this state as the 1-particle RhoCI density.

 Excited State   2:      Singlet-A      5.2779 eV  234.91 nm  f=0.0238  <S**2>=0.000
      51 -> 56        -0.23709
      51 -> 57        -0.25317
      52 -> 55        -0.42135
      53 -> 55         0.42997

 Excited State   3:      Singlet-A      5.5884 eV  221.86 nm  f=0.0099  <S**2>=0.000
      52 -> 55         0.45621
      53 -> 55         0.52271

 Excited State   4:      Singlet-A      5.6074 eV  221.11 nm  f=0.0010  <S**2>=0.000
      52 -> 54         0.62921
      53 -> 54        -0.30435

 Excited State   5:      Singlet-A      5.8256 eV  212.83 nm  f=0.0577  <S**2>=0.000
      52 -> 57         0.15620
      53 -> 56         0.60034
      53 -> 57         0.29902

 Excited State   6:      Singlet-A      5.8990 eV  210.18 nm  f=0.0471  <S**2>=0.000
      50 -> 54         0.11306
      52 -> 56         0.41374
      53 -> 56        -0.24956
      53 -> 57         0.48265

 Excited State   7:      Singlet-A      6.0282 eV  205.67 nm  f=0.0918  <S**2>=0.000
      50 -> 54         0.28697
      52 -> 56        -0.30056
      52 -> 57         0.50017
      53 -> 56        -0.14201
      53 -> 57         0.19751

 Excited State   8:      Singlet-A      6.0714 eV  204.21 nm  f=0.0418  <S**2>=0.000
      50 -> 54        -0.11859
      51 -> 55        -0.35243
      52 -> 56         0.37162
      52 -> 57         0.38030
      53 -> 57        -0.24736

 Excited State   9:      Singlet-A      6.2791 eV  197.45 nm  f=0.0001  <S**2>=0.000
      51 -> 54         0.70030

 Excited State  10:      Singlet-A      6.4449 eV  192.38 nm  f=0.0012  <S**2>=0.000
      50 -> 55         0.69818

 The electronic state is 1-A.
 Alpha  occ. eigenvalues --  -19.18615 -19.18344 -10.30171 -10.25313 -10.24879
 Alpha  occ. eigenvalues --  -10.19449 -10.19305 -10.19291 -10.19111 -10.19075
 Alpha  occ. eigenvalues --  -10.18774 -10.18742 -10.18595 -10.18594 -10.18436
 Alpha  occ. eigenvalues --   -1.10026  -1.04821  -0.85321  -0.84766  -0.76719
 Alpha  occ. eigenvalues --   -0.74874  -0.74518  -0.73658  -0.68988  -0.61978
 Alpha  occ. eigenvalues --   -0.61000  -0.60410  -0.58411  -0.54829  -0.54370
 Alpha  occ. eigenvalues --   -0.50340  -0.49387  -0.49155  -0.46219  -0.45610
 Alpha  occ. eigenvalues --   -0.44119  -0.43367  -0.42329  -0.42020  -0.40606
 Alpha  occ. eigenvalues --   -0.38682  -0.37843  -0.36877  -0.36201  -0.35786
 Alpha  occ. eigenvalues --   -0.34075  -0.33328  -0.32562  -0.31860  -0.25323
 Alpha  occ. eigenvalues --   -0.25006  -0.22786  -0.22274
 Alpha virt. eigenvalues --   -0.00329  -0.00067   0.00922   0.01135   0.08475
 Alpha virt. eigenvalues --    0.09163   0.10903   0.13395   0.13499   0.14376
 Alpha virt. eigenvalues --    0.14736   0.15602   0.16269   0.16461   0.16932

 Mulliken atomic charges:
              1
     1  C    0.162215
     2  O   -0.459682
     3  C    0.345996
     4  C   -0.188303
     5  C   -0.163006
     6  C   -0.106492
     7  C   -0.169118
     8  C   -0.197558
     9  O   -0.510244
    10  C    0.351653
    11  C   -0.167808
    12  C   -0.133715
    13  C   -0.127048
    14  C   -0.140711
    15  C   -0.179073
    16  H    0.180549
    17  H    0.158564
    18  H    0.131656
    19  H    0.121775
    20  H    0.133666
    21  H    0.122074
    22  H    0.125030
    23  H    0.144040
    24  H    0.136482
    25  H    0.132700
    26  H    0.138089
    27  H    0.158270
 Sum of Mulliken atomic charges =  -0.00000

 Dipole moment (field-independent basis, Debye):
    X=              1.4168    Y=             -0.4076    Z=              1.3575  Tot=              2.0040
 Quadrupole moment (field-independent basis, Debye-Ang):
   XX=            -80.4800   YY=            -82.7166   ZZ=            -88.4876
   XY=              1.0369   XZ=             -1.3602   YZ=             -1.3100

 Summary of Natural Population Analysis:

                                       Natural Population
                Natural  -----------------------------------------------
    Atom  No    Charge         Core      Valence    Rydberg      Total
 -----------------------------------------------------------------------
      C    1    0.20447      1.99935     3.76961    0.02657     5.79553
      O    2   -0.45389      1.99973     6.44220    0.01196     8.45389
      C    3    0.31649      1.99880     3.66153    0.02318     5.68351
      C    4   -0.30974      1.99907     4.29029    0.02039     6.30974
      C    5   -0.28928      1.99915     4.27110    0.01903     6.28928
      C    6   -0.16345      1.99912     4.14844    0.01590     6.16345
      C    7   -0.28707      1.99915     4.26796    0.01996     6.28707
      C    8   -0.33542      1.99905     4.31938    0.01699     6.33542
      O    9   -0.52698      1.99973     6.51513    0.01211     8.52698
      C   10    0.30707      1.99875     3.67250    0.02167     5.69293
      C   11   -0.26837      1.99902     4.25540    0.01396     6.26837
      C   12   -0.21948      1.99911     4.20678    0.01360     6.21948
      C   13   -0.25065      1.99909     4.23799    0.01357     6.25065
      C   14   -0.21640      1.99911     4.20324    0.01404     6.21640
      C   15   -0.30435      1.99901     4.29284    0.01250     6.30435
      H   16    0.22751      0.00000     0.77031    0.00218     0.77249
      H   17    0.20072      0.00000     0.79603    0.00325     0.79928
      H   18    0.23791      0.00000     0.76090    0.00119     0.76209
      H   19    0.22968      0.00000     0.76950    0.00082     0.77032
      H   20    0.23036      0.00000     0.76879    0.00085     0.76964
      H   21    0.22905      0.00000     0.77009    0.00086     0.77095
      H   22    0.22427      0.00000     0.77473    0.00100     0.77573
      H   23    0.24889      0.00000     0.74994    0.00117     0.75111
      H   24    0.24008      0.00000     0.75912    0.00080     0.75992
      H   25    0.23892      0.00000     0.76030    0.00078     0.76108
      H   26    0.24052      0.00000     0.75867    0.00082     0.75948
      H   27    0.24915      0.00000     0.74949    0.00136     0.75085
 =======================================================================
   * Total *    0.00000     29.98724    75.74225    0.27051   106.00000

 Normal termination of Gaussian 09 at Wed Sep 29 18:22:37 2021.
