 Gaussian 09, Revision A.02,

 -----------------------------------
 #p opt b3lyp/6-31G* scf=(xqc,tight)
 -----------------------------------

 ------------------------------------
 O=C(N(C)C)Oc1cccc(c1)C(C)(C)C_conf_0
 ------------------------------------
 Symbolic Z-matrix:
 Charge =  0 Multiplicity = 1

 SCF Done:  E(RB3LYP) =  -712.043218037     A.U. after   15 cycles
 SCF Done:  E(RB3LYP) =  -712.047981982     A.U. after   13 cycles
 SCF Done:  E(RB3LYP) =  -712.048335377     A.U. after   12 cycles
 SCF Done:  E(RB3LYP) =  -712.048646231     A.U. after   12 cycles
 SCF Done:  E(RB3LYP) =  -712.049035262     A.U. after   11 cycles
 SCF Done:  E(RB3LYP) =  -712.049145945     A.U. after   12 cycles
 SCF Done:  E(RB3LYP) =  -712.049232931     A.U. after   12 cycles
 SCF Done:  E(RB3LYP) =  -712.049269859     A.U. after   11 cycles
 SCF Done:  E(RB3LYP) =  -712.049304692     A.U. after   11 cycles
 SCF Done:  E(RB3LYP) =  -712.049323977     A.U. after   10 cycles
 SCF Done:  E(RB3LYP) =  -712.049389626     A.U. after   10 cycles
 SCF Done:  E(RB3LYP) =  -712.049392128     A.U. after   10 cycles
 SCF Done:  E(RB3LYP) =  -712.049394285     A.U. after    9 cycles
 SCF Done:  E(RB3LYP) =  -712.049398194     A.U. after   10 cycles
 SCF Done:  E(RB3LYP) =  -712.049399174     A.U. after    9 cycles
 SCF Done:  E(RB3LYP) =  -712.049399654     A.U. after    9 cycles
 SCF Done:  E(RB3LYP) =  -712.049399667     A.U. after    7 cycles
 SCF Done:  E(RB3LYP) =  -712.049399697     A.U. after    7 cycles
 Optimization completed.
    -- Stationary point found.
 Normal termination of Gaussian 09 at Thu Sep 30 20:58:46 2021.

 ----------------------------------------------------------------------
 #p freq b3lyp/6-31G* volume NMR pop=NPA density=current Geom=AllCheck
 Guess=Read
 ----------------------------------------------------------------------

 O=C(N(C)C)Oc1cccc(c1)C(C)(C)C_conf_0
 ------------------------------------
 Redundant internal coordinates taken from checkpoint file:
 C13H19NO2_23d2_conf_0.chk
 Charge =  0 Multiplicity = 1

 SCF Done:  E(RB3LYP) =  -712.049399697     A.U. after    1 cycles

  1  O    Isotropic =    68.2470   Anisotropy =   388.8397

  2  C    Isotropic =    46.8383   Anisotropy =    76.7956

  3  N    Isotropic =   180.6308   Anisotropy =    83.6528

  4  C    Isotropic =   155.3197   Anisotropy =    51.3432

  5  C    Isotropic =   155.5476   Anisotropy =    49.4898

  6  O    Isotropic =   144.5032   Anisotropy =   128.3505

  7  C    Isotropic =    44.7930   Anisotropy =   106.7850

  8  C    Isotropic =    75.3270   Anisotropy =   150.4743

  9  C    Isotropic =    68.0287   Anisotropy =   160.6144

 10  C    Isotropic =    73.1392   Anisotropy =   158.9815

 11  C    Isotropic =    46.7557   Anisotropy =   180.9928

 12  C    Isotropic =    78.9950   Anisotropy =   132.4055

 13  C    Isotropic =   153.3062   Anisotropy =    10.0578

 14  C    Isotropic =   157.3206   Anisotropy =    39.6324

 15  C    Isotropic =   161.1527   Anisotropy =    30.8382

 16  C    Isotropic =   157.4000   Anisotropy =    39.5874

 17  H    Isotropic =    28.1512   Anisotropy =     6.9965

 18  H    Isotropic =    29.9453   Anisotropy =     9.3368

 19  H    Isotropic =    29.9031   Anisotropy =     9.3516

 20  H    Isotropic =    28.2807   Anisotropy =     5.2736

 21  H    Isotropic =    29.6373   Anisotropy =     8.9505

 22  H    Isotropic =    29.8021   Anisotropy =     8.8738

 23  H    Isotropic =    25.0585   Anisotropy =     8.1266

 24  H    Isotropic =    25.0073   Anisotropy =     4.7597

 25  H    Isotropic =    25.0540   Anisotropy =     9.2148

 26  H    Isotropic =    25.4985   Anisotropy =    12.4689

 27  H    Isotropic =    30.9868   Anisotropy =     7.7070

 28  H    Isotropic =    30.5653   Anisotropy =     7.6343

 29  H    Isotropic =    30.9994   Anisotropy =     8.6920

 30  H    Isotropic =    30.6791   Anisotropy =     7.6565

 31  H    Isotropic =    31.1183   Anisotropy =     7.6266

 32  H    Isotropic =    30.6394   Anisotropy =     7.5470

 33  H    Isotropic =    30.5564   Anisotropy =     7.6592

 34  H    Isotropic =    30.9196   Anisotropy =     7.6480

 35  H    Isotropic =    30.9858   Anisotropy =     8.7193

  Exact polarizability: 202.932  -3.610 149.055  -2.950  -1.291  98.307
 Approx polarizability: 259.008  -8.143 237.987  -6.609   0.572 145.021

                     1                      2                      3
                     A                      A                      A
 Frequencies --    24.1227                30.9301                43.2586
 Red. masses --     3.4699                 3.0605                 2.2649
 Frc consts  --     0.0012                 0.0017                 0.0025
 IR Inten    --     1.8834                 0.4269                 0.6772

                     4                      5                      6
                     A                      A                      A
 Frequencies --    56.1799                93.2594               111.9990
 Red. masses --     1.9012                 3.5450                 2.6059
 Frc consts  --     0.0035                 0.0182                 0.0193
 IR Inten    --     0.2186                 1.5602                 0.9933

                     7                      8                      9
                     A                      A                      A
 Frequencies --   131.5925               141.3289               198.7746
 Red. masses --     2.7891                 1.4173                 3.8612
 Frc consts  --     0.0285                 0.0167                 0.0899
 IR Inten    --     0.7103                 0.1987                 2.2079

                    10                     11                     12
                     A                      A                      A
 Frequencies --   222.8615               233.2092               238.4875
 Red. masses --     2.4507                 2.3695                 1.1936
 Frc consts  --     0.0717                 0.0759                 0.0400
 IR Inten    --     2.7652                 1.0885                 0.1988

                    13                     14                     15
                     A                      A                      A
 Frequencies --   250.3682               278.2071               304.9577
 Red. masses --     3.6394                 1.0764                 3.5863
 Frc consts  --     0.1344                 0.0491                 0.1965
 IR Inten    --     0.3779                 0.0595                 0.9521

                    16                     17                     18
                     A                      A                      A
 Frequencies --   322.0390               332.7982               349.0834
 Red. masses --     2.6252                 1.0608                 2.6563
 Frc consts  --     0.1604                 0.0692                 0.1907
 IR Inten    --     0.5513                 0.0010                 0.1215

                    19                     20                     21
                     A                      A                      A
 Frequencies --   374.6260               394.3539               401.5517
 Red. masses --     3.1823                 2.4549                 3.4620
 Frc consts  --     0.2631                 0.2249                 0.3289
 IR Inten    --    11.5042                 0.0604                 5.3453

                    22                     23                     24
                     A                      A                      A
 Frequencies --   454.3923               475.6693               486.7484
 Red. masses --     3.5412                 3.3164                 3.4236
 Frc consts  --     0.4308                 0.4421                 0.4779
 IR Inten    --     7.7302                 2.1735                 0.2535

                    25                     26                     27
                     A                      A                      A
 Frequencies --   536.1596               608.3594               623.0808
 Red. masses --     2.8575                 5.2495                 6.3656
 Frc consts  --     0.4840                 1.1447                 1.4561
 IR Inten    --     0.1952                 2.6410                 6.1732

                    28                     29                     30
                     A                      A                      A
 Frequencies --   662.6678               712.6820               715.7529
 Red. masses --     5.2422                 4.6228                 2.4208
 Frc consts  --     1.3563                 1.3834                 0.7307
 IR Inten    --     0.2893                 2.8460                10.6762

                    31                     32                     33
                     A                      A                      A
 Frequencies --   739.5500               796.4657               827.5378
 Red. masses --    11.8592                 1.6198                 3.1625
 Frc consts  --     3.8216                 0.6054                 1.2760
 IR Inten    --    19.4777                22.3594                 0.8177

                    34                     35                     36
                     A                      A                      A
 Frequencies --   850.5530               900.6770               913.3526
 Red. masses --     3.9131                 1.4926                 1.5431
 Frc consts  --     1.6679                 0.7134                 0.7584
 IR Inten    --     9.6838                 7.3676                 4.6797

                    37                     38                     39
                     A                      A                      A
 Frequencies --   932.2477               938.6680               948.1350
 Red. masses --     3.4626                 1.7423                 1.7244
 Frc consts  --     1.7730                 0.9045                 0.9133
 IR Inten    --    46.9500                 1.4252                 0.6727

                    40                     41                     42
                     A                      A                      A
 Frequencies --   969.9634               975.2697              1020.6791
 Red. masses --     1.2456                 1.2221                 6.1780
 Frc consts  --     0.6905                 0.6849                 3.7921
 IR Inten    --     0.0585                 0.2265                 2.9926

                    43                     44                     45
                     A                      A                      A
 Frequencies --  1046.9751              1056.9756              1061.5249
 Red. masses --     2.0836                 1.6714                 1.3944
 Frc consts  --     1.3457                 1.1002                 0.9258
 IR Inten    --     8.5044                11.4568                 0.1831

                    46                     47                     48
                     A                      A                      A
 Frequencies --  1094.8056              1119.1284              1144.4028
 Red. masses --     1.3622                 1.7268                 1.2183
 Frc consts  --     0.9620                 1.2743                 0.9400
 IR Inten    --     7.0967                 4.4640                 0.2297

                    49                     50                     51
                     A                      A                      A
 Frequencies --  1147.4539              1188.0635              1193.4949
 Red. masses --     1.6039                 1.7749                 1.7996
 Frc consts  --     1.2442                 1.4761                 1.5103
 IR Inten    --     3.1298               280.9093               263.7056

                    52                     53                     54
                     A                      A                      A
 Frequencies --  1207.5695              1239.0309              1240.0867
 Red. masses --     1.1722                 2.6857                 2.6450
 Frc consts  --     1.0071                 2.4292                 2.3965
 IR Inten    --    66.3731                 7.9378               192.7018

                    55                     56                     57
                     A                      A                      A
 Frequencies --  1245.2686              1294.6651              1306.8857
 Red. masses --     3.2192                 4.3520                 4.0183
 Frc consts  --     2.9412                 4.2979                 4.0436
 IR Inten    --   192.1419               105.8230                32.6212

                    58                     59                     60
                     A                      A                      A
 Frequencies --  1330.2765              1365.1967              1425.0423
 Red. masses --     1.9112                 2.8599                 1.2290
 Frc consts  --     1.9927                 3.1404                 1.4705
 IR Inten    --    16.5149                10.0453                 5.6813

                    61                     62                     63
                     A                      A                      A
 Frequencies --  1426.3910              1438.3560              1457.1813
 Red. masses --     1.2326                 2.6367                 1.2180
 Frc consts  --     1.4775                 3.2140                 1.5238
 IR Inten    --     5.5278               329.6816                 2.1381

                    64                     65                     66
                     A                      A                      A
 Frequencies --  1459.7458              1481.5205              1491.6542
 Red. masses --     1.1755                 2.6715                 1.2987
 Frc consts  --     1.4759                 3.4548                 1.7026
 IR Inten    --    24.9532                21.4583                49.0155

                    67                     68                     69
                     A                      A                      A
 Frequencies --  1512.9973              1516.6859              1519.0004
 Red. masses --     1.0504                 1.0459                 1.0870
 Frc consts  --     1.4166                 1.4176                 1.4777
 IR Inten    --     0.0253                 0.2660                 3.5256

                    70                     71                     72
                     A                      A                      A
 Frequencies --  1519.6059              1530.8001              1531.3063
 Red. masses --     1.0559                 1.0527                 1.0854
 Frc consts  --     1.4365                 1.4534                 1.4995
 IR Inten    --     0.7700                17.2618                17.4514

                    73                     74                     75
                     A                      A                      A
 Frequencies --  1531.4667              1537.1615              1541.9000
 Red. masses --     1.1697                 1.0508                 1.5880
 Frc consts  --     1.6163                 1.4629                 2.2244
 IR Inten    --    16.6995                 5.3428                13.4940

                    76                     77                     78
                     A                      A                      A
 Frequencies --  1550.6279              1565.6677              1639.7534
 Red. masses --     1.0898                 1.2249                 5.6558
 Frc consts  --     1.5439                 1.7691                 8.9599
 IR Inten    --    14.2557                51.1736                33.2574

                    79                     80                     81
                     A                      A                      A
 Frequencies --  1667.0203              1816.7433              3026.6954
 Red. masses --     6.1322                10.9160                 1.0414
 Frc consts  --    10.0403                21.2277                 5.6210
 IR Inten    --    30.5619               376.4958                29.0200

                    82                     83                     84
                     A                      A                      A
 Frequencies --  3034.4010              3042.9648              3043.1182
 Red. masses --     1.0418                 1.0354                 1.0350
 Frc consts  --     5.6520                 5.6489                 5.6472
 IR Inten    --   118.0568                26.4435                25.1431

                    85                     86                     87
                     A                      A                      A
 Frequencies --  3051.1747              3073.6525              3078.0599
 Red. masses --     1.0364                 1.1022                 1.1044
 Frc consts  --     5.6848                 6.1353                 6.1649
 IR Inten    --    25.8268                63.3052                13.8592

                    88                     89                     90
                     A                      A                      A
 Frequencies --  3108.3538              3108.7171              3115.5200
 Red. masses --     1.1019                 1.1021                 1.1028
 Frc consts  --     6.2725                 6.2751                 6.3067
 IR Inten    --     4.9481                 3.7792                24.7615

                    91                     92                     93
                     A                      A                      A
 Frequencies --  3116.8178              3121.9960              3125.0515
 Red. masses --     1.1014                 1.1022                 1.1015
 Frc consts  --     6.3037                 6.3296                 6.3378
 IR Inten    --    96.0475                21.0881                40.6072

                    94                     95                     96
                     A                      A                      A
 Frequencies --  3187.4558              3194.4393              3205.1062
 Red. masses --     1.0865                 1.0960                 1.0932
 Frc consts  --     6.5039                 6.5894                 6.6167
 IR Inten    --     9.0461                 0.8999                26.6059

                    97                     98                     99
                     A                      A                      A
 Frequencies --  3210.8289              3234.9883              3252.1663
 Red. masses --     1.0942                 1.0895                 1.0933
 Frc consts  --     6.6465                 6.7180                 6.8127
 IR Inten    --     3.3691                 3.9025                 2.5732

 - Thermochemistry -
 -------------------
 Temperature   298.150 Kelvin.  Pressure   1.00000 Atm.
 Atom     1 has atomic number  8 and mass  15.99491

 Molecular mass:   221.14158 amu.
 Principal axes and moments of inertia in atomic units:
                           1         2         3
     Eigenvalues --  1570.550677462.298888270.87742
           X            0.99999  -0.00147  -0.00375
           Y            0.00147   1.00000  -0.00116
           Z            0.00375   0.00115   0.99999
 This molecule is an asymmetric top.
 Rotational symmetry number  1.
 Warning -- assumption of classical behavior for rotation
           may cause significant error
 Rotational temperatures (Kelvin)      0.05515     0.01161     0.01047
 Rotational constants (GHZ):           1.14911     0.24185     0.21820
 Zero-point vibrational energy     791907.2 (Joules/Mol)
                                  189.27035 (Kcal/Mol)
 Warning -- explicit consideration of  26 degrees of freedom as
           vibrations may cause significant error
 Vibrational temperatures:     34.71    44.50    62.24    80.83   134.18
          (Kelvin)            161.14   189.33   203.34   285.99   320.65
                              335.54   343.13   360.22   400.28   438.77
                              463.34   478.82   502.25   539.00   567.39
                              577.74   653.77   684.38   700.32   771.41
                              875.29   896.47   953.43  1025.39  1029.81
                             1064.05  1145.94  1190.64  1223.75  1295.87
                             1314.11  1341.29  1350.53  1364.15  1395.56
                             1403.19  1468.53  1506.36  1520.75  1527.30
                             1575.18  1610.17  1646.54  1650.93  1709.36
                             1717.17  1737.42  1782.69  1784.21  1791.66
                             1862.73  1880.31  1913.97  1964.21  2050.32
                             2052.26  2069.47  2096.56  2100.25  2131.57
                             2146.15  2176.86  2182.17  2185.50  2186.37
                             2202.48  2203.21  2203.44  2211.63  2218.45
                             2231.00  2252.64  2359.24  2398.47  2613.89
                             4354.73  4365.82  4378.14  4378.36  4389.95
                             4422.29  4428.64  4472.22  4472.74  4482.53
                             4484.40  4491.85  4496.25  4586.03  4596.08
                             4611.43  4619.66  4654.42  4679.14

 Zero-point correction=                           0.301622 (Hartree/Particle)
 Thermal correction to Energy=                    0.318893
 Thermal correction to Enthalpy=                  0.319837
 Thermal correction to Gibbs Free Energy=         0.255354
 Sum of electronic and zero-point Energies=           -711.747778
 Sum of electronic and thermal Energies=              -711.730507
 Sum of electronic and thermal Enthalpies=            -711.729563
 Sum of electronic and thermal Free Energies=         -711.794046

                     E (Thermal)             CV                S
                      KCal/Mol        Cal/Mol-Kelvin    Cal/Mol-Kelvin
 Total                  200.108             64.130            135.717
 Electronic               0.000              0.000              0.000
 Translational            0.889              2.981             42.084
 Rotational               0.889              2.981             32.938
 Vibrational            198.331             58.168             60.695
 Vibration     1          0.593              1.985              6.262
 Vibration     2          0.594              1.984              5.769
 Vibration     3          0.595              1.980              5.104
 Vibration     4          0.596              1.975              4.587
 Vibration     5          0.602              1.954              3.591
 Vibration     6          0.607              1.940              3.234
 Vibration     7          0.612              1.922              2.923
 Vibration     8          0.615              1.912              2.786
 Vibration     9          0.637              1.842              2.144
 Vibration    10          0.649              1.806              1.936
 Vibration    11          0.654              1.790              1.854
 Vibration    12          0.656              1.782              1.814
 Vibration    13          0.663              1.762              1.728
 Vibration    14          0.679              1.714              1.545
 Vibration    15          0.696              1.664              1.390
 Vibration    16          0.707              1.631              1.300
 Vibration    17          0.715              1.610              1.246
 Vibration    18          0.726              1.577              1.170
 Vibration    19          0.746              1.524              1.061
 Vibration    20          0.761              1.482              0.984
 Vibration    21          0.767              1.467              0.957
 Vibration    22          0.813              1.351              0.783
 Vibration    23          0.832              1.304              0.722
 Vibration    24          0.843              1.279              0.692
 Vibration    25          0.891              1.170              0.574
 Vibration    26          0.967              1.014              0.436

 Optimization completed.
    -- Stationary point found.
 Normal termination of Gaussian 09 at Thu Sep 30 22:11:35 2021.
 Gaussian 09:  AM64L-G09RevA.02 11-Jun-2009

 ----------------------------------------------------------------------
 #p TD(NStates=10, Root=1) b3lyp/6-31G* volume pop=NPA density=current
 Geom=AllCheck Guess=Read
 ----------------------------------------------------------------------

 O=C(N(C)C)Oc1cccc(c1)C(C)(C)C_conf_0
 ------------------------------------
 Redundant internal coordinates taken from checkpoint file:
 C13H19NO2_23d2_conf_0.chk
 Charge =  0 Multiplicity = 1

                         Standard orientation:
 ---------------------------------------------------------------------
 Center     Atomic      Atomic             Coordinates (Angstroms)
 Number     Number       Type             X           Y           Z
 ---------------------------------------------------------------------
      1          8           0        2.698126    1.212797    0.976053
      2          6           0        2.699793    0.235370    0.252237
      3          7           0        3.789614   -0.541707   -0.022193
      4          6           0        5.049953   -0.224366    0.629759
      5          6           0        3.776113   -1.729032   -0.862312
      6          8           0        1.587033   -0.239156   -0.407430
      7          6           0        0.374320    0.441790   -0.306553
      8          6           0        0.262751    1.814844   -0.499919
      9          6           0       -1.014458    2.375932   -0.465635
     10          6           0       -2.141618    1.585070   -0.253419
     11          6           0       -2.032617    0.196849   -0.063463
     12          6           0       -0.748033   -0.358471   -0.092046
     13          6           0       -3.295253   -0.653769    0.167494
     14          6           0       -4.240952   -0.511567   -1.048823
     15          6           0       -2.970326   -2.148270    0.350600
     16          6           0       -4.021522   -0.159014    1.440957
     17          1           0        4.923135    0.682959    1.218181
     18          1           0        5.836872   -0.067839   -0.119514
     19          1           0        5.361669   -1.045294    1.289914
     20          1           0        2.810940   -1.833701   -1.351375
     21          1           0        3.974970   -2.629716   -0.264532
     22          1           0        4.557894   -1.650784   -1.629032
     23          1           0        1.143424    2.424549   -0.655042
     24          1           0       -1.128383    3.447228   -0.608761
     25          1           0       -3.118443    2.059609   -0.235714
     26          1           0       -0.585861   -1.420567    0.046831
     27          1           0       -3.754333   -0.859628   -1.967106
     28          1           0       -4.547866    0.527496   -1.207203
     29          1           0       -5.148886   -1.108264   -0.897575
     30          1           0       -2.475849   -2.569226   -0.532305
     31          1           0       -3.897009   -2.711043    0.509768
     32          1           0       -2.325621   -2.321885    1.219687
     33          1           0       -4.317324    0.892013    1.358881
     34          1           0       -3.377048   -0.256420    2.321955
     35          1           0       -4.929760   -0.748864    1.616057
 ---------------------------------------------------------------------

 SCF Done:  E(RB3LYP) =  -712.049399697     A.U. after    1 cycles

 Excitation energies and oscillator strengths:

 Excited State   1:      Singlet-A      5.3068 eV  233.63 nm  f=0.0051  <S**2>=0.000
      58 -> 61         0.17165
      59 -> 61        -0.40478
      60 -> 61         0.10387
      60 -> 62         0.53077
 This state for optimization and/or second-order correction.
 Total Energy, E(TD-HF/TD-KS) =  -711.854379781
 Copying the excited state density for this state as the 1-particle RhoCI density.

 Excited State   2:      Singlet-A      5.8613 eV  211.53 nm  f=0.1027  <S**2>=0.000
      59 -> 62         0.29797
      60 -> 61         0.61087
      60 -> 62        -0.13540

 Excited State   3:      Singlet-A      6.1433 eV  201.82 nm  f=0.0475  <S**2>=0.000
      58 -> 61         0.60298
      59 -> 61         0.31613
      59 -> 62         0.17494

 Excited State   4:      Singlet-A      6.1801 eV  200.62 nm  f=0.0174  <S**2>=0.000
      58 -> 62         0.61598
      59 -> 61        -0.13926
      59 -> 62         0.24785
      60 -> 62        -0.16786

 Excited State   5:      Singlet-A      6.3899 eV  194.03 nm  f=0.0647  <S**2>=0.000
      57 -> 61         0.54375
      57 -> 62        -0.18497
      57 -> 63        -0.23831
      58 -> 61         0.12159
      58 -> 62        -0.14199
      59 -> 61        -0.18923
      59 -> 63         0.13024
      60 -> 62        -0.13503

 Excited State   6:      Singlet-A      6.6259 eV  187.12 nm  f=0.4782  <S**2>=0.000
      57 -> 62         0.39367
      58 -> 61         0.19696
      58 -> 62         0.11532
      59 -> 61        -0.14524
      59 -> 62        -0.37558
      60 -> 61         0.17152
      60 -> 62        -0.14258
      60 -> 63        -0.24485

 Excited State   7:      Singlet-A      6.7834 eV  182.78 nm  f=0.2338  <S**2>=0.000
      56 -> 61        -0.10651
      57 -> 61         0.29878
      57 -> 62         0.45417
      59 -> 61         0.19360
      59 -> 62         0.12376
      60 -> 62         0.16738
      60 -> 63         0.30353

 Excited State   8:      Singlet-A      6.8623 eV  180.67 nm  f=0.2921  <S**2>=0.000
      56 -> 62         0.17889
      57 -> 61         0.19492
      57 -> 62        -0.23898
      58 -> 62         0.25217
      59 -> 61         0.29718
      59 -> 62        -0.25191
      60 -> 61         0.17495
      60 -> 62         0.25951
      60 -> 63        -0.15924

 Excited State   9:      Singlet-A      7.0828 eV  175.05 nm  f=0.0166  <S**2>=0.000
      56 -> 61        -0.18900
      57 -> 61         0.20914
      57 -> 63         0.46605
      58 -> 63         0.12933
      59 -> 63        -0.33542
      60 -> 63        -0.20790

 Excited State  10:      Singlet-A      7.1168 eV  174.21 nm  f=0.1193  <S**2>=0.000
      56 -> 61         0.21958
      57 -> 62        -0.17426
      57 -> 63         0.21229
      58 -> 61         0.11367
      58 -> 63         0.12498
      59 -> 62        -0.21667
      60 -> 61         0.13766
      60 -> 63         0.49182

 The electronic state is 1-A.
 Alpha  occ. eigenvalues --  -19.19118 -19.11344 -14.36843 -10.33095 -10.24393
 Alpha  occ. eigenvalues --  -10.22155 -10.21606 -10.20263 -10.19208 -10.18583
 Alpha  occ. eigenvalues --  -10.18175 -10.18173 -10.17997 -10.17322 -10.17283
 Alpha  occ. eigenvalues --  -10.17217  -1.10219  -1.01112  -0.93993  -0.85436
 Alpha  occ. eigenvalues --   -0.80991  -0.75130  -0.73231  -0.72456  -0.69947
 Alpha  occ. eigenvalues --   -0.68188  -0.68150  -0.62487  -0.60635  -0.57193
 Alpha  occ. eigenvalues --   -0.53609  -0.51479  -0.49986  -0.48625  -0.48274
 Alpha  occ. eigenvalues --   -0.46196  -0.45284  -0.44065  -0.43634  -0.42804
 Alpha  occ. eigenvalues --   -0.42483  -0.41739  -0.40609  -0.40451  -0.39932
 Alpha  occ. eigenvalues --   -0.39148  -0.38214  -0.37566  -0.37327  -0.36389
 Alpha  occ. eigenvalues --   -0.36069  -0.34672  -0.33038  -0.32263  -0.31741
 Alpha  occ. eigenvalues --   -0.30439  -0.26970  -0.24427  -0.23935  -0.22635
 Alpha virt. eigenvalues --    0.00492   0.00652   0.05767   0.08243   0.09192
 Alpha virt. eigenvalues --    0.10999   0.12278   0.13376   0.13664   0.14376
 Alpha virt. eigenvalues --    0.14950   0.15031   0.15262   0.15894   0.16292

 Mulliken atomic charges:
              1
     1  O   -0.503499
     2  C    0.782160
     3  N   -0.433004
     4  C   -0.318833
     5  C   -0.316984
     6  O   -0.537071
     7  C    0.351954
     8  C   -0.141674
     9  C   -0.162502
    10  C   -0.172810
    11  C    0.156186
    12  C   -0.248104
    13  C    0.019552
    14  C   -0.437534
    15  C   -0.455034
    16  C   -0.437627
    17  H    0.207046
    18  H    0.155413
    19  H    0.156015
    20  H    0.199687
    21  H    0.157398
    22  H    0.157635
    23  H    0.150822
    24  H    0.129615
    25  H    0.128630
    26  H    0.130558
    27  H    0.146481
    28  H    0.142431
    29  H    0.136498
    30  H    0.143756
    31  H    0.139867
    32  H    0.145935
    33  H    0.142504
    34  H    0.148955
    35  H    0.135578
 Sum of Mulliken atomic charges =  -0.00000

 Dipole moment (field-independent basis, Debye):
    X=              1.2499    Y=             -2.2716    Z=             -1.2296  Tot=              2.8696
 Quadrupole moment (field-independent basis, Debye-Ang):
   XX=            -79.4360   YY=            -93.9454   ZZ=            -99.4935
   XY=             -7.5889   XZ=             -3.7036   YZ=             -2.4037

 Summary of Natural Population Analysis:

                                       Natural Population
                Natural  -----------------------------------------------
    Atom  No    Charge         Core      Valence    Rydberg      Total
 -----------------------------------------------------------------------
      O    1   -0.63809      1.99978     6.61917    0.01914     8.63809
      C    2    0.93696      1.99937     3.01868    0.04499     5.06304
      N    3   -0.48191      1.99932     5.47162    0.01097     7.48191
      C    4   -0.46961      1.99947     4.45825    0.01189     6.46961
      C    5   -0.47099      1.99946     4.46001    0.01151     6.47099
      O    6   -0.53240      1.99969     6.52233    0.01038     8.53240
      C    7    0.31401      1.99874     3.66336    0.02389     5.68599
      C    8   -0.26329      1.99902     4.24700    0.01727     6.26329
      C    9   -0.24759      1.99915     4.22940    0.01904     6.24759
      C   10   -0.20293      1.99907     4.18802    0.01584     6.20293
      C   11   -0.02931      1.99904     4.00937    0.02091     6.02931
      C   12   -0.27776      1.99898     4.26087    0.01790     6.27776
      C   13   -0.07149      1.99911     4.05935    0.01303     6.07149
      C   14   -0.66236      1.99937     4.65302    0.00997     6.66236
      C   15   -0.67653      1.99939     4.66695    0.01019     6.67653
      C   16   -0.66284      1.99937     4.65347    0.00999     6.66284
      H   17    0.26403      0.00000     0.73444    0.00153     0.73597
      H   18    0.22098      0.00000     0.77769    0.00133     0.77902
      H   19    0.22003      0.00000     0.77856    0.00141     0.77997
      H   20    0.25724      0.00000     0.74185    0.00091     0.74276
      H   21    0.22067      0.00000     0.77771    0.00162     0.77933
      H   22    0.22342      0.00000     0.77511    0.00146     0.77658
      H   23    0.24899      0.00000     0.74985    0.00117     0.75101
      H   24    0.23130      0.00000     0.76784    0.00086     0.76870
      H   25    0.22545      0.00000     0.77359    0.00096     0.77455
      H   26    0.23661      0.00000     0.76192    0.00147     0.76339
      H   27    0.23506      0.00000     0.76391    0.00103     0.76494
      H   28    0.22999      0.00000     0.76905    0.00096     0.77001
      H   29    0.22799      0.00000     0.77059    0.00142     0.77201
      H   30    0.23217      0.00000     0.76664    0.00119     0.76783
      H   31    0.23518      0.00000     0.76388    0.00094     0.76482
      H   32    0.23332      0.00000     0.76550    0.00119     0.76668
      H   33    0.23001      0.00000     0.76904    0.00095     0.76999
      H   34    0.23639      0.00000     0.76260    0.00101     0.76361
      H   35    0.22730      0.00000     0.77129    0.00141     0.77270
 =======================================================================
   * Total *    0.00000     31.98834    87.72193    0.28973   120.00000

 Normal termination of Gaussian 09 at Fri Oct  1 03:23:54 2021.
