 Gaussian 09, Revision A.02,

 -----------------------------------
 #p opt b3lyp/6-31G* scf=(xqc,tight)
 -----------------------------------

 -----------------------------------------
 COc1nc(Oc2cccc(c2)NC(=O)C)nc(n1)OC_conf_0
 -----------------------------------------
 Symbolic Z-matrix:
 Charge =  0 Multiplicity = 1

 SCF Done:  E(RB3LYP) =  -1023.72927477     A.U. after   15 cycles
 SCF Done:  E(RB3LYP) =  -1023.73939061     A.U. after   12 cycles
 SCF Done:  E(RB3LYP) =  -1023.74161798     A.U. after   13 cycles
 SCF Done:  E(RB3LYP) =  -1023.74220132     A.U. after   12 cycles
 SCF Done:  E(RB3LYP) =  -1023.74263314     A.U. after   12 cycles
 SCF Done:  E(RB3LYP) =  -1023.74278158     A.U. after   12 cycles
 SCF Done:  E(RB3LYP) =  -1023.74280723     A.U. after   10 cycles
 SCF Done:  E(RB3LYP) =  -1023.74283789     A.U. after   10 cycles
 SCF Done:  E(RB3LYP) =  -1023.74284757     A.U. after   10 cycles
 SCF Done:  E(RB3LYP) =  -1023.74286097     A.U. after   11 cycles
 SCF Done:  E(RB3LYP) =  -1023.74304259     A.U. after    9 cycles
 SCF Done:  E(RB3LYP) =  -1023.74304326     A.U. after    9 cycles
 SCF Done:  E(RB3LYP) =  -1023.74304461     A.U. after   10 cycles
 SCF Done:  E(RB3LYP) =  -1023.74304574     A.U. after   10 cycles
 SCF Done:  E(RB3LYP) =  -1023.74304627     A.U. after   10 cycles
 SCF Done:  E(RB3LYP) =  -1023.74304701     A.U. after   10 cycles
 SCF Done:  E(RB3LYP) =  -1023.74304705     A.U. after    9 cycles
 SCF Done:  E(RB3LYP) =  -1023.74304708     A.U. after    9 cycles
 Optimization completed on the basis of negligible forces.
    -- Stationary point found.
 Normal termination of Gaussian 09 at Tue Sep 28 20:44:46 2021.

 ----------------------------------------------------------------------
 #p freq b3lyp/6-31G* volume NMR pop=NPA density=current Geom=AllCheck
 Guess=Read
 ----------------------------------------------------------------------

 COc1nc(Oc2cccc(c2)NC(=O)C)nc(n1)OC_conf_0
 -----------------------------------------
 Redundant internal coordinates taken from checkpoint file:
 C13H14N4O4_0cc9_conf_0.chk
 Charge =  0 Multiplicity = 1

 SCF Done:  E(RB3LYP) =  -1023.74304708     A.U. after    1 cycles

  1  C    Isotropic =   136.2330   Anisotropy =    64.8211

  2  O    Isotropic =   190.6670   Anisotropy =    89.5023

  3  C    Isotropic =    23.1376   Anisotropy =   100.8724

  4  N    Isotropic =    62.8451   Anisotropy =   280.1898

  5  C    Isotropic =    24.2425   Anisotropy =    92.0674

  6  O    Isotropic =   140.0182   Anisotropy =   109.3754

  7  C    Isotropic =    45.1302   Anisotropy =   104.6960

  8  C    Isotropic =    80.6663   Anisotropy =   135.1269

  9  C    Isotropic =    65.7940   Anisotropy =   166.6985

 10  C    Isotropic =    80.1194   Anisotropy =   157.6089

 11  C    Isotropic =    56.9538   Anisotropy =   135.9580

 12  C    Isotropic =    84.2616   Anisotropy =   117.2735

 13  N    Isotropic =   115.7925   Anisotropy =   113.4269

 14  C    Isotropic =    33.9726   Anisotropy =    92.5490

 15  O    Isotropic =   -68.3773   Anisotropy =   631.5043

 16  C    Isotropic =   165.5694   Anisotropy =    41.7967

 17  N    Isotropic =    65.1650   Anisotropy =   278.2262

 18  C    Isotropic =    23.7272   Anisotropy =    98.8457

 19  N    Isotropic =    61.3158   Anisotropy =   284.2159

 20  O    Isotropic =   191.8934   Anisotropy =    87.4146

 21  C    Isotropic =   136.3742   Anisotropy =    65.3847

 22  H    Isotropic =    28.4907   Anisotropy =     7.6770

 23  H    Isotropic =    28.2255   Anisotropy =     7.9776

 24  H    Isotropic =    28.2371   Anisotropy =     7.6244

 25  H    Isotropic =    25.6302   Anisotropy =     5.9348

 26  H    Isotropic =    24.9994   Anisotropy =     4.2552

 27  H    Isotropic =    23.6244   Anisotropy =     8.7016

 28  H    Isotropic =    25.9864   Anisotropy =    10.0687

 29  H    Isotropic =    26.3537   Anisotropy =     8.8235

 30  H    Isotropic =    30.9230   Anisotropy =     5.2557

 31  H    Isotropic =    30.1391   Anisotropy =     6.8996

 32  H    Isotropic =    29.9836   Anisotropy =     6.3265

 33  H    Isotropic =    28.5888   Anisotropy =     7.8173

 34  H    Isotropic =    28.3375   Anisotropy =     8.4222

 35  H    Isotropic =    28.3187   Anisotropy =     8.1579

  Exact polarizability: 246.231 -14.052 181.351  13.174  15.475 111.306
 Approx polarizability: 334.911 -16.440 273.925  31.137  28.347 174.878

                     1                      2                      3
                     A                      A                      A
 Frequencies --    11.1773                29.7764                36.3636
 Red. masses --     4.4533                 5.9634                 6.3834
 Frc consts  --     0.0003                 0.0031                 0.0050
 IR Inten    --     0.7968                 0.8905                 2.0138

                     4                      5                      6
                     A                      A                      A
 Frequencies --    43.6576                61.3017                95.3007
 Red. masses --     1.1624                 4.7478                 3.1311
 Frc consts  --     0.0013                 0.0105                 0.0168
 IR Inten    --     2.1367                 5.8732                 0.5386

                     7                      8                      9
                     A                      A                      A
 Frequencies --    99.2329               110.4162               143.5781
 Red. masses --     3.5102                 3.0955                 2.0780
 Frc consts  --     0.0204                 0.0222                 0.0252
 IR Inten    --     6.9532                 0.2449                 1.4935

                    10                     11                     12
                     A                      A                      A
 Frequencies --   157.5575               160.3927               167.4998
 Red. masses --     1.2703                 1.6541                 4.0822
 Frc consts  --     0.0186                 0.0251                 0.0675
 IR Inten    --     0.2764                 0.6845                 5.5807

                    13                     14                     15
                     A                      A                      A
 Frequencies --   195.3835               203.4457               231.2301
 Red. masses --     4.0880                 4.8055                 6.4395
 Frc consts  --     0.0919                 0.1172                 0.2029
 IR Inten    --     0.6387                 1.0141                 0.1941

                    16                     17                     18
                     A                      A                      A
 Frequencies --   248.2771               256.4121               264.2631
 Red. masses --     5.3223                 4.8724                 4.4632
 Frc consts  --     0.1933                 0.1887                 0.1836
 IR Inten    --     2.6310                 3.9414                 0.7379

                    19                     20                     21
                     A                      A                      A
 Frequencies --   297.7562               343.0989               357.7206
 Red. masses --     6.0767                 4.3203                 5.0467
 Frc consts  --     0.3174                 0.2996                 0.3805
 IR Inten    --     0.9852                 5.5994                 6.9932

                    22                     23                     24
                     A                      A                      A
 Frequencies --   413.3103               459.2348               467.1483
 Red. masses --     5.3922                 3.5219                 4.6164
 Frc consts  --     0.5427                 0.4376                 0.5936
 IR Inten    --     2.9845                 7.1890                 9.0607

                    25                     26                     27
                     A                      A                      A
 Frequencies --   527.4767               536.7204               538.0898
 Red. masses --     3.5676                 3.2495                 1.9943
 Frc consts  --     0.5848                 0.5515                 0.3402
 IR Inten    --    20.8815                18.1110                51.3609

                    28                     29                     30
                     A                      A                      A
 Frequencies --   585.9046               607.9055               625.4691
 Red. masses --     5.8433                 7.1588                 2.1670
 Frc consts  --     1.1818                 1.5587                 0.4995
 IR Inten    --     3.5666                 1.3017                 4.5486

                    31                     32                     33
                     A                      A                      A
 Frequencies --   632.4714               655.1064               683.7684
 Red. masses --     7.8212                 5.8430                 6.0359
 Frc consts  --     1.8433                 1.4774                 1.6627
 IR Inten    --     2.6374                 1.2714                 1.2367

                    34                     35                     36
                     A                      A                      A
 Frequencies --   696.9460               738.2046               749.3718
 Red. masses --     2.3167                12.0826                11.9424
 Frc consts  --     0.6630                 3.8794                 3.9513
 IR Inten    --    10.8605                 0.8540                 0.0251

                    37                     38                     39
                     A                      A                      A
 Frequencies --   772.8209               803.0526               813.9993
 Red. masses --     4.2418                 2.0803                 2.5400
 Frc consts  --     1.4926                 0.7904                 0.9916
 IR Inten    --     9.0813                10.7002                 5.2270

                    40                     41                     42
                     A                      A                      A
 Frequencies --   827.6162               861.5675               911.3758
 Red. masses --    12.4501                 1.8504                 1.3988
 Frc consts  --     5.0244                 0.8093                 0.6845
 IR Inten    --    40.8975                32.5327                 0.8075

                    43                     44                     45
                     A                      A                      A
 Frequencies --   918.8894               979.1646               987.1063
 Red. masses --     4.3832                 7.5647                 1.2626
 Frc consts  --     2.1805                 4.2732                 0.7248
 IR Inten    --    11.0703                12.3438                 1.4895

                    46                     47                     48
                     A                      A                      A
 Frequencies --   997.6220               999.2674              1018.3273
 Red. masses --    12.8843                 4.6796                 4.9498
 Frc consts  --     7.5551                 2.7531                 3.0242
 IR Inten    --     0.4103                 3.4105                 4.1243

                    49                     50                     51
                     A                      A                      A
 Frequencies --  1029.6546              1051.4919              1065.6739
 Red. masses --     2.2191                 3.3473                 1.6723
 Frc consts  --     1.3862                 2.1805                 1.1190
 IR Inten    --    30.9346                 9.9366                 9.1233

                    52                     53                     54
                     A                      A                      A
 Frequencies --  1114.4244              1131.6178              1158.7914
 Red. masses --     1.5964                 3.4393                 3.4500
 Frc consts  --     1.1682                 2.5949                 2.7295
 IR Inten    --     8.3384                83.8023               141.1520

                    55                     56                     57
                     A                      A                      A
 Frequencies --  1184.3692              1184.8276              1191.7882
 Red. masses --     1.2655                 1.2663                 1.3110
 Frc consts  --     1.0459                 1.0473                 1.0972
 IR Inten    --     0.2415                 1.2091                91.3813

                    58                     59                     60
                     A                      A                      A
 Frequencies --  1206.0458              1227.3988              1240.2496
 Red. masses --     1.5267                 1.8350                 2.0945
 Frc consts  --     1.3084                 1.6288                 1.8983
 IR Inten    --    57.1964               135.3611               122.3277

                    61                     62                     63
                     A                      A                      A
 Frequencies --  1262.4617              1297.5945              1318.7151
 Red. masses --     2.6591                 3.4128                 9.5619
 Frc consts  --     2.4971                 3.3856                 9.7971
 IR Inten    --   326.0636               171.5166                 3.2282

                    64                     65                     66
                     A                      A                      A
 Frequencies --  1340.8765              1368.8260              1410.1788
 Red. masses --     1.6339                 4.7088                 4.4597
 Frc consts  --     1.7308                 5.1983                 5.2252
 IR Inten    --    56.7408                55.4900               846.1942

                    67                     68                     69
                     A                      A                      A
 Frequencies --  1418.1603              1428.2188              1461.1865
 Red. masses --     3.4088                 1.2492                 2.6428
 Frc consts  --     4.0393                 1.5013                 3.3245
 IR Inten    --   864.0418                24.9208                78.7508

                    70                     71                     72
                     A                      A                      A
 Frequencies --  1472.4939              1499.5835              1511.4346
 Red. masses --     1.7412                 1.0489                 1.0482
 Frc consts  --     2.2244                 1.3897                 1.4108
 IR Inten    --    56.4392                 5.5362                 5.6584

                    73                     74                     75
                     A                      A                      A
 Frequencies --  1511.9702              1517.5556              1518.3994
 Red. masses --     1.0481                 1.3405                 1.0848
 Frc consts  --     1.4117                 1.8190                 1.4736
 IR Inten    --     6.3891               107.2699                 9.9658

                    76                     77                     78
                     A                      A                      A
 Frequencies --  1521.7145              1524.2620              1539.2748
 Red. masses --     1.0928                 1.2207                 2.5826
 Frc consts  --     1.4910                 1.6711                 3.6053
 IR Inten    --    23.3563                10.5131               327.2382

                    79                     80                     81
                     A                      A                      A
 Frequencies --  1566.4095              1584.4489              1610.1021
 Red. masses --     3.5647                 2.1194                 8.1926
 Frc consts  --     5.1533                 3.1348                12.5134
 IR Inten    --     0.3565               182.1355               909.9009

                    82                     83                     84
                     A                      A                      A
 Frequencies --  1621.4925              1658.7503              1667.5619
 Red. masses --     9.3991                 5.0099                 6.2539
 Frc consts  --    14.5601                 8.1215                10.2463
 IR Inten    --   635.0228                14.5795               124.9436

                    85                     86                     87
                     A                      A                      A
 Frequencies --  1792.6649              3064.5696              3076.5893
 Red. masses --     8.6062                 1.0361                 1.0292
 Frc consts  --    16.2952                 5.7331                 5.7397
 IR Inten    --   207.7244                 8.0916                41.1463

                    88                     89                     90
                     A                      A                      A
 Frequencies --  3077.2145              3135.4596              3147.8872
 Red. masses --     1.0292                 1.1027                 1.1019
 Frc consts  --     5.7420                 6.3874                 6.4332
 IR Inten    --    32.2528                13.7795                 9.4825

                    91                     92                     93
                     A                      A                      A
 Frequencies --  3153.3482              3154.0848              3180.9107
 Red. masses --     1.1077                 1.1078                 1.1075
 Frc consts  --     6.4897                 6.4930                 6.6022
 IR Inten    --    17.0617                20.1642                20.2129

                    94                     95                     96
                     A                      A                      A
 Frequencies --  3181.6193              3199.6878              3219.0333
 Red. masses --     1.1075                 1.0890                 1.0914
 Frc consts  --     6.6054                 6.5692                 6.6634
 IR Inten    --    23.8905                14.5342                 3.7167

                    97                     98                     99
                     A                      A                      A
 Frequencies --  3227.1829              3280.0217              3617.6196
 Red. masses --     1.0940                 1.0923                 1.0768
 Frc consts  --     6.7129                 6.9235                 8.3031
 IR Inten    --     4.6554                 6.0253                14.9494

 - Thermochemistry -
 -------------------
 Temperature   298.150 Kelvin.  Pressure   1.00000 Atm.
 Atom     1 has atomic number  6 and mass  12.00000

 Molecular mass:   290.10151 amu.
 Principal axes and moments of inertia in atomic units:
                           1         2         3
     Eigenvalues --  3329.55759********************
           X            0.99996  -0.00873  -0.00220
           Y            0.00874   0.99993   0.00796
           Z            0.00213  -0.00798   0.99997
 This molecule is an asymmetric top.
 Rotational symmetry number  1.
 Warning -- assumption of classical behavior for rotation
           may cause significant error
 Rotational temperatures (Kelvin)      0.02601     0.00679     0.00581
 Rotational constants (GHZ):           0.54204     0.14149     0.12104
 Zero-point vibrational energy     713259.5 (Joules/Mol)
                                  170.47311 (Kcal/Mol)
 Warning -- explicit consideration of  29 degrees of freedom as
           vibrations may cause significant error
 Vibrational temperatures:     16.08    42.84    52.32    62.81    88.20
          (Kelvin)            137.12   142.77   158.86   206.58   226.69
                              230.77   240.99   281.11   292.71   332.69
                              357.21   368.92   380.22   428.40   493.64
                              514.68   594.66   660.74   672.12   758.92
                              772.22   774.19   842.99   874.64   899.91
                              909.98   942.55   983.79  1002.75  1062.11
                             1078.18  1111.92  1155.41  1171.16  1190.75
                             1239.60  1311.26  1322.08  1408.80  1420.22
                             1435.35  1437.72  1465.14  1481.44  1512.86
                             1533.27  1603.41  1628.14  1667.24  1704.04
                             1704.70  1714.72  1735.23  1765.95  1784.44
                             1816.40  1866.95  1897.33  1929.22  1969.43
                             2028.93  2040.41  2054.89  2102.32  2118.59
                             2157.56  2174.61  2175.39  2183.42  2184.64
                             2189.40  2193.07  2214.67  2253.71  2279.67
                             2316.57  2332.96  2386.57  2399.25  2579.24
                             4409.23  4426.52  4427.42  4511.22  4529.10
                             4536.96  4538.02  4576.62  4577.63  4603.63
                             4631.47  4643.19  4719.21  5204.94

 Zero-point correction=                           0.271666 (Hartree/Particle)
 Thermal correction to Energy=                    0.291383
 Thermal correction to Enthalpy=                  0.292327
 Thermal correction to Gibbs Free Energy=         0.220126
 Sum of electronic and zero-point Energies=          -1023.471381
 Sum of electronic and thermal Energies=             -1023.451664
 Sum of electronic and thermal Enthalpies=           -1023.450720
 Sum of electronic and thermal Free Energies=        -1023.522921

                     E (Thermal)             CV                S
                      KCal/Mol        Cal/Mol-Kelvin    Cal/Mol-Kelvin
 Total                  182.845             71.601            151.959
 Electronic               0.000              0.000              0.000
 Translational            0.889              2.981             42.893
 Rotational               0.889              2.981             34.803
 Vibrational            181.068             65.639             74.263
 Vibration     1          0.593              1.987              7.790
 Vibration     2          0.594              1.984              5.844
 Vibration     3          0.594              1.982              5.448
 Vibration     4          0.595              1.980              5.086
 Vibration     5          0.597              1.973              4.415
 Vibration     6          0.603              1.953              3.548
 Vibration     7          0.604              1.950              3.469
 Vibration     8          0.606              1.941              3.262
 Vibration     9          0.616              1.910              2.756
 Vibration    10          0.621              1.894              2.579
 Vibration    11          0.622              1.891              2.545
 Vibration    12          0.624              1.882              2.463
 Vibration    13          0.636              1.846              2.176
 Vibration    14          0.639              1.835              2.102
 Vibration    15          0.653              1.793              1.869
 Vibration    16          0.662              1.766              1.743
 Vibration    17          0.666              1.752              1.686
 Vibration    18          0.671              1.738              1.633
 Vibration    19          0.691              1.678              1.429
 Vibration    20          0.722              1.589              1.198
 Vibration    21          0.733              1.559              1.132
 Vibration    22          0.777              1.441              0.915
 Vibration    23          0.817              1.340              0.768
 Vibration    24          0.824              1.323              0.746
 Vibration    25          0.882              1.189              0.593
 Vibration    26          0.892              1.169              0.572
 Vibration    27          0.893              1.166              0.569
 Vibration    28          0.943              1.062              0.475
 Vibration    29          0.967              1.015              0.436

 Optimization completed on the basis of negligible forces.
    -- Stationary point found.
 Normal termination of Gaussian 09 at Tue Sep 28 22:55:09 2021.
 Gaussian 09:  AM64L-G09RevA.02 11-Jun-2009

 ----------------------------------------------------------------------
 #p TD(NStates=10, Root=1) b3lyp/6-31G* volume pop=NPA density=current
 Geom=AllCheck Guess=Read
 ----------------------------------------------------------------------

 COc1nc(Oc2cccc(c2)NC(=O)C)nc(n1)OC_conf_0
 -----------------------------------------
 Redundant internal coordinates taken from checkpoint file:
 C13H14N4O4_0cc9_conf_0.chk
 Charge =  0 Multiplicity = 1

                         Standard orientation:
 ---------------------------------------------------------------------
 Center     Atomic      Atomic             Coordinates (Angstroms)
 Number     Number       Type             X           Y           Z
 ---------------------------------------------------------------------
      1          6           0        5.273669   -1.701390    1.177210
      2          8           0        4.976980   -0.386685    0.681508
      3          6           0        3.717212   -0.132291    0.331044
      4          7           0        2.800224   -1.088854    0.455595
      5          6           0        1.576345   -0.704664    0.067106
      6          8           0        0.661767   -1.684162    0.184111
      7          6           0       -0.678690   -1.507878   -0.170811
      8          6           0       -1.218465   -2.460171   -1.030190
      9          6           0       -2.578327   -2.386771   -1.329782
     10          6           0       -3.391985   -1.390238   -0.793100
     11          6           0       -2.826767   -0.441355    0.073804
     12          6           0       -1.462732   -0.509593    0.393697
     13          7           0       -3.564619    0.607955    0.661449
     14          6           0       -4.909223    0.893711    0.547980
     15          8           0       -5.700033    0.228546   -0.104493
     16          6           0       -5.352289    2.139616    1.304051
     17          7           0        1.226201    0.485606   -0.397559
     18          6           0        2.252489    1.349717   -0.468040
     19          7           0        3.515265    1.113501   -0.125274
     20          8           0        1.915904    2.552565   -0.933187
     21          6           0        2.960221    3.530851   -1.050684
     22          1           0        6.342500   -1.685401    1.393104
     23          1           0        5.043505   -2.460672    0.425587
     24          1           0        4.700733   -1.913330    2.083543
     25          1           0       -0.579885   -3.234907   -1.440488
     26          1           0       -3.017547   -3.121678   -1.998457
     27          1           0       -4.444570   -1.334225   -1.029207
     28          1           0       -1.012481    0.219582    1.058254
     29          1           0       -3.019436    1.244144    1.226301
     30          1           0       -4.579641    2.577002    1.944305
     31          1           0       -6.220291    1.883131    1.917795
     32          1           0       -5.676069    2.894017    0.579359
     33          1           0        2.468995    4.419950   -1.447654
     34          1           0        3.740745    3.185227   -1.733196
     35          1           0        3.408261    3.740310   -0.075946
 ---------------------------------------------------------------------

 SCF Done:  E(RB3LYP) =  -1023.74304708     A.U. after    1 cycles

 Excitation energies and oscillator strengths:

 Excited State   1:      Singlet-A      4.8044 eV  258.06 nm  f=0.0194  <S**2>=0.000
      75 -> 77        -0.12295
      75 -> 78         0.11630
      75 -> 79         0.18040
      76 -> 77         0.60738
      76 -> 79         0.20047
      76 -> 80        -0.12028
 This state for optimization and/or second-order correction.
 Total Energy, E(TD-HF/TD-KS) =  -1023.56648935
 Copying the excited state density for this state as the 1-particle RhoCI density.

 Excited State   2:      Singlet-A      5.0745 eV  244.33 nm  f=0.0176  <S**2>=0.000
      75 -> 77        -0.17170
      76 -> 77        -0.18660
      76 -> 78         0.60780
      76 -> 80        -0.19031

 Excited State   3:      Singlet-A      5.1298 eV  241.70 nm  f=0.0022  <S**2>=0.000
      74 -> 77        -0.24405
      74 -> 78         0.26946
      74 -> 79         0.49780
      74 -> 80         0.13528
      74 -> 81         0.19372
      76 -> 78        -0.12846
      76 -> 79         0.14374

 Excited State   4:      Singlet-A      5.1528 eV  240.62 nm  f=0.0247  <S**2>=0.000
      74 -> 79        -0.17776
      75 -> 77        -0.32039
      75 -> 79         0.12376
      76 -> 77        -0.25309
      76 -> 78        -0.22483
      76 -> 79         0.32621
      76 -> 80        -0.29843

 Excited State   5:      Singlet-A      5.3179 eV  233.14 nm  f=0.2217  <S**2>=0.000
      70 -> 77        -0.15068
      72 -> 77        -0.13341
      75 -> 77         0.51976
      75 -> 79         0.21683
      75 -> 80         0.16047
      76 -> 79         0.25785
      76 -> 80        -0.13621

 Excited State   6:      Singlet-A      5.3830 eV  230.33 nm  f=0.2626  <S**2>=0.000
      75 -> 78        -0.29585
      75 -> 79        -0.13904
      76 -> 78         0.19592
      76 -> 79         0.45787
      76 -> 80         0.35287

 Excited State   7:      Singlet-A      5.4388 eV  227.96 nm  f=0.0214  <S**2>=0.000
      70 -> 78        -0.17118
      72 -> 78        -0.10292
      75 -> 78         0.53282
      75 -> 79        -0.31247
      76 -> 79         0.15529
      76 -> 80         0.13258

 Excited State   8:      Singlet-A      5.7030 eV  217.40 nm  f=0.0133  <S**2>=0.000
      70 -> 77        -0.21792
      71 -> 77         0.55147
      71 -> 78         0.25294
      71 -> 80         0.13986
      72 -> 78         0.15348

 Excited State   9:      Singlet-A      5.8096 eV  213.41 nm  f=0.0464  <S**2>=0.000
      70 -> 77         0.23829
      71 -> 77         0.23889
      71 -> 78        -0.14364
      71 -> 79         0.11737
      72 -> 77         0.35084
      72 -> 78        -0.16669
      72 -> 79         0.13427
      73 -> 77         0.11676
      74 -> 77         0.30098
      74 -> 79         0.13312
      75 -> 77         0.14741

 Excited State  10:      Singlet-A      5.8297 eV  212.68 nm  f=0.0048  <S**2>=0.000
      70 -> 77         0.10426
      71 -> 77        -0.22642
      71 -> 78         0.23367
      71 -> 79        -0.15370
      72 -> 77         0.14874
      72 -> 78         0.35708
      72 -> 79        -0.13405
      73 -> 77        -0.16366
      74 -> 77         0.32354
      74 -> 78         0.12300
      74 -> 79         0.11100

 The electronic state is 1-A.
 Alpha  occ. eigenvalues --  -19.20722 -19.20028 -19.19989 -19.11863 -14.38070
 Alpha  occ. eigenvalues --  -14.33755 -14.33684 -14.33681 -10.33191 -10.32770
 Alpha  occ. eigenvalues --  -10.32738 -10.29802 -10.25567 -10.24474 -10.24473
 Alpha  occ. eigenvalues --  -10.24131 -10.19839 -10.19644 -10.19328 -10.18863
 Alpha  occ. eigenvalues --  -10.18278  -1.11674  -1.10222  -1.09755  -1.03901
 Alpha  occ. eigenvalues --   -0.99972  -0.94447  -0.90306  -0.90060  -0.85079
 Alpha  occ. eigenvalues --   -0.76921  -0.75648  -0.74518  -0.73522  -0.72801
 Alpha  occ. eigenvalues --   -0.67779  -0.63763  -0.63206  -0.61825  -0.59222
 Alpha  occ. eigenvalues --   -0.57942  -0.55190  -0.53746  -0.51262  -0.51162
 Alpha  occ. eigenvalues --   -0.50478  -0.49677  -0.47900  -0.47349  -0.46769
 Alpha  occ. eigenvalues --   -0.45516  -0.44765  -0.44520  -0.43787  -0.43330
 Alpha  occ. eigenvalues --   -0.41832  -0.40944  -0.40645  -0.39525  -0.39377
 Alpha  occ. eigenvalues --   -0.38972  -0.37652  -0.37228  -0.36326  -0.36153
 Alpha  occ. eigenvalues --   -0.35856  -0.35280  -0.31426  -0.30168  -0.28334
 Alpha  occ. eigenvalues --   -0.28087  -0.28032  -0.27585  -0.25352  -0.24204
 Alpha  occ. eigenvalues --   -0.22153
 Alpha virt. eigenvalues --   -0.02205  -0.01564  -0.01175   0.00449   0.04649
 Alpha virt. eigenvalues --    0.06215   0.09654   0.11025   0.11454   0.12367
 Alpha virt. eigenvalues --    0.12421   0.12441   0.13720   0.14583   0.15196

 Mulliken atomic charges:
              1
     1  C   -0.193359
     2  O   -0.474616
     3  C    0.629419
     4  N   -0.534325
     5  C    0.566350
     6  O   -0.538264
     7  C    0.374133
     8  C   -0.116446
     9  C   -0.160700
    10  C   -0.142664
    11  C    0.357142
    12  C   -0.191237
    13  N   -0.661956
    14  C    0.605520
    15  O   -0.442287
    16  C   -0.547866
    17  N   -0.566222
    18  C    0.656213
    19  N   -0.563340
    20  O   -0.477538
    21  C   -0.198895
    22  H    0.148819
    23  H    0.155787
    24  H    0.154438
    25  H    0.189307
    26  H    0.163022
    27  H    0.203955
    28  H    0.179023
    29  H    0.370035
    30  H    0.161171
    31  H    0.208635
    32  H    0.210090
    33  H    0.146350
    34  H    0.166796
    35  H    0.163511
 Sum of Mulliken atomic charges =  -0.00000

 Dipole moment (field-independent basis, Debye):
    X=             -8.3881    Y=              0.7921    Z=              1.6717  Tot=              8.5897
 Quadrupole moment (field-independent basis, Debye-Ang):
   XX=           -121.6782   YY=           -104.0763   ZZ=           -113.1224
   XY=            -10.4900   XZ=             -8.6338   YZ=              8.6797

 Summary of Natural Population Analysis:

                                       Natural Population
                Natural  -----------------------------------------------
    Atom  No    Charge         Core      Valence    Rydberg      Total
 -----------------------------------------------------------------------
      C    1   -0.31435      1.99942     4.30147    0.01346     6.31435
      O    2   -0.51991      1.99972     6.50811    0.01208     8.51991
      C    3    0.70649      1.99922     3.25711    0.03718     5.29351
      N    4   -0.61266      1.99928     5.59294    0.02044     7.61266
      C    5    0.62658      1.99916     3.33773    0.03653     5.37342
      O    6   -0.51057      1.99968     6.49881    0.01208     8.51057
      C    7    0.32497      1.99874     3.65194    0.02435     5.67503
      C    8   -0.14652      1.99900     4.13270    0.01482     6.14652
      C    9   -0.23367      1.99916     4.21885    0.01567     6.23367
      C   10   -0.24702      1.99906     4.23269    0.01526     6.24702
      C   11    0.20875      1.99898     3.77241    0.01986     5.79125
      C   12   -0.26901      1.99896     4.25443    0.01562     6.26901
      N   13   -0.52498      1.99933     5.51656    0.00909     7.52498
      C   14    0.68677      1.99942     3.27549    0.03832     5.31323
      O   15   -0.55358      1.99979     6.53534    0.01845     8.55358
      C   16   -0.77102      1.99937     4.76435    0.00729     6.77102
      N   17   -0.66731      1.99925     5.64692    0.02114     7.66731
      C   18    0.76259      1.99922     3.20091    0.03728     5.23741
      N   19   -0.66818      1.99926     5.64670    0.02222     7.66818
      O   20   -0.52189      1.99972     6.51038    0.01180     8.52189
      C   21   -0.31661      1.99941     4.30368    0.01352     6.31661
      H   22    0.21312      0.00000     0.78621    0.00068     0.78688
      H   23    0.21142      0.00000     0.78659    0.00199     0.78858
      H   24    0.21058      0.00000     0.78742    0.00199     0.78942
      H   25    0.26439      0.00000     0.73473    0.00088     0.73561
      H   26    0.25214      0.00000     0.74718    0.00068     0.74786
      H   27    0.27620      0.00000     0.72216    0.00164     0.72380
      H   28    0.26512      0.00000     0.73378    0.00110     0.73488
      H   29    0.44002      0.00000     0.55841    0.00157     0.55998
      H   30    0.23417      0.00000     0.76510    0.00072     0.76583
      H   31    0.27380      0.00000     0.72541    0.00078     0.72620
      H   32    0.27351      0.00000     0.72579    0.00069     0.72649
      H   33    0.21148      0.00000     0.78782    0.00070     0.78852
      H   34    0.21856      0.00000     0.77991    0.00152     0.78144
      H   35    0.21658      0.00000     0.78188    0.00154     0.78342
 =======================================================================
   * Total *    0.00000     41.98514   109.58192    0.43294   152.00000

 Normal termination of Gaussian 09 at Wed Sep 29 04:54:46 2021.
