 Gaussian 09, Revision A.02,

 -----------------------------------
 #p opt b3lyp/6-31G* scf=(xqc,tight)
 -----------------------------------

 -----------------------------
 CCc1ccc2c(c1)ccc(c2)OC_conf_0
 -----------------------------
 Symbolic Z-matrix:
 Charge =  0 Multiplicity = 1

 SCF Done:  E(RB3LYP) =  -579.040986965     A.U. after   14 cycles
 SCF Done:  E(RB3LYP) =  -579.045172858     A.U. after   12 cycles
 SCF Done:  E(RB3LYP) =  -579.045480991     A.U. after   11 cycles
 SCF Done:  E(RB3LYP) =  -579.045549341     A.U. after   11 cycles
 SCF Done:  E(RB3LYP) =  -579.045614094     A.U. after   11 cycles
 SCF Done:  E(RB3LYP) =  -579.045641200     A.U. after   10 cycles
 SCF Done:  E(RB3LYP) =  -579.045654090     A.U. after   10 cycles
 SCF Done:  E(RB3LYP) =  -579.045655276     A.U. after    9 cycles
 SCF Done:  E(RB3LYP) =  -579.045655210     A.U. after    7 cycles
 Optimization completed.
    -- Stationary point found.
 Normal termination of Gaussian 09 at Thu Sep 30 22:00:06 2021.

 ----------------------------------------------------------------------
 #p freq b3lyp/6-31G* volume NMR pop=NPA density=current Geom=AllCheck
 Guess=Read
 ----------------------------------------------------------------------

 CCc1ccc2c(c1)ccc(c2)OC_conf_0
 -----------------------------
 Redundant internal coordinates taken from checkpoint file:
 C13H14O_908c_conf_0.chk
 Charge =  0 Multiplicity = 1

 SCF Done:  E(RB3LYP) =  -579.045655210     A.U. after    1 cycles

  1  C    Isotropic =   170.1747   Anisotropy =    27.2788

  2  C    Isotropic =   157.2138   Anisotropy =    27.2658

  3  C    Isotropic =    57.7949   Anisotropy =   175.5101

  4  C    Isotropic =    68.6000   Anisotropy =   151.7905

  5  C    Isotropic =    68.5098   Anisotropy =   140.5419

  6  C    Isotropic =    63.5076   Anisotropy =   194.1512

  7  C    Isotropic =    67.9442   Anisotropy =   189.4429

  8  C    Isotropic =    68.6546   Anisotropy =   124.2064

  9  C    Isotropic =    66.6577   Anisotropy =   143.2836

 10  C    Isotropic =    84.8874   Anisotropy =   144.6398

 11  C    Isotropic =    41.4992   Anisotropy =   121.8363

 12  C    Isotropic =    82.3603   Anisotropy =   113.0984

 13  O    Isotropic =   241.4371   Anisotropy =    68.4940

 14  C    Isotropic =   137.3547   Anisotropy =    65.0069

 15  H    Isotropic =    30.8268   Anisotropy =    10.4283

 16  H    Isotropic =    31.0373   Anisotropy =     6.8173

 17  H    Isotropic =    30.8607   Anisotropy =     7.2846

 18  H    Isotropic =    29.6407   Anisotropy =     6.4636

 19  H    Isotropic =    29.3426   Anisotropy =     6.6932

 20  H    Isotropic =    24.9356   Anisotropy =     7.6809

 21  H    Isotropic =    24.7184   Anisotropy =     7.3441

 22  H    Isotropic =    24.8989   Anisotropy =     8.9478

 23  H    Isotropic =    24.6684   Anisotropy =     7.5612

 24  H    Isotropic =    25.3893   Anisotropy =     7.9958

 25  H    Isotropic =    25.2275   Anisotropy =     8.0605

 26  H    Isotropic =    28.2355   Anisotropy =     8.2727

 27  H    Isotropic =    28.5255   Anisotropy =     8.3066

 28  H    Isotropic =    28.5243   Anisotropy =     8.3160

  Exact polarizability: 237.185   8.454 136.958  -6.144   1.911  65.572
 Approx polarizability: 343.474  15.661 246.631 -15.244   4.599  97.150

                     1                      2                      3
                     A                      A                      A
 Frequencies --    42.7921                56.7439                87.1756
 Red. masses --     2.6844                 3.1876                 3.6655
 Frc consts  --     0.0029                 0.0060                 0.0164
 IR Inten    --     0.5019                 1.3194                 2.1094

                     4                      5                      6
                     A                      A                      A
 Frequencies --   159.0346               176.8661               185.5951
 Red. masses --     3.6532                 2.2067                 3.2788
 Frc consts  --     0.0544                 0.0407                 0.0665
 IR Inten    --     1.2333                 0.9932                 0.2663

                     7                      8                      9
                     A                      A                      A
 Frequencies --   228.5665               243.6308               283.3230
 Red. masses --     1.4452                 1.4276                 2.4705
 Frc consts  --     0.0445                 0.0499                 0.1168
 IR Inten    --     0.7992                 0.0478                 1.2248

                    10                     11                     12
                     A                      A                      A
 Frequencies --   307.2223               338.1178               407.9833
 Red. masses --     2.2615                 4.5355                 3.5748
 Frc consts  --     0.1258                 0.3055                 0.3506
 IR Inten    --     1.1987                 0.1645                 0.1312

                    13                     14                     15
                     A                      A                      A
 Frequencies --   416.3141               444.1869               488.7441
 Red. masses --     3.4629                 3.7948                 2.6608
 Frc consts  --     0.3536                 0.4411                 0.3745
 IR Inten    --     0.0361                 0.0303                 6.6899

                    16                     17                     18
                     A                      A                      A
 Frequencies --   519.8896               537.9060               585.7193
 Red. masses --     4.2632                 5.9838                 3.5842
 Frc consts  --     0.6789                 1.0201                 0.7245
 IR Inten    --     3.8603                 0.2608                 8.0703

                    19                     20                     21
                     A                      A                      A
 Frequencies --   607.3367               677.4064               695.7935
 Red. masses --     3.5812                 4.0479                 4.5885
 Frc consts  --     0.7783                 1.0944                 1.3088
 IR Inten    --     6.9459                 2.1376                 3.6638

                    22                     23                     24
                     A                      A                      A
 Frequencies --   761.7516               768.5098               795.8831
 Red. masses --     5.6339                 3.0677                 1.2543
 Frc consts  --     1.9261                 1.0675                 0.4681
 IR Inten    --     3.0500                 2.0193                 0.5842

                    25                     26                     27
                     A                      A                      A
 Frequencies --   817.3898               826.4864               831.5259
 Red. masses --     1.5339                 1.5450                 2.6181
 Frc consts  --     0.6038                 0.6218                 1.0666
 IR Inten    --    18.0374                 7.2019                 2.3301

                    28                     29                     30
                     A                      A                      A
 Frequencies --   887.3294               904.7188               929.1755
 Red. masses --     1.5453                 1.4304                 4.1175
 Frc consts  --     0.7169                 0.6898                 2.0945
 IR Inten    --    32.2066                14.1457                 8.7923

                    31                     32                     33
                     A                      A                      A
 Frequencies --   949.5063               967.4472               972.4394
 Red. masses --     1.3115                 1.3123                 3.2577
 Frc consts  --     0.6966                 0.7237                 1.8151
 IR Inten    --     1.2348                 0.2045                 0.1789

                    34                     35                     36
                     A                      A                      A
 Frequencies --   995.5373              1081.3081              1083.9255
 Red. masses --     2.4186                 3.1203                 1.9781
 Frc consts  --     1.4123                 2.1495                 1.3693
 IR Inten    --     0.2930                51.9269                 3.9583

                    37                     38                     39
                     A                      A                      A
 Frequencies --  1101.4835              1169.5658              1184.4105
 Red. masses --     1.5778                 1.6204                 1.2676
 Frc consts  --     1.1279                 1.3059                 1.0477
 IR Inten    --     4.6821                24.1111                 0.7000

                    40                     41                     42
                     A                      A                      A
 Frequencies --  1188.1438              1199.5901              1209.2764
 Red. masses --     1.4309                 1.6683                 1.3360
 Frc consts  --     1.1901                 1.4145                 1.1511
 IR Inten    --     9.4156                57.4417                39.0127

                    43                     44                     45
                     A                      A                      A
 Frequencies --  1218.8872              1275.2793              1296.3852
 Red. masses --     1.6660                 1.8415                 1.5942
 Frc consts  --     1.4583                 1.7645                 1.5786
 IR Inten    --     6.4624                33.7305                 7.0552

                    46                     47                     48
                     A                      A                      A
 Frequencies --  1300.9165              1315.7687              1369.4059
 Red. masses --     1.5345                 3.0271                 1.5023
 Frc consts  --     1.5301                 3.0877                 1.6598
 IR Inten    --     3.5868               307.4179                11.3089

                    49                     50                     51
                     A                      A                      A
 Frequencies --  1390.1450              1413.1230              1427.4050
 Red. masses --     2.0856                 3.3275                 4.4411
 Frc consts  --     2.3747                 3.9149                 5.3313
 IR Inten    --     4.6545                10.5141                 6.0388

                    52                     53                     54
                     A                      A                      A
 Frequencies --  1436.7934              1463.0400              1501.3370
 Red. masses --     1.2519                 3.5322                 1.2385
 Frc consts  --     1.5227                 4.4546                 1.6448
 IR Inten    --     1.1398                 1.1262                19.1324

                    55                     56                     57
                     A                      A                      A
 Frequencies --  1515.9074              1522.5155              1526.9477
 Red. masses --     1.0797                 1.0484                 1.0449
 Frc consts  --     1.4618                 1.4319                 1.4354
 IR Inten    --     1.9652                 4.9795                 6.3427

                    58                     59                     60
                     A                      A                      A
 Frequencies --  1532.8207              1536.6442              1541.3364
 Red. masses --     1.3012                 1.1108                 1.5880
 Frc consts  --     1.8012                 1.5454                 2.2228
 IR Inten    --    61.1540                 5.1610                 0.4648

                    61                     62                     63
                     A                      A                      A
 Frequencies --  1560.1742              1620.7010              1668.1151
 Red. masses --     3.3344                 6.8864                 5.6597
 Frc consts  --     4.7820                10.6573                 9.2788
 IR Inten    --    62.2024                 5.4509               100.6730

                    64                     65                     66
                     A                      A                      A
 Frequencies --  1692.5917              3023.3039              3035.8657
 Red. masses --     6.3101                 1.0350                 1.0626
 Frc consts  --    10.6510                 5.5736                 5.7700
 IR Inten    --    41.3531                75.6811                37.8902

                    67                     68                     69
                     A                      A                      A
 Frequencies --  3047.7880              3074.8718              3081.5786
 Red. masses --     1.0347                 1.1008                 1.1067
 Frc consts  --     5.6630                 6.1324                 6.1922
 IR Inten    --    39.4478                10.7598                46.4363

                    70                     71                     72
                     A                      A                      A
 Frequencies --  3115.8520              3121.6949              3154.4798
 Red. masses --     1.1024                 1.1034                 1.0993
 Frc consts  --     6.3060                 6.3351                 6.4451
 IR Inten    --    53.8230                33.2345                31.0933

                    73                     74                     75
                     A                      A                      A
 Frequencies --  3166.1813              3170.8605              3182.3769
 Red. masses --     1.0896                 1.0861                 1.0890
 Frc consts  --     6.4359                 6.4341                 6.4982
 IR Inten    --    16.4704                 9.9223                16.9671

                    76                     77                     78
                     A                      A                      A
 Frequencies --  3190.6873              3203.3019              3227.8246
 Red. masses --     1.0948                 1.0905                 1.0911
 Frc consts  --     6.5668                 6.5926                 6.6980
 IR Inten    --    24.5613                 9.0724                14.6982

 - Thermochemistry -
 -------------------
 Temperature   298.150 Kelvin.  Pressure   1.00000 Atm.
 Atom     1 has atomic number  6 and mass  12.00000

 Molecular mass:   186.10447 amu.
 Principal axes and moments of inertia in atomic units:
                           1         2         3
     Eigenvalues --   781.864535613.675596207.46641
           X            0.99999   0.00382   0.00344
           Y           -0.00382   0.99999  -0.00033
           Z           -0.00345   0.00031   0.99999
 This molecule is an asymmetric top.
 Rotational symmetry number  1.
 Warning -- assumption of classical behavior for rotation
           may cause significant error
 Rotational temperatures (Kelvin)      0.11078     0.01543     0.01395
 Rotational constants (GHZ):           2.30825     0.32149     0.29074
 Zero-point vibrational energy     622289.4 (Joules/Mol)
                                  148.73073 (Kcal/Mol)
 Warning -- explicit consideration of  19 degrees of freedom as
           vibrations may cause significant error
 Vibrational temperatures:     61.57    81.64   125.43   228.81   254.47
          (Kelvin)            267.03   328.86   350.53   407.64   442.02
                              486.48   587.00   598.98   639.09   703.19
                              748.00   773.93   842.72   873.82   974.64
                             1001.09  1095.99  1105.71  1145.10  1176.04
                             1189.13  1196.38  1276.67  1301.69  1336.87
                             1366.13  1391.94  1399.12  1432.35  1555.76
                             1559.53  1584.79  1682.74  1704.10  1709.47
                             1725.94  1739.88  1753.70  1834.84  1865.21
                             1871.73  1893.10  1970.27  2000.11  2033.17
                             2053.71  2067.22  2104.99  2160.09  2181.05
                             2190.56  2196.93  2205.38  2210.89  2217.64
                             2244.74  2331.82  2400.04  2435.26  4349.85
                             4367.93  4385.08  4424.05  4433.70  4483.01
                             4491.42  4538.59  4555.42  4562.16  4578.72
                             4590.68  4608.83  4644.11

 Zero-point correction=                           0.237018 (Hartree/Particle)
 Thermal correction to Energy=                    0.249500
 Thermal correction to Enthalpy=                  0.250444
 Thermal correction to Gibbs Free Energy=         0.197918
 Sum of electronic and zero-point Energies=           -578.808638
 Sum of electronic and thermal Energies=              -578.796155
 Sum of electronic and thermal Enthalpies=            -578.795211
 Sum of electronic and thermal Free Energies=         -578.847738

                     E (Thermal)             CV                S
                      KCal/Mol        Cal/Mol-Kelvin    Cal/Mol-Kelvin
 Total                  156.564             48.742            110.552
 Electronic               0.000              0.000              0.000
 Translational            0.889              2.981             41.570
 Rotational               0.889              2.981             31.677
 Vibrational            154.786             42.781             37.305
 Vibration     1          0.595              1.980              5.125
 Vibration     2          0.596              1.975              4.567
 Vibration     3          0.601              1.958              3.722
 Vibration     4          0.621              1.892              2.561
 Vibration     5          0.628              1.871              2.361
 Vibration     6          0.632              1.860              2.271
 Vibration     7          0.651              1.797              1.890
 Vibration     8          0.659              1.773              1.776
 Vibration     9          0.682              1.705              1.514
 Vibration    10          0.697              1.660              1.377
 Vibration    11          0.718              1.599              1.221
 Vibration    12          0.773              1.453              0.934
 Vibration    13          0.780              1.435              0.905
 Vibration    14          0.804              1.374              0.814
 Vibration    15          0.845              1.275              0.687
 Vibration    16          0.875              1.206              0.610
 Vibration    17          0.893              1.166              0.570
 Vibration    18          0.943              1.062              0.475
 Vibration    19          0.966              1.016              0.437

 Optimization completed.
    -- Stationary point found.
 Normal termination of Gaussian 09 at Thu Sep 30 22:56:23 2021.
 Gaussian 09:  AM64L-G09RevA.02 11-Jun-2009

 ----------------------------------------------------------------------
 #p TD(NStates=10, Root=1) b3lyp/6-31G* volume pop=NPA density=current
 Geom=AllCheck Guess=Read
 ----------------------------------------------------------------------

 CCc1ccc2c(c1)ccc(c2)OC_conf_0
 -----------------------------
 Redundant internal coordinates taken from checkpoint file:
 C13H14O_908c_conf_0.chk
 Charge =  0 Multiplicity = 1

                         Standard orientation:
 ---------------------------------------------------------------------
 Center     Atomic      Atomic             Coordinates (Angstroms)
 Number     Number       Type             X           Y           Z
 ---------------------------------------------------------------------
      1          6           0        4.740998   -0.332288    0.940461
      2          6           0        3.998289   -0.442247   -0.403228
      3          6           0        2.540627   -0.043930   -0.311996
      4          6           0        2.181351    1.333068   -0.233380
      5          6           0        0.870615    1.729627   -0.124748
      6          6           0       -0.182275    0.772007   -0.085220
      7          6           0        0.164939   -0.616428   -0.163771
      8          6           0        1.533134   -0.984754   -0.277316
      9          6           0       -0.881135   -1.571037   -0.128037
     10          6           0       -2.202500   -1.191918   -0.019972
     11          6           0       -2.539211    0.184744    0.057056
     12          6           0       -1.541740    1.143006    0.023881
     13          8           0       -3.821953    0.647802    0.165403
     14          6           0       -4.883064   -0.291442    0.204621
     15          1           0        5.793789   -0.617538    0.830682
     16          1           0        4.285975   -0.986596    1.692368
     17          1           0        4.707855    0.691878    1.329263
     18          1           0        4.071764   -1.472245   -0.773349
     19          1           0        4.505586    0.190418   -1.144487
     20          1           0        2.968532    2.083701   -0.266621
     21          1           0        0.619330    2.786434   -0.071823
     22          1           0        1.779606   -2.043581   -0.340552
     23          1           0       -0.629961   -2.627608   -0.187522
     24          1           0       -2.976231   -1.950836    0.004813
     25          1           0       -1.820524    2.191158    0.083765
     26          1           0       -5.798552    0.297145    0.290758
     27          1           0       -4.803464   -0.960881    1.071684
     28          1           0       -4.928254   -0.894320   -0.712305
 ---------------------------------------------------------------------

 SCF Done:  E(RB3LYP) =  -579.045655210     A.U. after    1 cycles

 Excitation energies and oscillator strengths:

 Excited State   1:      Singlet-A      4.0321 eV  307.49 nm  f=0.0578  <S**2>=0.000
      49 -> 51         0.12734
      49 -> 52         0.16179
      50 -> 51         0.65701
      50 -> 52        -0.15080
 This state for optimization and/or second-order correction.
 Total Energy, E(TD-HF/TD-KS) =  -578.897477238
 Copying the excited state density for this state as the 1-particle RhoCI density.

 Excited State   2:      Singlet-A      4.5062 eV  275.14 nm  f=0.0106  <S**2>=0.000
      49 -> 51         0.49916
      50 -> 51        -0.20462
      50 -> 52        -0.45042

 Excited State   3:      Singlet-A      5.5178 eV  224.70 nm  f=0.2553  <S**2>=0.000
      48 -> 51         0.45672
      49 -> 51        -0.24851
      50 -> 52        -0.24004
      50 -> 53         0.40477

 Excited State   4:      Singlet-A      5.7158 eV  216.91 nm  f=1.1182  <S**2>=0.000
      48 -> 51         0.15592
      49 -> 51         0.37666
      49 -> 52         0.16183
      50 -> 52         0.44471
      50 -> 53         0.31100

 Excited State   5:      Singlet-A      5.8776 eV  210.94 nm  f=0.0454  <S**2>=0.000
      47 -> 51        -0.16466
      48 -> 51         0.29149
      48 -> 52        -0.19449
      49 -> 52         0.41362
      49 -> 53        -0.16374
      50 -> 53        -0.35014

 Excited State   6:      Singlet-A      6.1594 eV  201.29 nm  f=0.2918  <S**2>=0.000
      48 -> 51        -0.30365
      48 -> 52         0.13203
      49 -> 51        -0.15052
      49 -> 52         0.49152
      49 -> 53         0.21477
      50 -> 51        -0.10314
      50 -> 53         0.19503

 Excited State   7:      Singlet-A      6.4360 eV  192.64 nm  f=0.0496  <S**2>=0.000
      47 -> 51        -0.31688
      48 -> 51         0.23615
      48 -> 52         0.22410
      49 -> 53         0.50839
      50 -> 53        -0.12180

 Excited State   8:      Singlet-A      6.6189 eV  187.32 nm  f=0.0145  <S**2>=0.000
      47 -> 51         0.51658
      48 -> 51         0.14832
      48 -> 52         0.36419
      50 -> 53        -0.22740

 Excited State   9:      Singlet-A      6.6992 eV  185.07 nm  f=0.0001  <S**2>=0.000
      46 -> 51         0.69041

 Excited State  10:      Singlet-A      6.9759 eV  177.73 nm  f=0.0006  <S**2>=0.000
      45 -> 51         0.68519

 The electronic state is 1-A.
 Alpha  occ. eigenvalues --  -19.17433 -10.24386 -10.24022 -10.19146 -10.18974
 Alpha  occ. eigenvalues --  -10.18870 -10.18777 -10.18703 -10.18466 -10.18288
 Alpha  occ. eigenvalues --  -10.18220 -10.18086 -10.17733 -10.17452  -1.05984
 Alpha  occ. eigenvalues --   -0.86533  -0.82036  -0.77421  -0.76427  -0.72462
 Alpha  occ. eigenvalues --   -0.72384  -0.68305  -0.62920  -0.61638  -0.59127
 Alpha  occ. eigenvalues --   -0.57581  -0.52701  -0.50558  -0.49364  -0.46619
 Alpha  occ. eigenvalues --   -0.46247  -0.45116  -0.44122  -0.42989  -0.41795
 Alpha  occ. eigenvalues --   -0.41084  -0.39806  -0.39027  -0.38181  -0.37850
 Alpha  occ. eigenvalues --   -0.36462  -0.34572  -0.34037  -0.33187  -0.32586
 Alpha  occ. eigenvalues --   -0.31717  -0.29408  -0.26682  -0.22639  -0.19538
 Alpha virt. eigenvalues --   -0.03086   0.00452   0.04030   0.09414   0.09883
 Alpha virt. eigenvalues --    0.10932   0.11491   0.12171   0.13449   0.14447
 Alpha virt. eigenvalues --    0.15066   0.15655   0.15908   0.16774   0.17637

 Mulliken atomic charges:
              1
     1  C   -0.434419
     2  C   -0.343399
     3  C    0.203004
     4  C   -0.208758
     5  C   -0.207193
     6  C    0.143901
     7  C    0.163902
     8  C   -0.287933
     9  C   -0.220120
    10  C   -0.219181
    11  C    0.386984
    12  C   -0.260726
    13  O   -0.468754
    14  C   -0.223568
    15  H    0.142792
    16  H    0.151661
    17  H    0.153425
    18  H    0.141500
    19  H    0.149498
    20  H    0.107522
    21  H    0.117220
    22  H    0.114872
    23  H    0.123696
    24  H    0.117484
    25  H    0.139549
    26  H    0.177086
    27  H    0.169966
    28  H    0.169988
 Sum of Mulliken atomic charges =  -0.00000

 Dipole moment (field-independent basis, Debye):
    X=             -2.1134    Y=             -1.0497    Z=              0.1749  Tot=              2.3662
 Quadrupole moment (field-independent basis, Debye-Ang):
   XX=            -61.5059   YY=            -78.8817   ZZ=            -86.5886
   XY=              2.8539   XZ=             -1.2337   YZ=              0.1546

 Summary of Natural Population Analysis:

                                       Natural Population
                Natural  -----------------------------------------------
    Atom  No    Charge         Core      Valence    Rydberg      Total
 -----------------------------------------------------------------------
      C    1   -0.66402      1.99944     4.65746    0.00711     6.66402
      C    2   -0.47311      1.99929     4.46226    0.01156     6.47311
      C    3    0.03476      1.99903     3.94938    0.01682     5.96524
      C    4   -0.29491      1.99905     4.28046    0.01540     6.29491
      C    5   -0.22720      1.99906     4.21230    0.01583     6.22720
      C    6   -0.05436      1.99903     4.04014    0.01519     6.05436
      C    7   -0.04331      1.99903     4.02903    0.01525     6.04331
      C    8   -0.24324      1.99898     4.22982    0.01444     6.24324
      C    9   -0.21140      1.99907     4.19607    0.01626     6.21140
      C   10   -0.38316      1.99904     4.36925    0.01486     6.38316
      C   11    0.36385      1.99879     3.61489    0.02248     5.63615
      C   12   -0.24529      1.99900     4.23018    0.01612     6.24529
      O   13   -0.45572      1.99975     6.44440    0.01157     8.45572
      C   14   -0.32232      1.99942     4.30896    0.01394     6.32232
      H   15    0.23022      0.00000     0.76862    0.00116     0.76978
      H   16    0.23046      0.00000     0.76839    0.00115     0.76954
      H   17    0.23090      0.00000     0.76795    0.00115     0.76910
      H   18    0.23704      0.00000     0.76135    0.00161     0.76296
      H   19    0.24486      0.00000     0.75349    0.00165     0.75514
      H   20    0.22662      0.00000     0.77242    0.00096     0.77338
      H   21    0.22719      0.00000     0.77168    0.00114     0.77281
      H   22    0.22490      0.00000     0.77376    0.00134     0.77510
      H   23    0.23073      0.00000     0.76813    0.00113     0.76927
      H   24    0.23137      0.00000     0.76778    0.00085     0.76863
      H   25    0.24214      0.00000     0.75626    0.00160     0.75786
      H   26    0.23158      0.00000     0.76789    0.00053     0.76842
      H   27    0.21570      0.00000     0.78238    0.00192     0.78430
      H   28    0.21570      0.00000     0.78239    0.00192     0.78430
 =======================================================================
   * Total *    0.00000     27.98798    71.78707    0.22495   100.00000

 Normal termination of Gaussian 09 at Fri Oct  1 02:45:24 2021.
