 Gaussian 09, Revision A.02,

 -----------------------------------
 #p opt b3lyp/6-31G* scf=(xqc,tight)
 -----------------------------------

 ---------------------------
 CC(Oc1cccc2c1cccc2)C_conf_0
 ---------------------------
 Symbolic Z-matrix:
 Charge =  0 Multiplicity = 1

 SCF Done:  E(RB3LYP) =  -579.046516426     A.U. after   14 cycles
 SCF Done:  E(RB3LYP) =  -579.050994164     A.U. after   12 cycles
 SCF Done:  E(RB3LYP) =  -579.051302058     A.U. after   11 cycles
 SCF Done:  E(RB3LYP) =  -579.051332931     A.U. after   11 cycles
 SCF Done:  E(RB3LYP) =  -579.051352519     A.U. after   10 cycles
 SCF Done:  E(RB3LYP) =  -579.051360062     A.U. after   10 cycles
 SCF Done:  E(RB3LYP) =  -579.051365146     A.U. after   10 cycles
 SCF Done:  E(RB3LYP) =  -579.051366534     A.U. after    9 cycles
 SCF Done:  E(RB3LYP) =  -579.051366873     A.U. after    8 cycles
 Optimization completed.
    -- Stationary point found.
 Normal termination of Gaussian 09 at Thu Sep 30 18:57:15 2021.

 ----------------------------------------------------------------------
 #p freq b3lyp/6-31G* volume NMR pop=NPA density=current Geom=AllCheck
 Guess=Read
 ----------------------------------------------------------------------

 CC(Oc1cccc2c1cccc2)C_conf_0
 ---------------------------
 Redundant internal coordinates taken from checkpoint file:
 C13H14O_5e91_conf_0.chk
 Charge =  0 Multiplicity = 1

 SCF Done:  E(RB3LYP) =  -579.051366873     A.U. after    1 cycles

  1  C    Isotropic =   166.4941   Anisotropy =    32.8697

  2  C    Isotropic =   122.5016   Anisotropy =    57.6124

  3  O    Isotropic =   196.9607   Anisotropy =    91.0922

  4  C    Isotropic =    43.1491   Anisotropy =   117.1636

  5  C    Isotropic =    91.3510   Anisotropy =   135.4523

  6  C    Isotropic =    70.1838   Anisotropy =   158.0508

  7  C    Isotropic =    76.0039   Anisotropy =   132.7487

  8  C    Isotropic =    62.0334   Anisotropy =   195.7028

  9  C    Isotropic =    70.4257   Anisotropy =   174.9433

 10  C    Isotropic =    71.9565   Anisotropy =   167.6003

 11  C    Isotropic =    71.9820   Anisotropy =   159.4394

 12  C    Isotropic =    70.0374   Anisotropy =   162.4737

 13  C    Isotropic =    68.5346   Anisotropy =   143.9695

 14  C    Isotropic =   170.3710   Anisotropy =    28.2717

 15  H    Isotropic =    30.5121   Anisotropy =     8.1379

 16  H    Isotropic =    30.5606   Anisotropy =     6.7532

 17  H    Isotropic =    30.9939   Anisotropy =     8.9650

 18  H    Isotropic =    27.4351   Anisotropy =     3.3920

 19  H    Isotropic =    25.7537   Anisotropy =     9.1244

 20  H    Isotropic =    24.9657   Anisotropy =     5.3215

 21  H    Isotropic =    25.0678   Anisotropy =     5.9760

 22  H    Isotropic =    23.9050   Anisotropy =    10.9050

 23  H    Isotropic =    24.8405   Anisotropy =     5.7785

 24  H    Isotropic =    24.8356   Anisotropy =     4.8889

 25  H    Isotropic =    24.6780   Anisotropy =     6.7068

 26  H    Isotropic =    31.0801   Anisotropy =     6.9402

 27  H    Isotropic =    30.2574   Anisotropy =     6.0919

 28  H    Isotropic =    31.2130   Anisotropy =     9.2723

  Exact polarizability: 188.948  11.321 163.431  -3.780  -4.566  65.450
 Approx polarizability: 282.459  22.641 287.391  -8.744 -11.900  96.739

                     1                      2                      3
                     A                      A                      A
 Frequencies --    43.8085                77.0920               129.9281
 Red. masses --     3.7378                 2.8564                 3.3817
 Frc consts  --     0.0042                 0.0100                 0.0336
 IR Inten    --     1.0705                 0.0331                 0.6742

                     4                      5                      6
                     A                      A                      A
 Frequencies --   143.0838               184.2511               219.6813
 Red. masses --     4.1327                 4.0742                 1.0333
 Frc consts  --     0.0498                 0.0815                 0.0294
 IR Inten    --     0.2742                 1.1563                 0.0964

                     7                      8                      9
                     A                      A                      A
 Frequencies --   243.0924               260.4718               274.8655
 Red. masses --     1.6698                 2.0983                 2.9375
 Frc consts  --     0.0581                 0.0839                 0.1308
 IR Inten    --     0.2864                 0.5786                 0.1286

                    10                     11                     12
                     A                      A                      A
 Frequencies --   335.1767               404.8955               430.1603
 Red. masses --     2.8806                 3.1162                 3.0231
 Frc consts  --     0.1907                 0.3010                 0.3296
 IR Inten    --     0.9524                 2.4102                 2.2395

                    13                     14                     15
                     A                      A                      A
 Frequencies --   442.5406               480.1489               482.8586
 Red. masses --     3.3096                 3.5691                 3.6021
 Frc consts  --     0.3819                 0.4848                 0.4948
 IR Inten    --     1.4206                 0.7268                 1.7715

                    16                     17                     18
                     A                      A                      A
 Frequencies --   521.9744               538.7208               585.3553
 Red. masses --     5.0775                 5.5800                 3.4155
 Frc consts  --     0.8151                 0.9541                 0.6895
 IR Inten    --     0.5247                 0.7200                 4.8964

                    19                     20                     21
                     A                      A                      A
 Frequencies --   633.5784               651.8304               746.2101
 Red. masses --     5.9411                 3.6177                 2.7431
 Frc consts  --     1.4051                 0.9056                 0.8999
 IR Inten    --     3.0978                 2.5009                 8.9325

                    22                     23                     24
                     A                      A                      A
 Frequencies --   747.6353               789.7188               801.2196
 Red. masses --     1.7611                 1.7208                 5.1135
 Frc consts  --     0.5800                 0.6323                 1.9341
 IR Inten    --     4.4173                39.8504                 1.5550

                    25                     26                     27
                     A                      A                      A
 Frequencies --   806.4317               830.9025               866.4847
 Red. masses --     1.8732                 3.0945                 1.4865
 Frc consts  --     0.7178                 1.2587                 0.6576
 IR Inten    --    46.5513                 2.5607                 1.3645

                    28                     29                     30
                     A                      A                      A
 Frequencies --   887.7267               890.6747               947.0637
 Red. masses --     2.0784                 2.1838                 1.3251
 Frc consts  --     0.9650                 1.0207                 0.7003
 IR Inten    --     1.4930                 0.7576                 0.5630

                    31                     32                     33
                     A                      A                      A
 Frequencies --   955.9912               960.5874               964.3333
 Red. masses --     1.2865                 1.4254                 1.4004
 Frc consts  --     0.6928                 0.7749                 0.7673
 IR Inten    --     0.0629                 3.7552                 3.8757

                    34                     35                     36
                     A                      A                      A
 Frequencies --   966.2989               990.6720              1052.5137
 Red. masses --     2.3991                 1.2649                 2.5783
 Frc consts  --     1.3198                 0.7314                 1.6829
 IR Inten    --    21.6578                 0.0164                11.7179

                    37                     38                     39
                     A                      A                      A
 Frequencies --  1089.6515              1123.5888              1162.1790
 Red. masses --     2.3504                 2.2371                 2.0321
 Frc consts  --     1.6443                 1.6640                 1.6171
 IR Inten    --    19.0584                33.6984               110.1630

                    40                     41                     42
                     A                      A                      A
 Frequencies --  1168.7038              1179.6488              1190.7829
 Red. masses --     2.0040                 1.3686                 1.1552
 Frc consts  --     1.6127                 1.1221                 0.9651
 IR Inten    --    28.2051                10.1003                15.4093

                    43                     44                     45
                     A                      A                      A
 Frequencies --  1211.0958              1218.3383              1248.6159
 Red. masses --     1.5473                 1.6818                 2.2218
 Frc consts  --     1.3371                 1.4708                 2.0408
 IR Inten    --    19.9030                 0.1754                 7.9392

                    46                     47                     48
                     A                      A                      A
 Frequencies --  1275.9682              1305.3790              1385.9208
 Red. masses --     1.7797                 2.4148                 1.3011
 Frc consts  --     1.7071                 2.4244                 1.4725
 IR Inten    --    92.5273               152.0392                30.5644

                    49                     50                     51
                     A                      A                      A
 Frequencies --  1391.3716              1403.6391              1417.6755
 Red. masses --     3.2117                 1.2795                 6.0338
 Frc consts  --     3.6633                 1.4852                 7.1449
 IR Inten    --     1.9526                12.5500                 6.6816

                    52                     53                     54
                     A                      A                      A
 Frequencies --  1432.2256              1444.9153              1447.5942
 Red. masses --     1.3614                 1.9148                 1.3925
 Frc consts  --     1.6454                 2.3554                 1.7193
 IR Inten    --    17.5193               102.2826                 2.4905

                    55                     56                     57
                     A                      A                      A
 Frequencies --  1490.6694              1507.8553              1511.9106
 Red. masses --     2.1054                 2.2817                 1.0804
 Frc consts  --     2.7565                 3.0565                 1.4551
 IR Inten    --    19.2099                28.7802                 3.4271

                    58                     59                     60
                     A                      A                      A
 Frequencies --  1519.2839              1524.9833              1541.7168
 Red. masses --     1.0500                 1.0537                 1.0560
 Frc consts  --     1.4280                 1.4437                 1.4788
 IR Inten    --     0.8250                 4.5968                 5.0095

                    61                     62                     63
                     A                      A                      A
 Frequencies --  1564.3145              1632.0616              1655.0649
 Red. masses --     3.4636                 6.8448                 5.0593
 Frc consts  --     4.9937                10.7419                 8.1653
 IR Inten    --    27.2620                82.5562                17.7924

                    64                     65                     66
                     A                      A                      A
 Frequencies --  1682.3259              3041.2674              3056.5101
 Red. masses --     6.1579                 1.0845                 1.0355
 Frc consts  --    10.2683                 5.9098                 5.6998
 IR Inten    --     6.8789                21.0465                13.2601

                    67                     68                     69
                     A                      A                      A
 Frequencies --  3061.3484              3123.9340              3132.6727
 Red. masses --     1.0358                 1.1030                 1.1023
 Frc consts  --     5.7193                 6.3418                 6.3738
 IR Inten    --    20.5841                 3.0891                48.5321

                    70                     71                     72
                     A                      A                      A
 Frequencies --  3138.0708              3140.8367              3177.1244
 Red. masses --     1.1032                 1.1018                 1.0858
 Frc consts  --     6.4005                 6.4039                 6.4576
 IR Inten    --    20.8633                25.7347                 1.3486

                    73                     74                     75
                     A                      A                      A
 Frequencies --  3182.5548              3189.3735              3200.0909
 Red. masses --     1.0859                 1.0899                 1.0946
 Frc consts  --     6.4801                 6.5321                 6.6046
 IR Inten    --     2.2579                16.5792                37.6637

                    76                     77                     78
                     A                      A                      A
 Frequencies --  3203.8519              3230.1349              3231.4723
 Red. masses --     1.0953                 1.0910                 1.0924
 Frc consts  --     6.6242                 6.7068                 6.7209
 IR Inten    --    35.4771                17.6966                 7.1081

 - Thermochemistry -
 -------------------
 Temperature   298.150 Kelvin.  Pressure   1.00000 Atm.
 Atom     1 has atomic number  6 and mass  12.00000

 Molecular mass:   186.10447 amu.
 Principal axes and moments of inertia in atomic units:
                           1         2         3
     Eigenvalues --  1433.215533788.150024946.30170
           X            0.99998  -0.00644   0.00179
           Y            0.00643   0.99997   0.00508
           Z           -0.00182  -0.00506   0.99999
 This molecule is an asymmetric top.
 Rotational symmetry number  1.
 Warning -- assumption of classical behavior for rotation
           may cause significant error
 Rotational temperatures (Kelvin)      0.06043     0.02286     0.01751
 Rotational constants (GHZ):           1.25923     0.47642     0.36487
 Zero-point vibrational energy     622804.0 (Joules/Mol)
                                  148.85373 (Kcal/Mol)
 Warning -- explicit consideration of  18 degrees of freedom as
           vibrations may cause significant error
 Vibrational temperatures:     63.03   110.92   186.94   205.87   265.10
          (Kelvin)            316.07   349.76   374.76   395.47   482.24
                              582.55   618.90   636.72   690.83   694.72
                              751.00   775.10   842.19   911.58   937.84
                             1073.63  1075.68  1136.23  1152.77  1160.27
                             1195.48  1246.68  1277.24  1281.48  1362.61
                             1375.46  1382.07  1387.46  1390.29  1425.35
                             1514.33  1567.76  1616.59  1672.11  1681.50
                             1697.25  1713.27  1742.49  1752.91  1796.48
                             1835.83  1878.15  1994.03  2001.87  2019.52
                             2039.72  2060.65  2078.91  2082.76  2144.74
                             2169.46  2175.30  2185.91  2194.11  2218.18
                             2250.70  2348.17  2381.27  2420.49  4375.70
                             4397.63  4404.59  4494.64  4507.21  4514.98
                             4518.96  4571.17  4578.98  4588.79  4604.21
                             4609.62  4647.44  4649.36

 Zero-point correction=                           0.237214 (Hartree/Particle)
 Thermal correction to Energy=                    0.249338
 Thermal correction to Enthalpy=                  0.250282
 Thermal correction to Gibbs Free Energy=         0.198923
 Sum of electronic and zero-point Energies=           -578.814153
 Sum of electronic and thermal Energies=              -578.802029
 Sum of electronic and thermal Enthalpies=            -578.801085
 Sum of electronic and thermal Free Energies=         -578.852444

                     E (Thermal)             CV                S
                      KCal/Mol        Cal/Mol-Kelvin    Cal/Mol-Kelvin
 Total                  156.462             48.470            108.095
 Electronic               0.000              0.000              0.000
 Translational            0.889              2.981             41.570
 Rotational               0.889              2.981             31.663
 Vibrational            154.684             42.509             34.862
 Vibration     1          0.595              1.980              5.079
 Vibration     2          0.599              1.964              3.964
 Vibration     3          0.612              1.923              2.947
 Vibration     4          0.616              1.910              2.762
 Vibration     5          0.631              1.861              2.285
 Vibration     6          0.647              1.811              1.962
 Vibration     7          0.659              1.774              1.780
 Vibration     8          0.669              1.745              1.659
 Vibration     9          0.677              1.720              1.565
 Vibration    10          0.716              1.605              1.235
 Vibration    11          0.770              1.460              0.945
 Vibration    12          0.791              1.405              0.858
 Vibration    13          0.802              1.377              0.819
 Vibration    14          0.837              1.294              0.710
 Vibration    15          0.839              1.288              0.702
 Vibration    16          0.877              1.201              0.605
 Vibration    17          0.894              1.164              0.568
 Vibration    18          0.942              1.063              0.476

 Normal termination of Gaussian 09 at Thu Sep 30 19:57:03 2021.
 Gaussian 09:  AM64L-G09RevA.02 11-Jun-2009

 ----------------------------------------------------------------------
 #p TD(NStates=10, Root=1) b3lyp/6-31G* volume pop=NPA density=current
 Geom=AllCheck Guess=Read
 ----------------------------------------------------------------------

 CC(Oc1cccc2c1cccc2)C_conf_0
 ---------------------------
 Redundant internal coordinates taken from checkpoint file:
 C13H14O_5e91_conf_0.chk
 Charge =  0 Multiplicity = 1

                         Standard orientation:
 ---------------------------------------------------------------------
 Center     Atomic      Atomic             Coordinates (Angstroms)
 Number     Number       Type             X           Y           Z
 ---------------------------------------------------------------------
      1          6           0        3.654567   -1.334015   -0.724142
      2          6           0        2.874877   -0.140682   -0.183050
      3          8           0        1.499956   -0.564610   -0.136640
      4          6           0        0.484500    0.346620   -0.121882
      5          6           0        0.640758    1.718108   -0.200257
      6          6           0       -0.495722    2.564104   -0.199575
      7          6           0       -1.766950    2.051545   -0.116560
      8          6           0       -1.962908    0.645670   -0.029258
      9          6           0       -0.828185   -0.226780   -0.030766
     10          6           0       -1.030624   -1.628345    0.055788
     11          6           0       -2.303290   -2.150295    0.141839
     12          6           0       -3.428358   -1.293000    0.144043
     13          6           0       -3.258967    0.071023    0.060145
     14          6           0        3.349828    0.293664    1.203858
     15          1           0        3.286425   -1.618034   -1.714678
     16          1           0        3.546789   -2.195115   -0.055596
     17          1           0        4.719108   -1.088854   -0.803874
     18          1           0        2.963137    0.692557   -0.892768
     19          1           0        1.625221    2.166267   -0.261746
     20          1           0       -0.343626    3.638399   -0.263637
     21          1           0       -2.633365    2.707629   -0.114343
     22          1           0       -0.164540   -2.280305    0.053912
     23          1           0       -2.445029   -3.225728    0.208286
     24          1           0       -4.427905   -1.714502    0.212035
     25          1           0       -4.121216    0.733877    0.061379
     26          1           0        3.285190   -0.547321    1.902929
     27          1           0        2.740926    1.112483    1.597843
     28          1           0        4.392086    0.629812    1.162291
 ---------------------------------------------------------------------

 SCF Done:  E(RB3LYP) =  -579.051366873     A.U. after    1 cycles

 Excitation energies and oscillator strengths:

 Excited State   1:      Singlet-A      4.2130 eV  294.29 nm  f=0.0972  <S**2>=0.000
      49 -> 52        -0.12572
      50 -> 51         0.68774
 This state for optimization and/or second-order correction.
 Total Energy, E(TD-HF/TD-KS) =  -578.896540809
 Copying the excited state density for this state as the 1-particle RhoCI density.

 Excited State   2:      Singlet-A      4.4227 eV  280.33 nm  f=0.0211  <S**2>=0.000
      49 -> 51         0.41015
      50 -> 52         0.57282

 Excited State   3:      Singlet-A      5.5516 eV  223.33 nm  f=0.0240  <S**2>=0.000
      48 -> 51         0.58499
      49 -> 51        -0.11366
      49 -> 52         0.16447
      50 -> 53         0.31559

 Excited State   4:      Singlet-A      5.7105 eV  217.11 nm  f=0.4460  <S**2>=0.000
      48 -> 51         0.10177
      48 -> 52        -0.35547
      49 -> 51         0.45176
      49 -> 53         0.12587
      50 -> 52        -0.34065
      50 -> 53         0.11511

 Excited State   5:      Singlet-A      6.1757 eV  200.76 nm  f=0.1882  <S**2>=0.000
      48 -> 51        -0.27695
      48 -> 52         0.35053
      49 -> 51         0.16493
      49 -> 53        -0.14653
      50 -> 53         0.47341

 Excited State   6:      Singlet-A      6.2570 eV  198.15 nm  f=0.2873  <S**2>=0.000
      48 -> 51        -0.14672
      48 -> 53         0.16331
      49 -> 52         0.63980
      50 -> 51         0.11839

 Excited State   7:      Singlet-A      6.3232 eV  196.08 nm  f=0.3787  <S**2>=0.000
      47 -> 51        -0.15946
      48 -> 51         0.17734
      48 -> 52         0.37852
      49 -> 51         0.26651
      49 -> 52         0.12082
      49 -> 53        -0.18252
      50 -> 52        -0.18840
      50 -> 53        -0.36044

 Excited State   8:      Singlet-A      6.8033 eV  182.24 nm  f=0.0004  <S**2>=0.000
      43 -> 51         0.14170
      46 -> 51         0.68402

 Excited State   9:      Singlet-A      6.9252 eV  179.03 nm  f=0.0011  <S**2>=0.000
      47 -> 51        -0.13914
      50 -> 54         0.62040
      50 -> 55        -0.28875

 Excited State  10:      Singlet-A      7.0514 eV  175.83 nm  f=0.0018  <S**2>=0.000
      47 -> 51         0.50432
      49 -> 53        -0.44430

 The electronic state is 1-A.
 Alpha  occ. eigenvalues --  -19.17239 -10.24971 -10.24563 -10.19108 -10.18917
 Alpha  occ. eigenvalues --  -10.18608 -10.18411 -10.18261 -10.18224 -10.18206
 Alpha  occ. eigenvalues --  -10.18189 -10.18119 -10.18081 -10.17683  -1.05855
 Alpha  occ. eigenvalues --   -0.86263  -0.81266  -0.79504  -0.75166  -0.73372
 Alpha  occ. eigenvalues --   -0.70758  -0.69455  -0.63213  -0.61187  -0.59937
 Alpha  occ. eigenvalues --   -0.56572  -0.52911  -0.50844  -0.49383  -0.47340
 Alpha  occ. eigenvalues --   -0.45971  -0.45033  -0.42739  -0.42169  -0.41553
 Alpha  occ. eigenvalues --   -0.40088  -0.39780  -0.39488  -0.38916  -0.37072
 Alpha  occ. eigenvalues --   -0.36721  -0.36404  -0.34051  -0.33222  -0.32956
 Alpha  occ. eigenvalues --   -0.31335  -0.30712  -0.25400  -0.23633  -0.19494
 Alpha virt. eigenvalues --   -0.02473  -0.00187   0.04869   0.08853   0.10122
 Alpha virt. eigenvalues --    0.10599   0.10948   0.12282   0.13616   0.14447
 Alpha virt. eigenvalues --    0.15160   0.16201   0.17203   0.17809   0.18418

 Mulliken atomic charges:
              1
     1  C   -0.453951
     2  C    0.122553
     3  O   -0.484661
     4  C    0.319122
     5  C   -0.184214
     6  C   -0.144214
     7  C   -0.173787
     8  C    0.142468
     9  C    0.074517
    10  C   -0.223503
    11  C   -0.134039
    12  C   -0.132866
    13  C   -0.248575
    14  C   -0.458965
    15  H    0.167483
    16  H    0.164571
    17  H    0.152202
    18  H    0.145100
    19  H    0.140668
    20  H    0.135095
    21  H    0.142623
    22  H    0.119203
    23  H    0.113349
    24  H    0.110530
    25  H    0.103419
    26  H    0.166456
    27  H    0.165092
    28  H    0.154323
 Sum of Mulliken atomic charges =  -0.00000

 Dipole moment (field-independent basis, Debye):
    X=              4.1601    Y=              1.8787    Z=             -0.1276  Tot=              4.5665
 Quadrupole moment (field-independent basis, Debye-Ang):
   XX=            -73.3780   YY=            -77.0467   ZZ=            -86.2027
   XY=             -2.2323   XZ=             -0.3357   YZ=             -0.5325

 Summary of Natural Population Analysis:

                                       Natural Population
                Natural  -----------------------------------------------
    Atom  No    Charge         Core      Valence    Rydberg      Total
 -----------------------------------------------------------------------
      C    1   -0.69128      1.99940     4.68252    0.00936     6.69128
      C    2    0.08795      1.99914     3.89547    0.01744     5.91205
      O    3   -0.47614      1.99973     6.46324    0.01317     8.47614
      C    4    0.36953      1.99875     3.60910    0.02262     5.63047
      C    5   -0.29424      1.99904     4.28191    0.01328     6.29424
      C    6   -0.23420      1.99913     4.21932    0.01575     6.23420
      C    7   -0.15287      1.99904     4.13913    0.01470     6.15287
      C    8   -0.05957      1.99904     4.04520    0.01534     6.05957
      C    9   -0.07237      1.99898     4.05806    0.01534     6.07237
      C   10   -0.30297      1.99907     4.28585    0.01805     6.30297
      C   11   -0.21951      1.99911     4.20479    0.01562     6.21951
      C   12   -0.24724      1.99911     4.23233    0.01581     6.24724
      C   13   -0.29663      1.99906     4.28050    0.01707     6.29663
      C   14   -0.70251      1.99940     4.69473    0.00839     6.70251
      H   15    0.24646      0.00000     0.75252    0.00101     0.75354
      H   16    0.23935      0.00000     0.75928    0.00138     0.76065
      H   17    0.23892      0.00000     0.76040    0.00068     0.76108
      H   18    0.22268      0.00000     0.77470    0.00261     0.77732
      H   19    0.23560      0.00000     0.76347    0.00092     0.76440
      H   20    0.23818      0.00000     0.76098    0.00084     0.76182
      H   21    0.23615      0.00000     0.76272    0.00113     0.76385
      H   22    0.23476      0.00000     0.76408    0.00117     0.76524
      H   23    0.22733      0.00000     0.77179    0.00088     0.77267
      H   24    0.22758      0.00000     0.77159    0.00084     0.77242
      H   25    0.22081      0.00000     0.77807    0.00111     0.77919
      H   26    0.24126      0.00000     0.75730    0.00144     0.75874
      H   27    0.24229      0.00000     0.75671    0.00100     0.75771
      H   28    0.24066      0.00000     0.75843    0.00091     0.75934
 =======================================================================
   * Total *    0.00000     27.98798    71.78420    0.22783   100.00000

 Normal termination of Gaussian 09 at Fri Oct  1 00:12:47 2021.
