 Gaussian 09, Revision A.02,

 -----------------------------------
 #p opt b3lyp/6-31G* scf=(xqc,tight)
 -----------------------------------

 --------------------------------
 O=C(N(C)C)Oc1cccc2c1cccc2_conf_0
 --------------------------------
 Symbolic Z-matrix:
 Charge =  0 Multiplicity = 1

 SCF Done:  E(RB3LYP) =  -708.429523427     A.U. after   15 cycles
 SCF Done:  E(RB3LYP) =  -708.436377906     A.U. after   13 cycles
 SCF Done:  E(RB3LYP) =  -708.436736537     A.U. after   12 cycles
 SCF Done:  E(RB3LYP) =  -708.436597994     A.U. after   12 cycles
 SCF Done:  E(RB3LYP) =  -708.436994127     A.U. after   12 cycles
 SCF Done:  E(RB3LYP) =  -708.437020861     A.U. after   10 cycles
 SCF Done:  E(RB3LYP) =  -708.437048479     A.U. after   10 cycles
 SCF Done:  E(RB3LYP) =  -708.437065290     A.U. after   10 cycles
 SCF Done:  E(RB3LYP) =  -708.437087361     A.U. after   10 cycles
 SCF Done:  E(RB3LYP) =  -708.437114354     A.U. after   11 cycles
 SCF Done:  E(RB3LYP) =  -708.437121669     A.U. after   10 cycles
 SCF Done:  E(RB3LYP) =  -708.437126156     A.U. after    9 cycles
 SCF Done:  E(RB3LYP) =  -708.437129345     A.U. after    9 cycles
 SCF Done:  E(RB3LYP) =  -708.437131369     A.U. after    9 cycles
 SCF Done:  E(RB3LYP) =  -708.437132571     A.U. after    8 cycles
 SCF Done:  E(RB3LYP) =  -708.437133396     A.U. after    8 cycles
 SCF Done:  E(RB3LYP) =  -708.437133555     A.U. after    7 cycles
 SCF Done:  E(RB3LYP) =  -708.437133618     A.U. after    7 cycles
 Optimization completed.
    -- Stationary point found.
 Normal termination of Gaussian 09 at Thu Sep 30 08:44:04 2021.

 ----------------------------------------------------------------------
 #p freq b3lyp/6-31G* volume NMR pop=NPA density=current Geom=AllCheck
 Guess=Read
 ----------------------------------------------------------------------

 O=C(N(C)C)Oc1cccc2c1cccc2_conf_0
 --------------------------------
 Redundant internal coordinates taken from checkpoint file:
 C13H13NO2_1142_conf_0.chk
 Charge =  0 Multiplicity = 1

 SCF Done:  E(RB3LYP) =  -708.437133619     A.U. after    1 cycles

  1  O    Isotropic =    67.7720   Anisotropy =   388.8735

  2  C    Isotropic =    46.7681   Anisotropy =    79.3002

  3  N    Isotropic =   179.9219   Anisotropy =    84.0356

  4  C    Isotropic =   155.0029   Anisotropy =    51.6805

  5  C    Isotropic =   155.5404   Anisotropy =    49.2045

  6  O    Isotropic =   150.3295   Anisotropy =   151.2074

  7  C    Isotropic =    48.2505   Anisotropy =    99.3895

  8  C    Isotropic =    76.0983   Anisotropy =   148.0523

  9  C    Isotropic =    70.3125   Anisotropy =   158.9885

 10  C    Isotropic =    71.5565   Anisotropy =   140.7467

 11  C    Isotropic =    62.5134   Anisotropy =   195.2070

 12  C    Isotropic =    69.6094   Anisotropy =   179.5387

 13  C    Isotropic =    73.1872   Anisotropy =   161.6470

 14  C    Isotropic =    70.8785   Anisotropy =   161.1555

 15  C    Isotropic =    70.5494   Anisotropy =   162.0518

 16  C    Isotropic =    67.8362   Anisotropy =   145.3053

 17  H    Isotropic =    28.0988   Anisotropy =     7.1172

 18  H    Isotropic =    29.8728   Anisotropy =     9.3089

 19  H    Isotropic =    29.7986   Anisotropy =     9.4113

 20  H    Isotropic =    28.1001   Anisotropy =     4.5747

 21  H    Isotropic =    29.4478   Anisotropy =     9.1653

 22  H    Isotropic =    29.7216   Anisotropy =     8.8542

 23  H    Isotropic =    24.8349   Anisotropy =     9.2990

 24  H    Isotropic =    24.8077   Anisotropy =     5.0609

 25  H    Isotropic =    24.7744   Anisotropy =     6.1723

 26  H    Isotropic =    24.1562   Anisotropy =    10.3262

 27  H    Isotropic =    24.7825   Anisotropy =     6.0115

 28  H    Isotropic =    24.7904   Anisotropy =     4.9550

 29  H    Isotropic =    24.5878   Anisotropy =     6.6672

  Exact polarizability: 199.690  -4.599 177.111  -7.795   5.625  70.384
 Approx polarizability: 286.226 -12.060 311.215 -17.289   8.811 110.538

                     1                      2                      3
                     A                      A                      A
 Frequencies --    30.1849                39.7246                73.7365
 Red. masses --     4.5410                 3.3724                 1.6094
 Frc consts  --     0.0024                 0.0031                 0.0052
 IR Inten    --     0.9753                 2.1424                 0.1713

                     4                      5                      6
                     A                      A                      A
 Frequencies --    81.5282               117.3232               144.1805
 Red. masses --     3.2914                 3.0426                 1.3813
 Frc consts  --     0.0129                 0.0247                 0.0169
 IR Inten    --     1.0553                 0.7989                 0.3728

                     7                      8                      9
                     A                      A                      A
 Frequencies --   158.9800               179.4931               222.4006
 Red. masses --     2.7971                 4.1197                 2.3253
 Frc consts  --     0.0417                 0.0782                 0.0678
 IR Inten    --     1.4238                 1.7587                 4.5956

                    10                     11                     12
                     A                      A                      A
 Frequencies --   242.1460               259.0663               295.6290
 Red. masses --     3.7172                 4.6292                 5.1407
 Frc consts  --     0.1284                 0.1831                 0.2647
 IR Inten    --     1.8811                 0.8729                 0.2161

                    13                     14                     15
                     A                      A                      A
 Frequencies --   380.7367               427.6842               443.0015
 Red. masses --     3.3994                 3.3949                 3.5233
 Frc consts  --     0.2903                 0.3659                 0.4074
 IR Inten    --    19.9714                 3.6568                 3.8066

                    16                     17                     18
                     A                      A                      A
 Frequencies --   456.0284               479.5350               525.7201
 Red. masses --     4.3785                 3.4387                 6.8983
 Frc consts  --     0.5365                 0.4659                 1.1233
 IR Inten    --     2.2312                 0.1452                 0.9221

                    19                     20                     21
                     A                      A                      A
 Frequencies --   538.7730               574.7371               618.1205
 Red. masses --     6.5174                 3.7276                 6.0693
 Frc consts  --     1.1147                 0.7255                 1.3663
 IR Inten    --     1.1529                 3.3892                 6.9538

                    22                     23                     24
                     A                      A                      A
 Frequencies --   630.6088               661.8738               736.2997
 Red. masses --     4.6287                 4.4588                11.5253
 Frc consts  --     1.0845                 1.1508                 3.6814
 IR Inten    --     1.6396                 2.8014                20.7421

                    25                     26                     27
                     A                      A                      A
 Frequencies --   748.0806               755.6939               786.6927
 Red. masses --     1.3636                 5.9002                 2.1531
 Frc consts  --     0.4496                 1.9852                 0.7851
 IR Inten    --     0.2429                 4.1417                31.5492

                    28                     29                     30
                     A                      A                      A
 Frequencies --   802.3582               807.1958               848.2543
 Red. masses --     4.2037                 1.8140                 3.1946
 Frc consts  --     1.5945                 0.6964                 1.3543
 IR Inten    --     6.8728                44.0751                12.1864

                    31                     32                     33
                     A                      A                      A
 Frequencies --   883.0289               893.4980               905.5860
 Red. masses --     1.9453                 4.4103                 1.5321
 Frc consts  --     0.8937                 2.0745                 0.7403
 IR Inten    --     2.8435                 9.1548                 1.3860

                    34                     35                     36
                     A                      A                      A
 Frequencies --   956.8110               969.4917               990.9749
 Red. masses --     1.3248                 1.2866                 1.2690
 Frc consts  --     0.7146                 0.7125                 0.7343
 IR Inten    --     0.6649                 0.8850                 0.0889

                    37                     38                     39
                     A                      A                      A
 Frequencies --  1017.4051              1050.5498              1082.7854
 Red. masses --     3.5304                 2.5245                 2.3875
 Frc consts  --     2.1531                 1.6415                 1.6492
 IR Inten    --    10.9926                11.9867                18.8665

                    40                     41                     42
                     A                      A                      A
 Frequencies --  1094.5129              1114.3359              1143.9692
 Red. masses --     1.3670                 2.2950                 1.2179
 Frc consts  --     0.9648                 1.6790                 0.9390
 IR Inten    --     7.7877                 9.4991                 0.5070

                    43                     44                     45
                     A                      A                      A
 Frequencies --  1179.1147              1183.2381              1189.6727
 Red. masses --     1.3637                 2.0030                 1.2198
 Frc consts  --     1.1171                 1.6523                 1.0172
 IR Inten    --     4.0645               549.6800                 3.6026

                    46                     47                     48
                     A                      A                      A
 Frequencies --  1193.8521              1205.1444              1250.3857
 Red. masses --     1.5238                 1.3968                 2.1780
 Frc consts  --     1.2796                 1.1952                 2.0063
 IR Inten    --   160.5481               133.4759                 4.1885

                    49                     50                     51
                     A                      A                      A
 Frequencies --  1263.1562              1289.2130              1301.5670
 Red. masses --     2.1626                 2.0954                 4.2123
 Frc consts  --     2.0330                 2.0520                 4.2044
 IR Inten    --   199.8924                66.2579                 9.9390

                    52                     53                     54
                     A                      A                      A
 Frequencies --  1394.2250              1416.4757              1426.8370
 Red. masses --     3.5530                 6.9092                 2.4051
 Frc consts  --     4.0693                 8.1676                 2.8850
 IR Inten    --     1.1031                 4.0302               314.8821

                    55                     56                     57
                     A                      A                      A
 Frequencies --  1445.9966              1460.4798              1488.6969
 Red. masses --     2.2802                 1.1836                 1.5038
 Frc consts  --     2.8091                 1.4874                 1.9635
 IR Inten    --    43.1289                19.8286                36.4241

                    58                     59                     60
                     A                      A                      A
 Frequencies --  1493.7047              1511.2095              1520.5766
 Red. masses --     1.5955                 2.4871                 1.0444
 Frc consts  --     2.0974                 3.3465                 1.4228
 IR Inten    --    17.2618                 6.6330                 3.5536

                    61                     62                     63
                     A                      A                      A
 Frequencies --  1530.4867              1532.2144              1562.4502
 Red. masses --     1.0486                 1.0464                 1.8454
 Frc consts  --     1.4472                 1.4474                 2.6543
 IR Inten    --    16.7915                14.7896                40.5249

                    64                     65                     66
                     A                      A                      A
 Frequencies --  1567.0294              1631.0219              1658.1467
 Red. masses --     1.7686                 7.0171                 5.1043
 Frc consts  --     2.5587                10.9984                 8.2685
 IR Inten    --    21.2563                10.1520                17.5453

                    67                     68                     69
                     A                      A                      A
 Frequencies --  1686.5163              1821.2920              3027.0746
 Red. masses --     6.3561                10.9798                 1.0429
 Frc consts  --    10.6518                21.4587                 5.6303
 IR Inten    --     1.8089               363.7664                30.2192

                    70                     71                     72
                     A                      A                      A
 Frequencies --  3035.2690              3077.0026              3081.0330
 Red. masses --     1.0422                 1.1005                 1.1038
 Frc consts  --     5.6574                 6.1388                 6.1737
 IR Inten    --   105.2340                62.9029                12.5710

                    73                     74                     75
                     A                      A                      A
 Frequencies --  3179.8097              3185.5840              3190.9137
 Red. masses --     1.0860                 1.0869                 1.0896
 Frc consts  --     6.4697                 6.4983                 6.5363
 IR Inten    --     0.6677                 1.9796                16.7150

                    76                     77                     78
                     A                      A                      A
 Frequencies --  3195.0055              3204.8013              3206.0743
 Red. masses --     1.0962                 1.0946                 1.0950
 Frc consts  --     6.5929                 6.6241                 6.6312
 IR Inten    --     0.8459                32.4829                31.7183

                    79                     80                     81
                     A                      A                      A
 Frequencies --  3208.3368              3226.3197              3247.4962
 Red. masses --     1.0945                 1.0930                 1.0928
 Frc consts  --     6.6378                 6.7032                 6.7903
 IR Inten    --     3.8058                11.9677                 3.5358

 - Thermochemistry -
 -------------------
 Temperature   298.150 Kelvin.  Pressure   1.00000 Atm.
 Atom     1 has atomic number  8 and mass  15.99491

 Molecular mass:   215.09463 amu.
 Principal axes and moments of inertia in atomic units:
                           1         2         3
     Eigenvalues --  1725.878615435.390646764.69617
           X            0.99991   0.01284  -0.00359
           Y           -0.01284   0.99992  -0.00049
           Z            0.00358   0.00054   0.99999
 This molecule is an asymmetric top.
 Rotational symmetry number  1.
 Warning -- assumption of classical behavior for rotation
           may cause significant error
 Rotational temperatures (Kelvin)      0.05019     0.01594     0.01280
 Rotational constants (GHZ):           1.04569     0.33204     0.26679
 Zero-point vibrational energy     618685.6 (Joules/Mol)
                                  147.86941 (Kcal/Mol)
 Warning -- explicit consideration of  21 degrees of freedom as
           vibrations may cause significant error
 Vibrational temperatures:     43.43    57.15   106.09   117.30   168.80
          (Kelvin)            207.44   228.74   258.25   319.98   348.39
                              372.74   425.34   547.79   615.34   637.38
                              656.12   689.94   756.39   775.17   826.92
                              889.34   907.30   952.29  1059.37  1076.32
                             1087.27  1131.87  1154.41  1161.37  1220.45
                             1270.48  1285.54  1302.93  1376.64  1394.88
                             1425.79  1463.82  1511.51  1557.88  1574.76
                             1603.28  1645.91  1696.48  1702.41  1711.67
                             1717.68  1733.93  1799.02  1817.40  1854.89
                             1872.66  2005.98  2037.99  2052.90  2080.46
                             2101.30  2141.90  2149.11  2174.29  2187.77
                             2202.03  2204.51  2248.01  2254.60  2346.67
                             2385.70  2426.52  2620.43  4355.28  4367.07
                             4427.11  4432.91  4575.03  4583.34  4591.01
                             4596.89  4610.99  4612.82  4616.08  4641.95
                             4672.42

 Zero-point correction=                           0.235645 (Hartree/Particle)
 Thermal correction to Energy=                    0.249901
 Thermal correction to Enthalpy=                  0.250845
 Thermal correction to Gibbs Free Energy=         0.193158
 Sum of electronic and zero-point Energies=           -708.201489
 Sum of electronic and thermal Energies=              -708.187232
 Sum of electronic and thermal Enthalpies=            -708.186288
 Sum of electronic and thermal Free Energies=         -708.243976

                     E (Thermal)             CV                S
                      KCal/Mol        Cal/Mol-Kelvin    Cal/Mol-Kelvin
 Total                  156.815             53.890            121.413
 Electronic               0.000              0.000              0.000
 Translational            0.889              2.981             42.001
 Rotational               0.889              2.981             32.517
 Vibrational            155.038             47.929             46.895
 Vibration     1          0.594              1.984              5.817
 Vibration     2          0.594              1.981              5.273
 Vibration     3          0.599              1.966              4.051
 Vibration     4          0.600              1.962              3.854
 Vibration     5          0.608              1.935              3.144
 Vibration     6          0.616              1.909              2.748
 Vibration     7          0.621              1.893              2.562
 Vibration     8          0.629              1.867              2.334
 Vibration     9          0.648              1.807              1.939
 Vibration    10          0.658              1.776              1.787
 Vibration    11          0.668              1.747              1.668
 Vibration    12          0.690              1.682              1.442
 Vibration    13          0.750              1.511              1.036
 Vibration    14          0.789              1.410              0.866
 Vibration    15          0.803              1.376              0.817
 Vibration    16          0.814              1.348              0.778
 Vibration    17          0.836              1.295              0.711
 Vibration    18          0.881              1.193              0.597
 Vibration    19          0.894              1.164              0.568
 Vibration    20          0.931              1.086              0.495
 Vibration    21          0.978              0.994              0.420

 Normal termination of Gaussian 09 at Thu Sep 30 10:02:51 2021.
 Gaussian 09:  AM64L-G09RevA.02 11-Jun-2009

 ----------------------------------------------------------------------
 #p TD(NStates=10, Root=1) b3lyp/6-31G* volume pop=NPA density=current
 Geom=AllCheck Guess=Read
 ----------------------------------------------------------------------

 O=C(N(C)C)Oc1cccc2c1cccc2_conf_0
 --------------------------------
 Redundant internal coordinates taken from checkpoint file:
 C13H13NO2_1142_conf_0.chk
 Charge =  0 Multiplicity = 1

                         Standard orientation:
 ---------------------------------------------------------------------
 Center     Atomic      Atomic             Coordinates (Angstroms)
 Number     Number       Type             X           Y           Z
 ---------------------------------------------------------------------
      1          8           0       -2.178923    1.252350   -1.072369
      2          6           0       -2.178226    0.338383   -0.271644
      3          7           0       -3.265664   -0.409762    0.078143
      4          6           0       -4.526797   -0.159012   -0.601916
      5          6           0       -3.244642   -1.522904    1.014808
      6          8           0       -1.057434   -0.085202    0.416756
      7          6           0        0.147665    0.596187    0.273610
      8          6           0        0.239800    1.962228    0.405395
      9          6           0        1.507373    2.585117    0.333149
     10          6           0        2.649381    1.841568    0.144320
     11          6           0        2.576637    0.429729    0.011193
     12          6           0        1.298538   -0.217785    0.070593
     13          6           0        1.230529   -1.629433   -0.071587
     14          6           0        2.375188   -2.370350   -0.262526
     15          6           0        3.640226   -1.736493   -0.317280
     16          6           0        3.734980   -0.370202   -0.183912
     17          1           0       -4.406507    0.698429   -1.262107
     18          1           0       -5.316867    0.050623    0.130496
     19          1           0       -4.828575   -1.033781   -1.193980
     20          1           0       -2.297958   -1.549586    1.548821
     21          1           0       -3.389438   -2.478717    0.491451
     22          1           0       -4.058850   -1.407035    1.741372
     23          1           0       -0.655454    2.553969    0.548385
     24          1           0        1.567973    3.665230    0.432295
     25          1           0        3.621921    2.324473    0.093235
     26          1           0        0.261016   -2.113374   -0.030600
     27          1           0        2.309586   -3.449479   -0.372808
     28          1           0        4.535891   -2.333503   -0.466347
     29          1           0        4.703835    0.121709   -0.227522
 ---------------------------------------------------------------------

 SCF Done:  E(RB3LYP) =  -708.437133619     A.U. after    1 cycles

 Excitation energies and oscillator strengths:

 Excited State   1:      Singlet-A      4.3047 eV  288.02 nm  f=0.1130  <S**2>=0.000
      56 -> 59         0.13630
      57 -> 58         0.68872
 This state for optimization and/or second-order correction.
 Total Energy, E(TD-HF/TD-KS) =  -708.278938776
 Copying the excited state density for this state as the 1-particle RhoCI density.

 Excited State   2:      Singlet-A      4.4701 eV  277.36 nm  f=0.0010  <S**2>=0.000
      56 -> 58        -0.47655
      57 -> 59         0.51757

 Excited State   3:      Singlet-A      5.1642 eV  240.09 nm  f=0.0116  <S**2>=0.000
      55 -> 58         0.69513
      56 -> 58         0.11096

 Excited State   4:      Singlet-A      5.5998 eV  221.41 nm  f=0.0300  <S**2>=0.000
      54 -> 58         0.59152
      56 -> 58        -0.11182
      57 -> 60        -0.33494

 Excited State   5:      Singlet-A      5.6977 eV  217.60 nm  f=0.1156  <S**2>=0.000
      53 -> 58         0.58141
      56 -> 58        -0.21185
      57 -> 59        -0.17582
      57 -> 60         0.26146

 Excited State   6:      Singlet-A      5.9154 eV  209.60 nm  f=0.2707  <S**2>=0.000
      53 -> 58         0.21431
      54 -> 59        -0.11825
      55 -> 59         0.51311
      56 -> 58         0.25698
      57 -> 59         0.27051

 Excited State   7:      Singlet-A      6.0227 eV  205.86 nm  f=0.4805  <S**2>=0.000
      53 -> 58        -0.22345
      54 -> 59         0.10944
      55 -> 59         0.44786
      56 -> 58        -0.28995
      56 -> 59         0.16656
      57 -> 59        -0.27181
      57 -> 60         0.15123

 Excited State   8:      Singlet-A      6.1255 eV  202.41 nm  f=0.1609  <S**2>=0.000
      52 -> 58         0.10452
      53 -> 58        -0.12581
      54 -> 58         0.28100
      55 -> 59        -0.12688
      56 -> 58         0.13926
      56 -> 59         0.18433
      57 -> 59         0.13105
      57 -> 60         0.47628
      57 -> 61        -0.22527

 Excited State   9:      Singlet-A      6.2376 eV  198.77 nm  f=0.1395  <S**2>=0.000
      53 -> 59        -0.10715
      54 -> 58        -0.14965
      54 -> 59        -0.13199
      54 -> 60         0.13082
      55 -> 59        -0.12556
      56 -> 59         0.59874
      57 -> 58        -0.11028
      57 -> 60        -0.14075

 Excited State  10:      Singlet-A      6.2851 eV  197.27 nm  f=0.1680  <S**2>=0.000
      52 -> 58         0.10936
      53 -> 59        -0.20056
      54 -> 59         0.47836
      56 -> 58         0.16116
      56 -> 60        -0.35949
      57 -> 59         0.14575

 The electronic state is 1-A.
 Alpha  occ. eigenvalues --  -19.19570 -19.11697 -14.37178 -10.33448 -10.24883
 Alpha  occ. eigenvalues --  -10.22443 -10.21850 -10.19775 -10.19708 -10.19001
 Alpha  occ. eigenvalues --  -10.18958 -10.18914 -10.18873 -10.18821 -10.18687
 Alpha  occ. eigenvalues --  -10.18614  -1.10607  -1.01549  -0.94327  -0.86898
 Alpha  occ. eigenvalues --   -0.81768  -0.77311  -0.73977  -0.73152  -0.72405
 Alpha  occ. eigenvalues --   -0.69795  -0.63275  -0.61581  -0.60738  -0.55651
 Alpha  occ. eigenvalues --   -0.53515  -0.51617  -0.50008  -0.48889  -0.48328
 Alpha  occ. eigenvalues --   -0.48014  -0.44877  -0.44235  -0.42908  -0.42377
 Alpha  occ. eigenvalues --   -0.41920  -0.40903  -0.40754  -0.40433  -0.39864
 Alpha  occ. eigenvalues --   -0.38851  -0.37956  -0.36821  -0.34537  -0.33567
 Alpha  occ. eigenvalues --   -0.32483  -0.31084  -0.27454  -0.26915  -0.24554
 Alpha  occ. eigenvalues --   -0.24040  -0.20738
 Alpha virt. eigenvalues --   -0.03500  -0.00585   0.03489   0.05604   0.08475
 Alpha virt. eigenvalues --    0.10023   0.10412   0.10693   0.12946   0.13403
 Alpha virt. eigenvalues --    0.14081   0.15051   0.15911   0.16884   0.17274

 Mulliken atomic charges:
              1
     1  O   -0.503599
     2  C    0.781943
     3  N   -0.433743
     4  C   -0.319788
     5  C   -0.318566
     6  O   -0.539715
     7  C    0.284481
     8  C   -0.130490
     9  C   -0.150105
    10  C   -0.179688
    11  C    0.133107
    12  C    0.101343
    13  C   -0.206826
    14  C   -0.135672
    15  C   -0.127107
    16  C   -0.225073
    17  H    0.207704
    18  H    0.156907
    19  H    0.158329
    20  H    0.201309
    21  H    0.159961
    22  H    0.159155
    23  H    0.156891
    24  H    0.138603
    25  H    0.138126
    26  H    0.125682
    27  H    0.122442
    28  H    0.123622
    29  H    0.120766
 Sum of Mulliken atomic charges =  -0.00000

 Dipole moment (field-independent basis, Debye):
    X=             -2.1561    Y=             -1.0547    Z=              1.6241  Tot=              2.8981
 Quadrupole moment (field-independent basis, Debye-Ang):
   XX=            -75.8719   YY=            -86.2958   ZZ=            -97.0658
   XY=              8.4541   XZ=             -3.8149   YZ=              2.8967

 Summary of Natural Population Analysis:

                                       Natural Population
                Natural  -----------------------------------------------
    Atom  No    Charge         Core      Valence    Rydberg      Total
 -----------------------------------------------------------------------
      O    1   -0.63868      1.99978     6.61965    0.01925     8.63868
      C    2    0.93640      1.99937     3.01913    0.04510     5.06360
      N    3   -0.48156      1.99932     5.47126    0.01099     7.48156
      C    4   -0.46976      1.99947     4.45839    0.01189     6.46976
      C    5   -0.47211      1.99946     4.46108    0.01158     6.47211
      O    6   -0.53727      1.99969     6.52730    0.01028     8.53727
      C    7    0.34975      1.99866     3.62882    0.02278     5.65025
      C    8   -0.24790      1.99901     4.23393    0.01496     6.24790
      C    9   -0.23249      1.99912     4.21780    0.01557     6.23249
      C   10   -0.17791      1.99905     4.16361    0.01526     6.17791
      C   11   -0.05753      1.99904     4.04328    0.01521     6.05753
      C   12   -0.08332      1.99896     4.06923    0.01513     6.08332
      C   13   -0.24992      1.99906     4.23375    0.01711     6.24992
      C   14   -0.22978      1.99911     4.21494    0.01573     6.22978
      C   15   -0.23181      1.99911     4.21719    0.01551     6.23181
      C   16   -0.24554      1.99906     4.23013    0.01636     6.24554
      H   17    0.26421      0.00000     0.73431    0.00148     0.73579
      H   18    0.22207      0.00000     0.77663    0.00130     0.77793
      H   19    0.22123      0.00000     0.77736    0.00141     0.77877
      H   20    0.25696      0.00000     0.74200    0.00104     0.74304
      H   21    0.22189      0.00000     0.77648    0.00163     0.77811
      H   22    0.22525      0.00000     0.77333    0.00142     0.77475
      H   23    0.25659      0.00000     0.74227    0.00114     0.74341
      H   24    0.24026      0.00000     0.75894    0.00080     0.75974
      H   25    0.23443      0.00000     0.76441    0.00116     0.76557
      H   26    0.23465      0.00000     0.76405    0.00130     0.76535
      H   27    0.23170      0.00000     0.76744    0.00085     0.76830
      H   28    0.23277      0.00000     0.76639    0.00084     0.76723
      H   29    0.22742      0.00000     0.77142    0.00117     0.77258
 =======================================================================
   * Total *   -0.00000     31.98726    81.72451    0.28823   114.00000

 Normal termination of Gaussian 09 at Thu Sep 30 14:45:15 2021.
