 Gaussian 09, Revision A.02,

 -----------------------------------
 #p opt b3lyp/6-31G* scf=(xqc,tight)
 -----------------------------------

 --------------------------------------
 COc1nc(Oc2cc(C)cc(c2)C)nc(n1)OC_conf_0
 --------------------------------------
 Symbolic Z-matrix:
 Charge =  0 Multiplicity = 1

 SCF Done:  E(RB3LYP) =  -894.347375051     A.U. after   14 cycles
 SCF Done:  E(RB3LYP) =  -894.356951007     A.U. after   12 cycles
 SCF Done:  E(RB3LYP) =  -894.361096415     A.U. after   13 cycles
 SCF Done:  E(RB3LYP) =  -894.361927324     A.U. after   12 cycles
 SCF Done:  E(RB3LYP) =  -894.362340497     A.U. after   12 cycles
 SCF Done:  E(RB3LYP) =  -894.362532624     A.U. after   11 cycles
 SCF Done:  E(RB3LYP) =  -894.362624166     A.U. after   11 cycles
 SCF Done:  E(RB3LYP) =  -894.362691752     A.U. after   11 cycles
 SCF Done:  E(RB3LYP) =  -894.362769036     A.U. after   12 cycles
 SCF Done:  E(RB3LYP) =  -894.362813815     A.U. after   12 cycles
 SCF Done:  E(RB3LYP) =  -894.362562888     A.U. after   15 cycles
 SCF Done:  E(RB3LYP) =  -894.362968650     A.U. after   15 cycles
 SCF Done:  E(RB3LYP) =  -894.362967712     A.U. after   10 cycles
 SCF Done:  E(RB3LYP) =  -894.362968892     A.U. after   15 cycles
 SCF Done:  E(RB3LYP) =  -894.362969028     A.U. after   16 cycles
 SCF Done:  E(RB3LYP) =  -894.362969042     A.U. after    7 cycles
 SCF Done:  E(RB3LYP) =  -894.362969103     A.U. after    7 cycles
 SCF Done:  E(RB3LYP) =  -894.362969100     A.U. after   16 cycles
 Optimization completed.
    -- Stationary point found.
 Normal termination of Gaussian 09 at Wed Sep 29 08:42:53 2021.

 ----------------------------------------------------------------------
 #p freq b3lyp/6-31G* volume NMR pop=NPA density=current Geom=AllCheck
 Guess=Read
 ----------------------------------------------------------------------

 COc1nc(Oc2cc(C)cc(c2)C)nc(n1)OC_conf_0
 --------------------------------------
 Redundant internal coordinates taken from checkpoint file:
 C13H15N3O3_3919_conf_0.chk
 Charge =  0 Multiplicity = 1

 SCF Done:  E(RB3LYP) =  -894.362969100     A.U. after    1 cycles

  1  C    Isotropic =   136.5662   Anisotropy =    65.2083

  2  O    Isotropic =   192.1286   Anisotropy =    87.3030

  3  C    Isotropic =    23.4933   Anisotropy =    99.4593

  4  N    Isotropic =    59.7937   Anisotropy =   278.3727

  5  C    Isotropic =    22.4478   Anisotropy =    95.2752

  6  O    Isotropic =   138.2866   Anisotropy =    70.5240

  7  C    Isotropic =    43.4710   Anisotropy =   103.6194

  8  C    Isotropic =    75.4919   Anisotropy =   130.7227

  9  C    Isotropic =    57.0645   Anisotropy =   175.0342

 10  C    Isotropic =   167.5508   Anisotropy =    35.2863

 11  C    Isotropic =    68.4564   Anisotropy =   128.1092

 12  C    Isotropic =    57.0643   Anisotropy =   175.0338

 13  C    Isotropic =    75.4923   Anisotropy =   130.7294

 14  C    Isotropic =   167.5506   Anisotropy =    35.2877

 15  N    Isotropic =    64.0653   Anisotropy =   281.0858

 16  C    Isotropic =    23.3256   Anisotropy =   100.2619

 17  N    Isotropic =    63.3277   Anisotropy =   282.2122

 18  O    Isotropic =   192.5648   Anisotropy =    87.0826

 19  C    Isotropic =   136.4453   Anisotropy =    64.3013

 20  H    Isotropic =    28.6432   Anisotropy =     7.9505

 21  H    Isotropic =    28.3762   Anisotropy =     8.3889

 22  H    Isotropic =    28.3762   Anisotropy =     8.3889

 23  H    Isotropic =    25.6489   Anisotropy =     8.6265

 24  H    Isotropic =    30.0110   Anisotropy =     7.4189

 25  H    Isotropic =    29.6885   Anisotropy =     7.9837

 26  H    Isotropic =    30.2585   Anisotropy =     7.5255

 27  H    Isotropic =    25.4658   Anisotropy =     7.5260

 28  H    Isotropic =    25.6488   Anisotropy =     8.6270

 29  H    Isotropic =    30.2589   Anisotropy =     7.5251

 30  H    Isotropic =    29.6885   Anisotropy =     7.9833

 31  H    Isotropic =    30.0105   Anisotropy =     7.4197

 32  H    Isotropic =    28.5034   Anisotropy =     7.6714

 33  H    Isotropic =    28.2215   Anisotropy =     7.7329

 34  H    Isotropic =    28.2216   Anisotropy =     7.7329

  Exact polarizability: 210.780 -16.752 143.745   0.002   0.001 142.112
 Approx polarizability: 284.992 -30.565 217.593   0.004   0.003 217.719

                     1                      2                      3
                     A                      A                      A
 Frequencies --    10.5013                27.1290                30.6887
 Red. masses --     3.9623                 1.2681                 2.5501
 Frc consts  --     0.0003                 0.0005                 0.0014
 IR Inten    --     0.0164                 0.0170                 0.7773

                     4                      5                      6
                     A                      A                      A
 Frequencies --    42.0665                51.9848               100.0282
 Red. masses --     1.0327                 4.6053                 3.4300
 Frc consts  --     0.0011                 0.0073                 0.0202
 IR Inten    --     0.2915                 0.8645                 5.8203

                     7                      8                      9
                     A                      A                      A
 Frequencies --   111.2019               149.5326               161.2338
 Red. masses --     3.0776                 1.2478                 1.2356
 Frc consts  --     0.0224                 0.0164                 0.0189
 IR Inten    --     0.0145                 0.0024                 0.0813

                    10                     11                     12
                     A                      A                      A
 Frequencies --   169.0449               178.9733               192.8163
 Red. masses --     3.7290                 3.5988                 3.7617
 Frc consts  --     0.0628                 0.0679                 0.0824
 IR Inten    --     1.2998                 1.1030                 0.2764

                    13                     14                     15
                     A                      A                      A
 Frequencies --   210.6770               223.7745               232.5217
 Red. masses --     3.4395                 3.1258                 6.2884
 Frc consts  --     0.0899                 0.0922                 0.2003
 IR Inten    --     3.7468                 0.0184                 0.0666

                    16                     17                     18
                     A                      A                      A
 Frequencies --   243.5248               251.4027               276.3635
 Red. masses --     3.7015                 5.3617                 2.8157
 Frc consts  --     0.1293                 0.1997                 0.1267
 IR Inten    --     2.3868                 4.4126                 0.7997

                    19                     20                     21
                     A                      A                      A
 Frequencies --   319.6283               347.0254               451.4178
 Red. masses --     4.6591                 4.6869                 5.2957
 Frc consts  --     0.2804                 0.3326                 0.6358
 IR Inten    --     1.5734                 6.0919                13.5684

                    22                     23                     24
                     A                      A                      A
 Frequencies --   500.4281               507.2313               513.4761
 Red. masses --     3.3468                 6.3090                 4.6741
 Frc consts  --     0.4938                 0.9564                 0.7261
 IR Inten    --     2.8779                 3.5424                 0.2038

                    25                     26                     27
                     A                      A                      A
 Frequencies --   532.5302               547.2594               564.1908
 Red. masses --     3.3172                 4.8877                 6.7816
 Frc consts  --     0.5543                 0.8625                 1.2719
 IR Inten    --     0.1021                 5.0673                 1.0485

                    28                     29                     30
                     A                      A                      A
 Frequencies --   607.4413               650.2109               675.8552
 Red. masses --     7.1804                 6.1412                 7.0211
 Frc consts  --     1.5610                 1.5297                 1.8896
 IR Inten    --     2.1155                 1.2584                 5.1976

                    31                     32                     33
                     A                      A                      A
 Frequencies --   704.3916               738.8712               749.4946
 Red. masses --     2.7490                12.1681                11.9736
 Frc consts  --     0.8036                 3.9139                 3.9629
 IR Inten    --     3.1041                 0.0034                 0.0004

                    34                     35                     36
                     A                      A                      A
 Frequencies --   783.3274               827.9632               874.2031
 Red. masses --     4.1569                12.4468                 1.4648
 Frc consts  --     1.5028                 5.0272                 0.6596
 IR Inten    --     2.4082                39.3259                20.4389

                    37                     38                     39
                     A                      A                      A
 Frequencies --   877.2697               908.8605               956.8987
 Red. masses --     1.3037                 1.4692                 3.4448
 Frc consts  --     0.5911                 0.7150                 1.8584
 IR Inten    --     0.0790                 2.4261                20.1568

                    40                     41                     42
                     A                      A                      A
 Frequencies --   971.9228               980.9093               997.0920
 Red. masses --     3.8775                 7.5104                13.7506
 Frc consts  --     2.1581                 4.2576                 8.0545
 IR Inten    --     1.7144                11.6999                 0.3420

                    43                     44                     45
                     A                      A                      A
 Frequencies --  1019.0218              1026.5498              1043.9894
 Red. masses --     5.8877                 2.3700                 1.4605
 Frc consts  --     3.6021                 1.4715                 0.9379
 IR Inten    --     8.4220                 2.6908                 2.1203

                    46                     47                     48
                     A                      A                      A
 Frequencies --  1066.3311              1075.3986              1075.4296
 Red. masses --     2.8936                 1.5393                 1.5022
 Frc consts  --     1.9385                 1.0489                 1.0236
 IR Inten    --     4.8474                 9.0139                 5.1058

                    49                     50                     51
                     A                      A                      A
 Frequencies --  1133.6387              1159.6794              1183.9192
 Red. masses --     2.8761                 3.1636                 1.9763
 Frc consts  --     2.1777                 2.5067                 1.6321
 IR Inten    --    88.8639               134.2333               171.4719

                    52                     53                     54
                     A                      A                      A
 Frequencies --  1184.8864              1186.0480              1196.9917
 Red. masses --     1.2659                 1.2660                 1.4125
 Frc consts  --     1.0471                 1.0492                 1.1924
 IR Inten    --     0.5081                 0.8841                 0.0184

                    55                     56                     57
                     A                      A                      A
 Frequencies --  1226.1688              1240.0724              1308.6257
 Red. masses --     1.7528                 2.0429                 1.4579
 Frc consts  --     1.5527                 1.8510                 1.4710
 IR Inten    --   109.2380               140.0672                 0.0357

                    58                     59                     60
                     A                      A                      A
 Frequencies --  1315.0775              1327.5444              1357.0702
 Red. masses --     9.9444                 7.7444                 4.0771
 Frc consts  --    10.1329                 8.0415                 4.4239
 IR Inten    --    71.1311               188.3140                 0.1498

                    61                     62                     63
                     A                      A                      A
 Frequencies --  1411.4696              1418.9095              1442.2510
 Red. masses --     4.0136                 3.5912                 1.2309
 Frc consts  --     4.7111                 4.2599                 1.5086
 IR Inten    --   714.5614               790.5066                 0.0223

                    64                     65                     66
                     A                      A                      A
 Frequencies --  1444.6578              1472.9903              1476.1847
 Red. masses --     1.2809                 1.7493                 2.2769
 Frc consts  --     1.5750                 2.2362                 2.9233
 IR Inten    --     4.9955                86.4914                 6.9958

                    67                     68                     69
                     A                      A                      A
 Frequencies --  1499.7939              1511.7430              1512.3123
 Red. masses --     2.0466                 1.0482                 1.0479
 Frc consts  --     2.7124                 1.4115                 1.4121
 IR Inten    --     0.0000                 5.8973                 5.8220

                    70                     71                     72
                     A                      A                      A
 Frequencies --  1517.2348              1517.7107              1518.3069
 Red. masses --     1.0527                 1.0677                 1.2809
 Frc consts  --     1.4278                 1.4491                 1.7397
 IR Inten    --     0.1678                 0.3347               123.3390

                    73                     74                     75
                     A                      A                      A
 Frequencies --  1522.2265              1524.8886              1531.3083
 Red. masses --     1.0923                 1.2342                 1.3366
 Frc consts  --     1.4912                 1.6908                 1.8466
 IR Inten    --    16.0359                16.0985                 6.7133

                    76                     77                     78
                     A                      A                      A
 Frequencies --  1535.1849              1565.5437              1609.3982
 Red. masses --     1.2819                 3.4784                 8.7434
 Frc consts  --     1.7800                 5.0230                13.3432
 IR Inten    --    60.5697                 0.8890               879.5498

                    79                     80                     81
                     A                      A                      A
 Frequencies --  1621.7406              1654.3166              1671.6059
 Red. masses --     9.6904                 5.9054                 6.2849
 Frc consts  --    15.0160                 9.5222                10.3471
 IR Inten    --   673.3396                18.6854                38.4636

                    82                     83                     84
                     A                      A                      A
 Frequencies --  3043.5021              3043.9544              3075.4873
 Red. masses --     1.0395                 1.0395                 1.0292
 Frc consts  --     5.6729                 5.6748                 5.7358
 IR Inten    --    42.8061                15.1169                42.7863

                    85                     86                     87
                     A                      A                      A
 Frequencies --  3076.1277              3099.9192              3100.1044
 Red. masses --     1.0292                 1.0973                 1.0972
 Frc consts  --     5.7378                 6.2124                 6.2129
 IR Inten    --    32.7351                 4.1997                36.6492

                    88                     89                     90
                     A                      A                      A
 Frequencies --  3126.4097              3126.5251              3151.6465
 Red. masses --     1.1024                 1.1024                 1.1077
 Frc consts  --     6.3486                 6.3493                 6.4823
 IR Inten    --     5.0623                28.2810                17.8619

                    91                     92                     93
                     A                      A                      A
 Frequencies --  3152.5386              3175.7687              3179.1307
 Red. masses --     1.1077                 1.0899                 1.1074
 Frc consts  --     6.4861                 6.4765                 6.5944
 IR Inten    --    20.5783                21.9385                21.6994

                    94                     95                     96
                     A                      A                      A
 Frequencies --  3179.6077              3205.0178              3205.4055
 Red. masses --     1.1075                 1.0914                 1.0915
 Frc consts  --     6.5969                 6.6055                 6.6074
 IR Inten    --    23.8663                 6.4625                 4.3333

 - Thermochemistry -
 -------------------
 Temperature   298.150 Kelvin.  Pressure   1.00000 Atm.
 Atom     1 has atomic number  6 and mass  12.00000

 Molecular mass:   261.11134 amu.
 Principal axes and moments of inertia in atomic units:
                           1         2         3
     Eigenvalues --  2974.082689325.64385**********
           X            0.99998  -0.00601   0.00000
           Y            0.00601   0.99998   0.00000
           Z           -0.00000  -0.00000   1.00000
 This molecule is an asymmetric top.
 Rotational symmetry number  1.
 Warning -- assumption of classical behavior for rotation
           may cause significant error
 Rotational temperatures (Kelvin)      0.02912     0.00929     0.00846
 Rotational constants (GHZ):           0.60682     0.19352     0.17628
 Zero-point vibrational energy     713564.9 (Joules/Mol)
                                  170.54610 (Kcal/Mol)
 Warning -- explicit consideration of  28 degrees of freedom as
           vibrations may cause significant error
 Vibrational temperatures:     15.11    39.03    44.15    60.52    74.79
          (Kelvin)            143.92   159.99   215.14   231.98   243.22
                              257.50   277.42   303.12   321.96   334.55
                              350.38   361.71   397.62   459.87   499.29
                              649.49   720.00   729.79   738.78   766.19
                              787.38   811.74   873.97   935.51   972.40
                             1013.46  1063.07  1078.35  1127.03  1191.25
                             1257.78  1262.19  1307.65  1376.76  1398.38
                             1411.31  1434.59  1466.14  1476.97  1502.07
                             1534.21  1547.26  1547.30  1631.05  1668.52
                             1703.39  1704.79  1706.46  1722.20  1764.18
                             1784.19  1882.82  1892.10  1910.04  1952.52
                             2030.79  2041.49  2075.07  2078.54  2119.30
                             2123.90  2157.87  2175.06  2175.88  2182.96
                             2183.64  2184.50  2190.14  2193.97  2203.21
                             2208.79  2252.47  2315.56  2333.32  2380.19
                             2405.07  4378.92  4379.57  4424.93  4425.86
                             4460.09  4460.35  4498.20  4498.37  4534.51
                             4535.79  4569.22  4574.05  4574.74  4611.30
                             4611.86

 Zero-point correction=                           0.271783 (Hartree/Particle)
 Thermal correction to Energy=                    0.290399
 Thermal correction to Enthalpy=                  0.291343
 Thermal correction to Gibbs Free Energy=         0.221401
 Sum of electronic and zero-point Energies=           -894.091187
 Sum of electronic and thermal Energies=              -894.072570
 Sum of electronic and thermal Enthalpies=            -894.071626
 Sum of electronic and thermal Free Energies=         -894.141569

                     E (Thermal)             CV                S
                      KCal/Mol        Cal/Mol-Kelvin    Cal/Mol-Kelvin
 Total                  182.228             66.818            147.206
 Electronic               0.000              0.000              0.000
 Translational            0.889              2.981             42.579
 Rotational               0.889              2.981             34.006
 Vibrational            180.450             60.856             70.621
 Vibration     1          0.593              1.987              7.914
 Vibration     2          0.593              1.984              6.029
 Vibration     3          0.594              1.984              5.784
 Vibration     4          0.595              1.980              5.159
 Vibration     5          0.596              1.977              4.740
 Vibration     6          0.604              1.949              3.454
 Vibration     7          0.607              1.940              3.248
 Vibration     8          0.618              1.903              2.678
 Vibration     9          0.622              1.890              2.535
 Vibration    10          0.625              1.881              2.446
 Vibration    11          0.629              1.868              2.339
 Vibration    12          0.635              1.850              2.201
 Vibration    13          0.643              1.825              2.038
 Vibration    14          0.649              1.805              1.928
 Vibration    15          0.653              1.791              1.859
 Vibration    16          0.659              1.773              1.777
 Vibration    17          0.663              1.760              1.721
 Vibration    18          0.678              1.717              1.556
 Vibration    19          0.706              1.636              1.312
 Vibration    20          0.725              1.581              1.180
 Vibration    21          0.810              1.358              0.791
 Vibration    22          0.856              1.249              0.657
 Vibration    23          0.862              1.234              0.640
 Vibration    24          0.869              1.220              0.625
 Vibration    25          0.888              1.178              0.582
 Vibration    26          0.902              1.146              0.550
 Vibration    27          0.920              1.109              0.516
 Vibration    28          0.966              1.016              0.437

 Optimization completed.
    -- Stationary point found.
 Normal termination of Gaussian 09 at Wed Sep 29 10:27:01 2021.
 Gaussian 09:  AM64L-G09RevA.02 11-Jun-2009

 ----------------------------------------------------------------------
 #p TD(NStates=10, Root=1) b3lyp/6-31G* volume pop=NPA density=current
 Geom=AllCheck Guess=Read
 ----------------------------------------------------------------------

 COc1nc(Oc2cc(C)cc(c2)C)nc(n1)OC_conf_0
 --------------------------------------
 Redundant internal coordinates taken from checkpoint file:
 C13H15N3O3_3919_conf_0.chk
 Charge =  0 Multiplicity = 1

                         Standard orientation:
 ---------------------------------------------------------------------
 Center     Atomic      Atomic             Coordinates (Angstroms)
 Number     Number       Type             X           Y           Z
 ---------------------------------------------------------------------
      1          6           0        2.974157    3.411289   -0.000103
      2          8           0        1.758718    2.648566   -0.000095
      3          6           0        1.868215    1.319897   -0.000062
      4          7           0        0.690824    0.674737   -0.000036
      5          6           0        0.819498   -0.644468   -0.000009
      6          8           0       -0.278867   -1.419697   -0.000006
      7          6           0       -1.548818   -0.822107    0.000012
      8          6           0       -2.179767   -0.587221   -1.214997
      9          6           0       -3.486371   -0.086391   -1.224635
     10          6           0       -4.185060    0.204839   -2.532680
     11          6           0       -4.121343    0.153187    0.000030
     12          6           0       -3.486299   -0.086243    1.224678
     13          6           0       -2.179685   -0.587067    1.215031
     14          6           0       -4.184917    0.205112    2.532736
     15          7           0        1.963201   -1.343909    0.000019
     16          6           0        3.048832   -0.574203    0.000001
     17          7           0        3.078449    0.766906   -0.000052
     18          8           0        4.253541   -1.145626    0.000038
     19          6           0        4.304319   -2.580104    0.000110
     20          1           0        2.652140    4.453354   -0.000130
     21          1           0        3.570793    3.192734   -0.889550
     22          1           0        3.570781    3.192772    0.889359
     23          1           0       -1.653871   -0.801348   -2.140768
     24          1           0       -3.956392   -0.555087   -3.288078
     25          1           0       -3.869712    1.173609   -2.942130
     26          1           0       -5.271877    0.240720   -2.406227
     27          1           0       -5.141423    0.532210    0.000040
     28          1           0       -1.653743   -0.801063    2.140805
     29          1           0       -5.271713    0.241461    2.406246
     30          1           0       -3.869172    1.173686    2.942346
     31          1           0       -3.956605   -0.555021    3.288035
     32          1           0        5.367434   -2.823730    0.000125
     33          1           0        3.816175   -2.986785   -0.889295
     34          1           0        3.816163   -2.986697    0.889545
 ---------------------------------------------------------------------

 SCF Done:  E(RB3LYP) =  -894.362969100     A.U. after    1 cycles

 Excitation energies and oscillator strengths:

 Excited State   1:      Singlet-A      5.2472 eV  236.28 nm  f=0.0023  <S**2>=0.000
      68 -> 70         0.49968
      68 -> 72        -0.28334
      69 -> 73         0.40011
 This state for optimization and/or second-order correction.
 Total Energy, E(TD-HF/TD-KS) =  -894.170136373
 Copying the excited state density for this state as the 1-particle RhoCI density.

 Excited State   2:      Singlet-A      5.3876 eV  230.13 nm  f=0.0001  <S**2>=0.000
      64 -> 71         0.11265
      65 -> 70        -0.12523
      65 -> 71        -0.11535
      68 -> 70         0.24497
      68 -> 71         0.53469
      68 -> 72         0.26777
      69 -> 73        -0.18422

 Excited State   3:      Singlet-A      5.5153 eV  224.80 nm  f=0.0105  <S**2>=0.000
      69 -> 70         0.54342
      69 -> 71         0.43339
      69 -> 72         0.10445

 Excited State   4:      Singlet-A      5.5303 eV  224.19 nm  f=0.0001  <S**2>=0.000
      65 -> 70         0.21466
      65 -> 71        -0.15969
      68 -> 70        -0.31834
      68 -> 71         0.40066
      68 -> 72        -0.34082
      69 -> 73         0.18151

 Excited State   5:      Singlet-A      5.6174 eV  220.72 nm  f=0.0144  <S**2>=0.000
      69 -> 70        -0.40995
      69 -> 71         0.55566

 Excited State   6:      Singlet-A      5.7607 eV  215.22 nm  f=0.0000  <S**2>=0.000
      64 -> 71         0.56661
      65 -> 70        -0.30218
      65 -> 71         0.18961
      65 -> 72        -0.11731
      68 -> 70        -0.15348

 Excited State   7:      Singlet-A      5.8527 eV  211.84 nm  f=0.0012  <S**2>=0.000
      64 -> 70         0.19455
      64 -> 71         0.21777
      65 -> 70         0.49478
      65 -> 71         0.35849
      65 -> 72         0.13252
      68 -> 70         0.11118

 Excited State   8:      Singlet-A      5.8785 eV  210.91 nm  f=0.0003  <S**2>=0.000
      64 -> 70         0.51554
      64 -> 71         0.13883
      64 -> 72         0.16138
      65 -> 71        -0.40313
      68 -> 71        -0.13199

 Excited State   9:      Singlet-A      5.8886 eV  210.55 nm  f=0.0007  <S**2>=0.000
      66 -> 70        -0.13631
      66 -> 71         0.44575
      67 -> 70         0.46221
      67 -> 71         0.17042
      67 -> 72         0.12865

 Excited State  10:      Singlet-A      5.9686 eV  207.73 nm  f=0.0037  <S**2>=0.000
      64 -> 70         0.36447
      64 -> 71        -0.30613
      64 -> 72         0.13634
      65 -> 70        -0.22057
      65 -> 71         0.35910
      68 -> 70        -0.14613
      68 -> 71         0.17512
      68 -> 72        -0.11929

 The electronic state is 1-A.
 Alpha  occ. eigenvalues --  -19.19826 -19.19500 -19.19358 -14.33156 -14.33070
 Alpha  occ. eigenvalues --  -14.32964 -10.32460 -10.32176 -10.32073 -10.24588
 Alpha  occ. eigenvalues --  -10.24059 -10.23949 -10.19816 -10.19815 -10.18430
 Alpha  occ. eigenvalues --  -10.18430 -10.18338 -10.18338 -10.18166  -1.10997
 Alpha  occ. eigenvalues --   -1.09540  -1.09163  -0.99297  -0.89636  -0.89414
 Alpha  occ. eigenvalues --   -0.85607  -0.78079  -0.76363  -0.73952  -0.72945
 Alpha  occ. eigenvalues --   -0.69268  -0.68494  -0.66784  -0.62951  -0.59584
 Alpha  occ. eigenvalues --   -0.57712  -0.57698  -0.54881  -0.51451  -0.50653
 Alpha  occ. eigenvalues --   -0.50082  -0.49253  -0.48399  -0.47375  -0.44302
 Alpha  occ. eigenvalues --   -0.44045  -0.43568  -0.42545  -0.41768  -0.41268
 Alpha  occ. eigenvalues --   -0.40641  -0.40497  -0.39819  -0.39526  -0.38494
 Alpha  occ. eigenvalues --   -0.37113  -0.36950  -0.35908  -0.35506  -0.35047
 Alpha  occ. eigenvalues --   -0.34086  -0.33438  -0.29981  -0.27539  -0.27399
 Alpha  occ. eigenvalues --   -0.27232  -0.26976  -0.23645  -0.23614
 Alpha virt. eigenvalues --   -0.01067  -0.00965   0.00252   0.00556   0.09590
 Alpha virt. eigenvalues --    0.11485   0.11899   0.12064   0.12727   0.12878
 Alpha virt. eigenvalues --    0.12920   0.13561   0.14155   0.14410   0.15658

 Mulliken atomic charges:
              1
     1  C   -0.204648
     2  O   -0.468262
     3  C    0.655486
     4  N   -0.498911
     5  C    0.635304
     6  O   -0.531991
     7  C    0.377975
     8  C   -0.190084
     9  C    0.159163
    10  C   -0.530092
    11  C   -0.203984
    12  C    0.159158
    13  C   -0.190070
    14  C   -0.530093
    15  N   -0.538185
    16  C    0.677998
    17  N   -0.534702
    18  O   -0.462389
    19  C   -0.206955
    20  H    0.159610
    21  H    0.167504
    22  H    0.167504
    23  H    0.148866
    24  H    0.164266
    25  H    0.175624
    26  H    0.158029
    27  H    0.135225
    28  H    0.148869
    29  H    0.158027
    30  H    0.175622
    31  H    0.164267
    32  H    0.163038
    33  H    0.169416
    34  H    0.169415
 Sum of Mulliken atomic charges =  -0.00000

 Dipole moment (field-independent basis, Debye):
    X=             -3.0164    Y=             -0.1057    Z=              0.0002  Tot=              3.0182
 Quadrupole moment (field-independent basis, Debye-Ang):
   XX=            -94.2972   YY=           -104.9097   ZZ=           -101.2376
   XY=             -3.3161   XZ=              0.0005   YZ=              0.0001

 Summary of Natural Population Analysis:

                                       Natural Population
                Natural  -----------------------------------------------
    Atom  No    Charge         Core      Valence    Rydberg      Total
 -----------------------------------------------------------------------
      C    1   -0.31832      1.99941     4.30521    0.01370     6.31832
      O    2   -0.51071      1.99972     6.49878    0.01221     8.51071
      C    3    0.72695      1.99922     3.23748    0.03636     5.27305
      N    4   -0.57068      1.99923     5.55162    0.01983     7.57068
      C    5    0.71901      1.99917     3.24508    0.03674     5.28099
      O    6   -0.49978      1.99966     6.48782    0.01230     8.49978
      C    7    0.36093      1.99872     3.61540    0.02495     5.63907
      C    8   -0.25076      1.99892     4.23505    0.01678     6.25076
      C    9   -0.02542      1.99908     4.01010    0.01624     6.02542
      C   10   -0.69276      1.99940     4.68562    0.00773     6.69276
      C   11   -0.16375      1.99899     4.15027    0.01449     6.16375
      C   12   -0.02543      1.99908     4.01011    0.01624     6.02543
      C   13   -0.25074      1.99892     4.23504    0.01678     6.25074
      C   14   -0.69276      1.99940     4.68562    0.00773     6.69276
      N   15   -0.63077      1.99925     5.61000    0.02151     7.63077
      C   16    0.77273      1.99921     3.19150    0.03656     5.22727
      N   17   -0.62776      1.99926     5.60711    0.02139     7.62776
      O   18   -0.50491      1.99972     6.49315    0.01205     8.50491
      C   19   -0.31965      1.99941     4.30663    0.01361     6.31965
      H   20    0.21964      0.00000     0.77971    0.00064     0.78036
      H   21    0.21788      0.00000     0.78065    0.00147     0.78212
      H   22    0.21788      0.00000     0.78065    0.00147     0.78212
      H   23    0.24852      0.00000     0.75040    0.00108     0.75148
      H   24    0.24321      0.00000     0.75528    0.00151     0.75679
      H   25    0.24901      0.00000     0.74911    0.00187     0.75099
      H   26    0.23871      0.00000     0.76023    0.00106     0.76129
      H   27    0.23020      0.00000     0.76869    0.00111     0.76980
      H   28    0.24852      0.00000     0.75040    0.00108     0.75148
      H   29    0.23871      0.00000     0.76024    0.00106     0.76129
      H   30    0.24901      0.00000     0.74912    0.00187     0.75099
      H   31    0.24321      0.00000     0.75528    0.00151     0.75679
      H   32    0.22154      0.00000     0.77782    0.00064     0.77846
      H   33    0.21928      0.00000     0.77929    0.00144     0.78072
      H   34    0.21928      0.00000     0.77929    0.00144     0.78072
 =======================================================================
   * Total *   -0.00000     37.98578    99.63778    0.37644   138.00000

 Normal termination of Gaussian 09 at Wed Sep 29 16:59:20 2021.
