 Gaussian 09, Revision A.02,

 -----------------------------------
 #p opt b3lyp/6-31G* scf=(xqc,tight)
 -----------------------------------

 --------------------------------------
 COc1nc(nc(n1)OC)Oc1ccc(cc1C)C=O_conf_0
 --------------------------------------
 Symbolic Z-matrix:
 Charge =  0 Multiplicity = 1

 SCF Done:  E(RB3LYP) =  -968.355595965     A.U. after   15 cycles
 SCF Done:  E(RB3LYP) =  -968.365348999     A.U. after   14 cycles
 SCF Done:  E(RB3LYP) =  -968.367667034     A.U. after   13 cycles
 SCF Done:  E(RB3LYP) =  -968.368420247     A.U. after   13 cycles
 SCF Done:  E(RB3LYP) =  -968.368284524     A.U. after   13 cycles
 SCF Done:  E(RB3LYP) =  -968.368613813     A.U. after   12 cycles
 SCF Done:  E(RB3LYP) =  -968.369004657     A.U. after   12 cycles
 SCF Done:  E(RB3LYP) =  -968.369217394     A.U. after   12 cycles
 SCF Done:  E(RB3LYP) =  -968.369366842     A.U. after   12 cycles
 SCF Done:  E(RB3LYP) =  -968.369476221     A.U. after   12 cycles
 SCF Done:  E(RB3LYP) =  -968.369647570     A.U. after   13 cycles
 SCF Done:  E(RB3LYP) =  -968.369648553     A.U. after   11 cycles
 SCF Done:  E(RB3LYP) =  -968.369657645     A.U. after   11 cycles
 SCF Done:  E(RB3LYP) =  -968.369663467     A.U. after   12 cycles
 SCF Done:  E(RB3LYP) =  -968.369664987     A.U. after    9 cycles
 SCF Done:  E(RB3LYP) =  -968.369664435     A.U. after    9 cycles
 SCF Done:  E(RB3LYP) =  -968.369665305     A.U. after    9 cycles
 SCF Done:  E(RB3LYP) =  -968.369665398     A.U. after    7 cycles
 Optimization completed.
    -- Stationary point found.
 Normal termination of Gaussian 09 at Tue Sep 28 20:15:28 2021.

 ----------------------------------------------------------------------
 #p freq b3lyp/6-31G* volume NMR pop=NPA density=current Geom=AllCheck
 Guess=Read
 ----------------------------------------------------------------------

 COc1nc(nc(n1)OC)Oc1ccc(cc1C)C=O_conf_0
 --------------------------------------
 Redundant internal coordinates taken from checkpoint file:
 C13H13N3O4_0f4f_conf_0.chk
 Charge =  0 Multiplicity = 1

 SCF Done:  E(RB3LYP) =  -968.369665398     A.U. after    1 cycles

  1  C    Isotropic =   136.1691   Anisotropy =    65.1001

  2  O    Isotropic =   188.9643   Anisotropy =    92.4435

  3  C    Isotropic =    22.5245   Anisotropy =   101.2008

  4  N    Isotropic =    57.3579   Anisotropy =   279.9824

  5  C    Isotropic =    23.8154   Anisotropy =    92.4956

  6  N    Isotropic =    67.7759   Anisotropy =   274.7305

  7  C    Isotropic =    23.9609   Anisotropy =    99.9906

  8  N    Isotropic =    62.0705   Anisotropy =   284.2980

  9  O    Isotropic =   190.2862   Anisotropy =    90.5880

 10  C    Isotropic =   136.5308   Anisotropy =    63.8841

 11  O    Isotropic =   136.9760   Anisotropy =    98.0559

 12  C    Isotropic =    39.3924   Anisotropy =   109.8882

 13  C    Isotropic =    72.0516   Anisotropy =   144.4112

 14  C    Isotropic =    68.4836   Anisotropy =   175.4809

 15  C    Isotropic =    63.0447   Anisotropy =   163.2449

 16  C    Isotropic =    59.1190   Anisotropy =   151.9794

 17  C    Isotropic =    62.7937   Anisotropy =   163.7178

 18  C    Isotropic =   171.5375   Anisotropy =    26.1638

 19  C    Isotropic =    10.1774   Anisotropy =   121.9235

 20  O    Isotropic =  -271.4232   Anisotropy =   978.6767

 21  H    Isotropic =    28.4772   Anisotropy =     7.7740

 22  H    Isotropic =    28.2862   Anisotropy =     8.0596

 23  H    Isotropic =    28.3014   Anisotropy =     7.9836

 24  H    Isotropic =    28.7166   Anisotropy =     7.5202

 25  H    Isotropic =    28.7699   Anisotropy =     6.4252

 26  H    Isotropic =    28.7872   Anisotropy =     6.2439

 27  H    Isotropic =    25.1613   Anisotropy =     7.4323

 28  H    Isotropic =    24.1870   Anisotropy =     5.4193

 29  H    Isotropic =    24.9111   Anisotropy =     5.8883

 30  H    Isotropic =    30.3695   Anisotropy =     8.8680

 31  H    Isotropic =    29.6147   Anisotropy =     7.0654

 32  H    Isotropic =    30.1067   Anisotropy =     5.7877

 33  H    Isotropic =    22.3182   Anisotropy =     3.6900

  Exact polarizability: 247.518  26.647 127.836  -0.346  -2.812 132.954
 Approx polarizability: 330.889  48.067 211.072  -5.147  -3.648 221.876

                     1                      2                      3
                     A                      A                      A
 Frequencies --    19.2975                24.5958                39.3402
 Red. masses --     4.7882                 4.8924                 6.1819
 Frc consts  --     0.0011                 0.0017                 0.0056
 IR Inten    --     0.7697                 0.2819                 0.2218

                     4                      5                      6
                     A                      A                      A
 Frequencies --    99.9414               104.3435               111.6490
 Red. masses --     3.3601                 6.4892                 3.1555
 Frc consts  --     0.0198                 0.0416                 0.0232
 IR Inten    --     6.9322                 2.9455                 0.2754

                     7                      8                      9
                     A                      A                      A
 Frequencies --   131.9103               147.1683               150.5054
 Red. masses --     1.2515                 2.0821                 1.2928
 Frc consts  --     0.0128                 0.0266                 0.0173
 IR Inten    --     0.0704                 2.3602                 0.1270

                    10                     11                     12
                     A                      A                      A
 Frequencies --   164.0238               176.9053               191.2677
 Red. masses --     1.2389                 5.3880                 3.5535
 Frc consts  --     0.0196                 0.0993                 0.0766
 IR Inten    --     0.0079                 1.4280                 6.4215

                    13                     14                     15
                     A                      A                      A
 Frequencies --   196.3900               216.7215               230.6605
 Red. masses --     3.9461                 4.6813                 5.5108
 Frc consts  --     0.0897                 0.1295                 0.1727
 IR Inten    --     1.3524                 6.5090                 0.4365

                    16                     17                     18
                     A                      A                      A
 Frequencies --   246.3171               250.8485               296.0354
 Red. masses --     2.8983                 4.6225                 4.0879
 Frc consts  --     0.1036                 0.1714                 0.2111
 IR Inten    --     5.6593                 3.8062                 2.8922

                    19                     20                     21
                     A                      A                      A
 Frequencies --   308.3898               339.6480               412.0980
 Red. masses --     4.1816                 4.1295                 7.0294
 Frc consts  --     0.2343                 0.2807                 0.7033
 IR Inten    --     3.7464                 5.2474                 2.5071

                    22                     23                     24
                     A                      A                      A
 Frequencies --   451.3765               459.6599               493.6582
 Red. masses --     3.4361                 5.0776                 4.7386
 Frc consts  --     0.4125                 0.6321                 0.6804
 IR Inten    --     0.6396                17.7396                 2.8816

                    25                     26                     27
                     A                      A                      A
 Frequencies --   547.0256               561.7041               570.4571
 Red. masses --     5.6467                 4.8843                 5.7217
 Frc consts  --     0.9955                 0.9080                 1.0970
 IR Inten    --     2.4606                 2.2943                 2.5078

                    28                     29                     30
                     A                      A                      A
 Frequencies --   602.5420               653.0667               665.4410
 Red. masses --     7.2304                 6.0432                 5.9562
 Frc consts  --     1.5466                 1.5186                 1.5540
 IR Inten    --     3.8253                 6.4397                 2.0922

                    31                     32                     33
                     A                      A                      A
 Frequencies --   717.4936               736.3547               750.3410
 Red. masses --     5.9437                12.0868                11.9810
 Frc consts  --     1.8028                 3.8613                 3.9743
 IR Inten    --     1.8777                 0.0083                 0.0794

                    34                     35                     36
                     A                      A                      A
 Frequencies --   754.3477               788.8348               827.5850
 Red. masses --     4.0819                 5.3965                 5.0027
 Frc consts  --     1.3685                 1.9785                 2.0188
 IR Inten    --     0.3220                51.1541                22.9126

                    37                     38                     39
                     A                      A                      A
 Frequencies --   828.5681               866.1912               902.9288
 Red. masses --     6.2212                 1.7610                 1.3053
 Frc consts  --     2.5164                 0.7785                 0.6270
 IR Inten    --    19.2582                24.7899                 7.4450

                    40                     41                     42
                     A                      A                      A
 Frequencies --   954.5845               977.0881               979.7594
 Red. masses --     3.8819                 1.3996                 5.5474
 Frc consts  --     2.0841                 0.7873                 3.1374
 IR Inten    --    23.3183                 2.6222                12.5555

                    43                     44                     45
                     A                      A                      A
 Frequencies --   997.8830              1027.0439              1033.3692
 Red. masses --    13.6834                 1.5458                 1.8040
 Frc consts  --     8.0279                 0.9607                 1.1350
 IR Inten    --     0.1746                 1.1682                 0.1937

                    46                     47                     48
                     A                      A                      A
 Frequencies --  1036.5982              1077.4742              1124.7631
 Red. masses --     7.9769                 1.5074                 3.6396
 Frc consts  --     5.0501                 1.0311                 2.7128
 IR Inten    --     2.2754                 4.5261                43.0287

                    49                     50                     51
                     A                      A                      A
 Frequencies --  1141.0329              1160.5971              1184.0779
 Red. masses --     2.2493                 2.7417                 1.5869
 Frc consts  --     1.7254                 2.1759                 1.3108
 IR Inten    --    95.5139               182.0708               104.3616

                    52                     53                     54
                     A                      A                      A
 Frequencies --  1184.2381              1185.0071              1220.6162
 Red. masses --     1.2689                 1.2662                 1.5617
 Frc consts  --     1.0485                 1.0476                 1.3709
 IR Inten    --     1.8330                 0.9448                22.9724

                    55                     56                     57
                     A                      A                      A
 Frequencies --  1234.8695              1240.1346              1275.4042
 Red. masses --     2.5607                 2.2590                 3.5597
 Frc consts  --     2.3007                 2.0470                 3.4116
 IR Inten    --    90.8236               158.4284               301.4031

                    58                     59                     60
                     A                      A                      A
 Frequencies --  1317.2861              1323.1038              1359.8993
 Red. masses --     1.7066                 7.7177                 8.0428
 Frc consts  --     1.7448                 7.9602                 8.7634
 IR Inten    --    36.8632               127.5764                 6.5948

                    61                     62                     63
                     A                      A                      A
 Frequencies --  1403.8862              1419.0054              1422.9087
 Red. masses --     5.1535                 2.4153                 2.3163
 Frc consts  --     5.9843                 2.8655                 2.7631
 IR Inten    --  1044.6657               225.9081               215.3642

                    64                     65                     66
                     A                      A                      A
 Frequencies --  1442.8111              1467.7214              1470.0679
 Red. masses --     1.2405                 1.7861                 1.7810
 Frc consts  --     1.5215                 2.2669                 2.2677
 IR Inten    --     6.3975                 7.7526                 8.9372

                    67                     68                     69
                     A                      A                      A
 Frequencies --  1511.4184              1512.9609              1513.4871
 Red. masses --     1.0560                 1.0479                 1.0487
 Frc consts  --     1.4213                 1.4133                 1.4153
 IR Inten    --     4.2715                 5.9967                 8.3941

                    70                     71                     72
                     A                      A                      A
 Frequencies --  1519.2372              1520.3811              1523.2655
 Red. masses --     1.1746                 1.1203                 1.3176
 Frc consts  --     1.5973                 1.5258                 1.8012
 IR Inten    --   121.3870                14.3423                11.5215

                    73                     74                     75
                     A                      A                      A
 Frequencies --  1524.9887              1545.4053              1566.9527
 Red. masses --     1.4133                 1.9578                 3.3970
 Frc consts  --     1.9365                 2.7548                 4.9143
 IR Inten    --    28.1308                52.7705                 7.2185

                    76                     77                     78
                     A                      A                      A
 Frequencies --  1599.7215              1628.5879              1637.8807
 Red. masses --     8.2764                 8.3294                 8.1930
 Frc consts  --    12.4791                13.0163                12.9496
 IR Inten    --   611.4659               914.8257               140.3539

                    79                     80                     81
                     A                      A                      A
 Frequencies --  1666.4242              1799.4936              2906.9315
 Red. masses --     6.1917                 9.7921                 1.0837
 Frc consts  --    10.1305                18.6821                 5.3956
 IR Inten    --     2.1464               256.3386               142.5536

                    82                     83                     84
                     A                      A                      A
 Frequencies --  3053.0186              3077.2740              3077.5293
 Red. masses --     1.0384                 1.0293                 1.0295
 Frc consts  --     5.7025                 5.7427                 5.7446
 IR Inten    --    17.8736                47.7397                17.8088

                    85                     86                     87
                     A                      A                      A
 Frequencies --  3110.9706              3138.9122              3154.1223
 Red. masses --     1.0982                 1.1029                 1.1078
 Frc consts  --     6.2624                 6.4022                 6.4933
 IR Inten    --    12.4194                14.1126                 9.5876

                    88                     89                     90
                     A                      A                      A
 Frequencies --  3154.2453              3174.3024              3182.7448
 Red. masses --     1.1078                 1.0896                 1.1074
 Frc consts  --     6.4936                 6.4688                 6.6094
 IR Inten    --    26.9323                11.7724                22.7535

                    91                     92                     93
                     A                      A                      A
 Frequencies --  3183.6103              3213.6993              3227.7080
 Red. masses --     1.1073                 1.0886                 1.0949
 Frc consts  --     6.6124                 6.6240                 6.7208
 IR Inten    --    20.5413                 1.9386                 3.2438

 - Thermochemistry -
 -------------------
 Temperature   298.150 Kelvin.  Pressure   1.00000 Atm.
 Atom     1 has atomic number  6 and mass  12.00000

 Molecular mass:   275.09061 amu.
 Principal axes and moments of inertia in atomic units:
                           1         2         3
     Eigenvalues --  2375.71891********************
           X            0.99998  -0.00182   0.00521
           Y            0.00193   0.99980  -0.01995
           Z           -0.00517   0.01996   0.99979
 This molecule is an asymmetric top.
 Rotational symmetry number  1.
 Warning -- assumption of classical behavior for rotation
           may cause significant error
 Rotational temperatures (Kelvin)      0.03646     0.00799     0.00736
 Rotational constants (GHZ):           0.75966     0.16652     0.15328
 Zero-point vibrational energy     666452.4 (Joules/Mol)
                                  159.28594 (Kcal/Mol)
 Warning -- explicit consideration of  28 degrees of freedom as
           vibrations may cause significant error
 Vibrational temperatures:     27.76    35.39    56.60   143.79   150.13
          (Kelvin)            160.64   189.79   211.74   216.54   235.99
                              254.53   275.19   282.56   311.81   331.87
                              354.39   360.91   425.93   443.70   488.68
                              592.92   649.43   661.35   710.26   787.05
                              808.17   820.76   866.92   939.62   957.42
                             1032.31  1059.45  1079.57  1085.34  1134.96
                             1190.71  1192.12  1246.25  1299.11  1373.43
                             1405.81  1409.65  1435.73  1477.69  1486.79
                             1491.43  1550.24  1618.28  1641.69  1669.84
                             1703.62  1703.85  1704.96  1756.19  1776.70
                             1784.27  1835.02  1895.28  1903.65  1956.59
                             2019.88  2041.63  2047.25  2075.88  2111.72
                             2115.10  2174.59  2176.81  2177.57  2185.84
                             2187.49  2191.64  2194.12  2223.49  2254.49
                             2301.64  2343.17  2356.54  2397.61  2589.07
                             4182.42  4392.61  4427.51  4427.87  4475.99
                             4516.19  4538.07  4538.25  4567.11  4579.25
                             4580.50  4623.79  4643.95

 Zero-point correction=                           0.253838 (Hartree/Particle)
 Thermal correction to Energy=                    0.272374
 Thermal correction to Enthalpy=                  0.273318
 Thermal correction to Gibbs Free Energy=         0.205248
 Sum of electronic and zero-point Energies=           -968.115827
 Sum of electronic and thermal Energies=              -968.097292
 Sum of electronic and thermal Enthalpies=            -968.096348
 Sum of electronic and thermal Free Energies=         -968.164418

                     E (Thermal)             CV                S
                      KCal/Mol        Cal/Mol-Kelvin    Cal/Mol-Kelvin
 Total                  170.917             67.388            143.266
 Electronic               0.000              0.000              0.000
 Translational            0.889              2.981             42.734
 Rotational               0.889              2.981             34.071
 Vibrational            169.140             61.426             66.460
 Vibration     1          0.593              1.986              6.705
 Vibration     2          0.593              1.985              6.224
 Vibration     3          0.594              1.981              5.292
 Vibration     4          0.604              1.949              3.455
 Vibration     5          0.605              1.946              3.372
 Vibration     6          0.607              1.940              3.240
 Vibration     7          0.612              1.921              2.918
 Vibration     8          0.617              1.906              2.709
 Vibration     9          0.618              1.902              2.666
 Vibration    10          0.623              1.887              2.503
 Vibration    11          0.628              1.871              2.361
 Vibration    12          0.634              1.852              2.216
 Vibration    13          0.636              1.845              2.167
 Vibration    14          0.646              1.816              1.986
 Vibration    15          0.652              1.794              1.874
 Vibration    16          0.661              1.769              1.757
 Vibration    17          0.663              1.761              1.725
 Vibration    18          0.690              1.681              1.439
 Vibration    19          0.698              1.658              1.371
 Vibration    20          0.720              1.596              1.214
 Vibration    21          0.776              1.444              0.919
 Vibration    22          0.810              1.358              0.792
 Vibration    23          0.818              1.340              0.767
 Vibration    24          0.849              1.264              0.674
 Vibration    25          0.902              1.146              0.550
 Vibration    26          0.917              1.114              0.520
 Vibration    27          0.927              1.095              0.503
 Vibration    28          0.961              1.026              0.445

 Optimization completed.
    -- Stationary point found.
 Normal termination of Gaussian 09 at Tue Sep 28 22:11:43 2021.
 Gaussian 09:  AM64L-G09RevA.02 11-Jun-2009

 ----------------------------------------------------------------------
 #p TD(NStates=10, Root=1) b3lyp/6-31G* volume pop=NPA density=current
 Geom=AllCheck Guess=Read
 ----------------------------------------------------------------------

 COc1nc(nc(n1)OC)Oc1ccc(cc1C)C=O_conf_0
 --------------------------------------
 Redundant internal coordinates taken from checkpoint file:
 C13H13N3O4_0f4f_conf_0.chk
 Charge =  0 Multiplicity = 1

                         Standard orientation:
 ---------------------------------------------------------------------
 Center     Atomic      Atomic             Coordinates (Angstroms)
 Number     Number       Type             X           Y           Z
 ---------------------------------------------------------------------
      1          6           0       -5.686324   -0.383372   -0.296222
      2          8           0       -4.497830   -1.181458   -0.406824
      3          6           0       -3.326401   -0.566946   -0.261614
      4          7           0       -2.264135   -1.376875   -0.382142
      5          6           0       -1.112436   -0.741887   -0.233543
      6          7           0       -0.928992    0.559985    0.015466
      7          6           0       -2.072615    1.245005    0.107062
      8          7           0       -3.306001    0.745289   -0.020559
      9          8           0       -2.028481    2.553711    0.347994
     10          6           0       -0.735225    3.163446    0.483620
     11          8           0       -0.024749   -1.532707   -0.352018
     12          6           0        1.252869   -0.980675   -0.238117
     13          6           0        1.907258   -0.589688   -1.406532
     14          6           0        3.215907   -0.131770   -1.333795
     15          6           0        3.861721   -0.077161   -0.090377
     16          6           0        3.184554   -0.487076    1.065014
     17          6           0        1.866337   -0.948108    1.021243
     18          6           0        1.127537   -1.388074    2.259112
     19          6           0        5.256179    0.405900    0.007100
     20          8           0        5.924770    0.788414   -0.934348
     21          1           0       -6.508735   -1.082795   -0.449569
     22          1           0       -5.699959    0.400310   -1.057902
     23          1           0       -5.753186    0.079189    0.691763
     24          1           0       -0.940106    4.219572    0.661162
     25          1           0       -0.146806    3.033385   -0.428048
     26          1           0       -0.188272    2.731616    1.325716
     27          1           0        1.380514   -0.657409   -2.353049
     28          1           0        3.756448    0.182481   -2.220909
     29          1           0        3.699192   -0.448176    2.023680
     30          1           0        1.801117   -1.430134    3.119842
     31          1           0        0.675842   -2.376565    2.123870
     32          1           0        0.314731   -0.692034    2.500408
     33          1           0        5.677266    0.400514    1.037542
 ---------------------------------------------------------------------

 SCF Done:  E(RB3LYP) =  -968.369665398     A.U. after    2 cycles

 Excitation energies and oscillator strengths:

 Excited State   1:      Singlet-A      3.7085 eV  334.32 nm  f=0.0000  <S**2>=0.000
      71 -> 73         0.69472
      71 -> 77         0.12879
 This state for optimization and/or second-order correction.
 Total Energy, E(TD-HF/TD-KS) =  -968.233379325
 Copying the excited state density for this state as the 1-particle RhoCI density.

 Excited State   2:      Singlet-A      4.6922 eV  264.23 nm  f=0.0358  <S**2>=0.000
      70 -> 73         0.49444
      72 -> 73        -0.42627
      72 -> 74         0.14540
      72 -> 76         0.18199

 Excited State   3:      Singlet-A      5.0332 eV  246.33 nm  f=0.3449  <S**2>=0.000
      70 -> 73         0.40181
      72 -> 73         0.53425
      72 -> 74         0.11630
      72 -> 76         0.12996

 Excited State   4:      Singlet-A      5.2566 eV  235.86 nm  f=0.0004  <S**2>=0.000
      67 -> 73        -0.15423
      69 -> 73         0.68273

 Excited State   5:      Singlet-A      5.4327 eV  228.22 nm  f=0.0077  <S**2>=0.000
      68 -> 73         0.69050

 Excited State   6:      Singlet-A      5.4589 eV  227.12 nm  f=0.0025  <S**2>=0.000
      65 -> 73         0.14603
      67 -> 73         0.66679
      69 -> 73         0.16755

 Excited State   7:      Singlet-A      5.5215 eV  224.55 nm  f=0.0019  <S**2>=0.000
      66 -> 73         0.15486
      66 -> 74        -0.23565
      68 -> 74        -0.13053
      68 -> 75        -0.18511
      70 -> 74         0.12331
      72 -> 74         0.48129
      72 -> 75         0.22958
      72 -> 76        -0.17702

 Excited State   8:      Singlet-A      5.5714 eV  222.54 nm  f=0.0165  <S**2>=0.000
      66 -> 73         0.66845

 Excited State   9:      Singlet-A      5.6243 eV  220.44 nm  f=0.0000  <S**2>=0.000
      71 -> 74         0.52347
      71 -> 76         0.46699

 Excited State  10:      Singlet-A      5.6861 eV  218.05 nm  f=0.0017  <S**2>=0.000
      66 -> 75         0.12787
      68 -> 74        -0.22729
      68 -> 75         0.46864
      68 -> 76         0.16710
      70 -> 75        -0.10704
      72 -> 74         0.22446
      72 -> 75        -0.31494
      72 -> 76        -0.12871

 The electronic state is 1-A.
 Alpha  occ. eigenvalues --  -19.21350 -19.20631 -19.20133 -19.14680 -14.34683
 Alpha  occ. eigenvalues --  -14.34094 -14.33800 -10.33697 -10.33441 -10.32994
 Alpha  occ. eigenvalues --  -10.27686 -10.26937 -10.25061 -10.24558 -10.21909
 Alpha  occ. eigenvalues --  -10.21364 -10.20946 -10.20890 -10.20788 -10.19707
 Alpha  occ. eigenvalues --   -1.12326  -1.10839  -1.10110  -1.04159  -1.00479
 Alpha  occ. eigenvalues --   -0.90962  -0.90433  -0.87610  -0.79400  -0.78009
 Alpha  occ. eigenvalues --   -0.74909  -0.73954  -0.70856  -0.68543  -0.64757
 Alpha  occ. eigenvalues --   -0.63320  -0.62586  -0.59548  -0.57687  -0.56037
 Alpha  occ. eigenvalues --   -0.53361  -0.51699  -0.51428  -0.50510  -0.49075
 Alpha  occ. eigenvalues --   -0.48248  -0.46265  -0.45332  -0.44932  -0.44517
 Alpha  occ. eigenvalues --   -0.43684  -0.43204  -0.42804  -0.42017  -0.40885
 Alpha  occ. eigenvalues --   -0.40344  -0.39985  -0.39644  -0.38132  -0.38000
 Alpha  occ. eigenvalues --   -0.36806  -0.36223  -0.36173  -0.35327  -0.31286
 Alpha  occ. eigenvalues --   -0.29012  -0.28495  -0.28187  -0.27787  -0.26772
 Alpha  occ. eigenvalues --   -0.25729  -0.25599
 Alpha virt. eigenvalues --   -0.06464  -0.02458  -0.01874  -0.01499   0.03484
 Alpha virt. eigenvalues --    0.09380   0.09492   0.10696   0.11226   0.11546
 Alpha virt. eigenvalues --    0.11955   0.12452   0.13354   0.13720   0.14569

 Mulliken atomic charges:
              1
     1  C   -0.210618
     2  O   -0.455925
     3  C    0.677902
     4  N   -0.489498
     5  C    0.665288
     6  N   -0.526840
     7  C    0.679860
     8  N   -0.521077
     9  O   -0.459212
    10  C   -0.212018
    11  O   -0.530258
    12  C    0.269956
    13  C   -0.141753
    14  C   -0.214170
    15  C    0.158095
    16  C   -0.286222
    17  C    0.180419
    18  C   -0.536510
    19  C    0.061064
    20  O   -0.252262
    21  H    0.168930
    22  H    0.172811
    23  H    0.172224
    24  H    0.169076
    25  H    0.175747
    26  H    0.171681
    27  H    0.144987
    28  H    0.142693
    29  H    0.118571
    30  H    0.152340
    31  H    0.180134
    32  H    0.168702
    33  H    0.205884
 Sum of Mulliken atomic charges =  -0.00000

 Dipole moment (field-independent basis, Debye):
    X=              1.4011    Y=              2.4788    Z=              1.9815  Tot=              3.4690
 Quadrupole moment (field-independent basis, Debye-Ang):
   XX=            -99.2557   YY=           -117.9341   ZZ=           -106.6197
   XY=             -0.6713   XZ=              8.4348   YZ=             -1.4619

 Summary of Natural Population Analysis:

                                       Natural Population
                Natural  -----------------------------------------------
    Atom  No    Charge         Core      Valence    Rydberg      Total
 -----------------------------------------------------------------------
      C    1   -0.32084      1.99941     4.30774    0.01369     6.32084
      O    2   -0.49871      1.99972     6.48669    0.01230     8.49871
      C    3    0.76402      1.99921     3.19982    0.03696     5.23598
      N    4   -0.56210      1.99926     5.54071    0.02212     7.56210
      C    5    0.76779      1.99916     3.19620    0.03685     5.23221
      N    6   -0.63947      1.99925     5.62130    0.01893     7.63947
      C    7    0.77708      1.99922     3.18778    0.03592     5.22292
      N    8   -0.61195      1.99926     5.59190    0.02079     7.61195
      O    9   -0.50071      1.99972     6.48904    0.01195     8.50071
      C   10   -0.32091      1.99941     4.30787    0.01364     6.32091
      O   11   -0.50050      1.99968     6.48883    0.01199     8.50050
      C   12    0.27186      1.99863     3.70686    0.02265     5.72814
      C   13   -0.24028      1.99899     4.22733    0.01396     6.24028
      C   14   -0.23567      1.99903     4.22217    0.01447     6.23567
      C   15   -0.16962      1.99891     4.15465    0.01605     6.16962
      C   16   -0.21454      1.99898     4.20395    0.01161     6.21454
      C   17   -0.05097      1.99893     4.03742    0.01462     6.05097
      C   18   -0.68956      1.99939     4.68235    0.00782     6.68956
      C   19    0.16223      1.99936     3.80597    0.03244     5.83777
      O   20   -0.24167      1.99983     6.22236    0.01949     8.24167
      H   21    0.22503      0.00000     0.77437    0.00060     0.77497
      H   22    0.22097      0.00000     0.77768    0.00134     0.77903
      H   23    0.22063      0.00000     0.77802    0.00135     0.77937
      H   24    0.22511      0.00000     0.77430    0.00060     0.77489
      H   25    0.22249      0.00000     0.77616    0.00136     0.77751
      H   26    0.21994      0.00000     0.77868    0.00138     0.78006
      H   27    0.25152      0.00000     0.74749    0.00099     0.74848
      H   28    0.24274      0.00000     0.75647    0.00079     0.75726
      H   29    0.22807      0.00000     0.77094    0.00100     0.77193
      H   30    0.23703      0.00000     0.76218    0.00079     0.76297
      H   31    0.25418      0.00000     0.74468    0.00114     0.74582
      H   32    0.24651      0.00000     0.75215    0.00134     0.75349
      H   33    0.26031      0.00000     0.73885    0.00084     0.73969
 =======================================================================
   * Total *   -0.00000     39.98534   103.61291    0.40175   144.00000

 Normal termination of Gaussian 09 at Wed Sep 29 03:29:00 2021.
