 Gaussian 09, Revision A.02,

 -----------------------------------
 #p opt b3lyp/6-31G* scf=(xqc,tight)
 -----------------------------------

 ---------------------------------
 COc1ccc2c(c1)ccc(c2)C(=O)C_conf_0
 ---------------------------------
 Symbolic Z-matrix:
 Charge =  0 Multiplicity = 1

 SCF Done:  E(RB3LYP) =  -653.057595633     A.U. after   15 cycles
 SCF Done:  E(RB3LYP) =  -653.063306062     A.U. after   13 cycles
 SCF Done:  E(RB3LYP) =  -653.064461851     A.U. after   14 cycles
 SCF Done:  E(RB3LYP) =  -653.064137939     A.U. after   16 cycles
 SCF Done:  E(RB3LYP) =  -653.064945499     A.U. after   12 cycles
 SCF Done:  E(RB3LYP) =  -653.065026007     A.U. after   12 cycles
 SCF Done:  E(RB3LYP) =  -653.065078125     A.U. after   11 cycles
 SCF Done:  E(RB3LYP) =  -653.065094156     A.U. after   10 cycles
 SCF Done:  E(RB3LYP) =  -653.065094643     A.U. after    8 cycles
 SCF Done:  E(RB3LYP) =  -653.065094679     A.U. after    7 cycles
 Optimization completed.
    -- Stationary point found.
 Normal termination of Gaussian 09 at Wed Sep 29 00:21:33 2021.

 ----------------------------------------------------------------------
 #p freq b3lyp/6-31G* volume NMR pop=NPA density=current Geom=AllCheck
 Guess=Read
 ----------------------------------------------------------------------

 COc1ccc2c(c1)ccc(c2)C(=O)C_conf_0
 ---------------------------------
 Redundant internal coordinates taken from checkpoint file:
 C13H12O2_7ba9_conf_0.chk
 Charge =  0 Multiplicity = 1

 SCF Done:  E(RB3LYP) =  -653.065094679     A.U. after    1 cycles

  1  C    Isotropic =   137.1526   Anisotropy =    65.9456

  2  O    Isotropic =   229.1764   Anisotropy =    90.9307

  3  C    Isotropic =    38.2592   Anisotropy =   125.9139

  4  C    Isotropic =    76.0502   Anisotropy =   134.9395

  5  C    Isotropic =    64.7691   Anisotropy =   144.8454

  6  C    Isotropic =    68.5499   Anisotropy =   186.4206

  7  C    Isotropic =    59.3205   Anisotropy =   196.7345

  8  C    Isotropic =    89.6046   Anisotropy =   118.7253

  9  C    Isotropic =    68.9219   Anisotropy =   138.8716

 10  C    Isotropic =    69.2670   Anisotropy =   174.4301

 11  C    Isotropic =    64.5565   Anisotropy =   152.9596

 12  C    Isotropic =    65.0831   Anisotropy =   146.1506

 13  C    Isotropic =     3.7632   Anisotropy =   150.4912

 14  O    Isotropic =  -267.3244   Anisotropy =   933.3578

 15  C    Isotropic =   164.0723   Anisotropy =    38.9499

 16  H    Isotropic =    28.1606   Anisotropy =     8.1427

 17  H    Isotropic =    28.4893   Anisotropy =     7.9934

 18  H    Isotropic =    28.4894   Anisotropy =     7.9931

 19  H    Isotropic =    25.1973   Anisotropy =     6.3418

 20  H    Isotropic =    24.5931   Anisotropy =     7.0279

 21  H    Isotropic =    25.6147   Anisotropy =     9.2043

 22  H    Isotropic =    24.7002   Anisotropy =     7.6238

 23  H    Isotropic =    23.9238   Anisotropy =     7.0900

 24  H    Isotropic =    24.2622   Anisotropy =     9.4928

 25  H    Isotropic =    29.5434   Anisotropy =     4.2876

 26  H    Isotropic =    30.2462   Anisotropy =     6.6297

 27  H    Isotropic =    29.5435   Anisotropy =     4.2874

  Exact polarizability: 249.751  -8.678 144.863  -0.000  -0.001  58.838
 Approx polarizability: 385.334 -42.274 261.458  -0.003  -0.001  90.531

                     1                      2                      3
                     A                      A                      A
 Frequencies --    50.8391                61.3439               109.0318
 Red. masses --     3.6189                 6.0671                 3.6399
 Frc consts  --     0.0055                 0.0135                 0.0255
 IR Inten    --     1.6618                 3.3606                 3.2518

                     4                      5                      6
                     A                      A                      A
 Frequencies --   138.0639               163.6656               174.2519
 Red. masses --     4.5879                 1.0308                 3.4221
 Frc consts  --     0.0515                 0.0163                 0.0612
 IR Inten    --     4.1847                 0.1330                 0.0029

                     7                      8                      9
                     A                      A                      A
 Frequencies --   198.9505               208.0876               248.7525
 Red. masses --     3.7234                 3.4077                 1.2382
 Frc consts  --     0.0868                 0.0869                 0.0451
 IR Inten    --     2.4617                 0.2045                 0.0298

                    10                     11                     12
                     A                      A                      A
 Frequencies --   319.4737               340.5120               345.6706
 Red. masses --     8.5577                 4.7117                 3.6382
 Frc consts  --     0.5146                 0.3219                 0.2561
 IR Inten    --     1.3712                 1.1582                 6.6757

                    13                     14                     15
                     A                      A                      A
 Frequencies --   413.5991               452.6482               483.0779
 Red. masses --     3.3581                 3.5289                 5.0017
 Frc consts  --     0.3385                 0.4260                 0.6877
 IR Inten    --     0.0592                 6.6789                 6.8589

                    16                     17                     18
                     A                      A                      A
 Frequencies --   487.6592               526.9007               530.5569
 Red. masses --     2.6102                 3.5257                 6.6819
 Frc consts  --     0.3657                 0.5767                 1.1082
 IR Inten    --     7.1128                 0.0071                 3.1582

                    19                     20                     21
                     A                      A                      A
 Frequencies --   554.9103               613.8638               616.4687
 Red. masses --     4.9616                 4.4006                 2.5652
 Frc consts  --     0.9002                 0.9770                 0.5744
 IR Inten    --    17.0474                13.4099                 1.3223

                    22                     23                     24
                     A                      A                      A
 Frequencies --   674.5009               684.3627               754.8341
 Red. masses --     6.1334                 3.4461                 6.0529
 Frc consts  --     1.6441                 0.9509                 2.0320
 IR Inten    --     4.0391                 3.4318                 6.2369

                    25                     26                     27
                     A                      A                      A
 Frequencies --   769.3385               829.9732               830.6529
 Red. masses --     3.0029                 1.4536                 1.4025
 Frc consts  --     1.0472                 0.5899                 0.5701
 IR Inten    --     0.6283                17.7654                 0.0045

                    28                     29                     30
                     A                      A                      A
 Frequencies --   835.3922               880.3584               913.5536
 Red. masses --     4.4999                 1.6348                 1.4573
 Frc consts  --     1.8503                 0.7465                 0.7166
 IR Inten    --     7.1047                48.4515                14.1756

                    31                     32                     33
                     A                      A                      A
 Frequencies --   940.5806               960.0604               967.3662
 Red. masses --     5.1896                 2.5982                 1.2863
 Frc consts  --     2.7051                 1.4110                 0.7092
 IR Inten    --    21.4758                21.8969                 0.3090

                    34                     35                     36
                     A                      A                      A
 Frequencies --   984.1128               993.9202              1055.2865
 Red. masses --     2.9103                 1.2888                 1.8521
 Frc consts  --     1.6606                 0.7502                 1.2152
 IR Inten    --     9.4376                 0.2996                 1.5223

                    37                     38                     39
                     A                      A                      A
 Frequencies --  1071.4491              1096.0460              1156.5907
 Red. masses --     4.5224                 2.0480                 1.5479
 Frc consts  --     3.0589                 1.4496                 1.2200
 IR Inten    --    51.2852                 4.1269                 6.8127

                    40                     41                     42
                     A                      A                      A
 Frequencies --  1176.0459              1185.2021              1208.4626
 Red. masses --     1.1856                 1.2723                 1.4676
 Frc consts  --     0.9661                 1.0530                 1.2628
 IR Inten    --    11.5548                 0.7889                18.1847

                    43                     44                     45
                     A                      A                      A
 Frequencies --  1229.3389              1242.2560              1300.5635
 Red. masses --     1.6848                 1.8599                 2.7708
 Frc consts  --     1.5002                 1.6911                 2.7613
 IR Inten    --    25.3722               372.5693                32.2396

                    46                     47                     48
                     A                      A                      A
 Frequencies --  1309.6804              1311.5426              1375.1554
 Red. masses --     2.0296                 2.8812                 1.8522
 Frc consts  --     2.0512                 2.9200                 2.0637
 IR Inten    --   260.0801                 1.1275                12.2497

                    49                     50                     51
                     A                      A                      A
 Frequencies --  1407.9926              1422.8843              1442.7015
 Red. masses --     1.3550                 5.7332                 3.8508
 Frc consts  --     1.5827                 6.8389                 4.7223
 IR Inten    --    56.8872                17.8538                43.5870

                    52                     53                     54
                     A                      A                      A
 Frequencies --  1458.9395              1495.0574              1501.4914
 Red. masses --     4.4785                 1.2948                 1.0574
 Frc consts  --     5.6163                 1.7052                 1.4045
 IR Inten    --    25.0409                51.4506                 8.3381

                    55                     56                     57
                     A                      A                      A
 Frequencies --  1507.9653              1519.8389              1531.1892
 Red. masses --     1.0486                 1.0475                 1.4762
 Frc consts  --     1.4049                 1.4257                 2.0391
 IR Inten    --     9.0895                 6.2050               134.6701

                    58                     59                     60
                     A                      A                      A
 Frequencies --  1533.5639              1553.7290              1626.6846
 Red. masses --     1.4695                 3.2060                 7.0060
 Frc consts  --     2.0363                 4.5600                10.9227
 IR Inten    --     6.2563                 7.2210                 1.5243

                    61                     62                     63
                     A                      A                      A
 Frequencies --  1663.7265              1681.1135              1770.6974
 Red. masses --     5.5422                 6.0153                10.6610
 Frc consts  --     9.0385                10.0161                19.6941
 IR Inten    --    12.4742               253.9268               220.9005

                    64                     65                     66
                     A                      A                      A
 Frequencies --  3030.2600              3053.9626              3090.8643
 Red. masses --     1.0344                 1.0381                 1.1069
 Frc consts  --     5.5964                 5.7044                 6.2303
 IR Inten    --    52.1972                 3.0368                39.3022

                    67                     68                     69
                     A                      A                      A
 Frequencies --  3113.6414              3162.7411              3169.2320
 Red. masses --     1.1000                 1.1003                 1.1012
 Frc consts  --     6.2834                 6.4845                 6.5167
 IR Inten    --    10.6726                27.8868                14.9270

                    70                     71                     72
                     A                      A                      A
 Frequencies --  3183.3775              3187.0107              3197.2247
 Red. masses --     1.0893                 1.0887                 1.0892
 Frc consts  --     6.5039                 6.5154                 6.5600
 IR Inten    --    14.6203                 6.3771                11.4183

                    73                     74                     75
                     A                      A                      A
 Frequencies --  3219.5565              3219.7275              3228.3510
 Red. masses --     1.0898                 1.0935                 1.0922
 Frc consts  --     6.6555                 6.6792                 6.7065
 IR Inten    --    11.3022                 9.2715                 4.5162

 - Thermochemistry -
 -------------------
 Temperature   298.150 Kelvin.  Pressure   1.00000 Atm.
 Atom     1 has atomic number  6 and mass  12.00000

 Molecular mass:   200.08373 amu.
 Principal axes and moments of inertia in atomic units:
                           1         2         3
     Eigenvalues --   955.627636311.671547244.53240
           X            0.99976   0.02194   0.00000
           Y           -0.02194   0.99976  -0.00000
           Z           -0.00000   0.00000   1.00000
 This molecule is an asymmetric top.
 Rotational symmetry number  1.
 Warning -- assumption of classical behavior for rotation
           may cause significant error
 Rotational temperatures (Kelvin)      0.09064     0.01372     0.01196
 Rotational constants (GHZ):           1.88854     0.28594     0.24912
 Zero-point vibrational energy     572703.1 (Joules/Mol)
                                  136.87932 (Kcal/Mol)
 Warning -- explicit consideration of  21 degrees of freedom as
           vibrations may cause significant error
 Vibrational temperatures:     73.15    88.26   156.87   198.64   235.48
          (Kelvin)            250.71   286.25   299.39   357.90   459.65
                              489.92   497.34   595.08   651.26   695.04
                              701.63   758.09   763.35   798.39   883.21
                              886.96   970.46   984.64  1086.04  1106.91
                             1194.14  1195.12  1201.94  1266.64  1314.40
                             1353.28  1381.31  1391.82  1415.92  1430.03
                             1518.32  1541.57  1576.96  1664.07  1692.07
                             1705.24  1738.71  1768.74  1787.33  1871.22
                             1884.34  1887.01  1978.54  2025.78  2047.21
                             2075.72  2099.09  2151.05  2160.31  2169.62
                             2186.71  2203.04  2206.45  2235.47  2340.43
                             2393.73  2418.74  2547.64  4359.86  4393.97
                             4447.06  4479.83  4550.47  4559.81  4580.16
                             4585.39  4600.09  4632.22  4632.46  4644.87

 Zero-point correction=                           0.218131 (Hartree/Particle)
 Thermal correction to Energy=                    0.231112
 Thermal correction to Enthalpy=                  0.232056
 Thermal correction to Gibbs Free Energy=         0.178521
 Sum of electronic and zero-point Energies=           -652.846964
 Sum of electronic and thermal Energies=              -652.833983
 Sum of electronic and thermal Enthalpies=            -652.833038
 Sum of electronic and thermal Free Energies=         -652.886574

                     E (Thermal)             CV                S
                      KCal/Mol        Cal/Mol-Kelvin    Cal/Mol-Kelvin
 Total                  145.025             50.401            112.675
 Electronic               0.000              0.000              0.000
 Translational            0.889              2.981             41.785
 Rotational               0.889              2.981             32.147
 Vibrational            143.248             44.439             38.743
 Vibration     1          0.595              1.977              4.784
 Vibration     2          0.597              1.973              4.413
 Vibration     3          0.606              1.942              3.286
 Vibration     4          0.614              1.915              2.831
 Vibration     5          0.623              1.887              2.507
 Vibration     6          0.627              1.874              2.389
 Vibration     7          0.637              1.841              2.143
 Vibration     8          0.641              1.828              2.060
 Vibration     9          0.662              1.765              1.739
 Vibration    10          0.705              1.636              1.313
 Vibration    11          0.720              1.595              1.210
 Vibration    12          0.724              1.584              1.186
 Vibration    13          0.777              1.441              0.914
 Vibration    14          0.811              1.355              0.788
 Vibration    15          0.839              1.288              0.702
 Vibration    16          0.844              1.277              0.690
 Vibration    17          0.882              1.190              0.594
 Vibration    18          0.886              1.182              0.586
 Vibration    19          0.910              1.129              0.534
 Vibration    20          0.973              1.003              0.426
 Vibration    21          0.976              0.997              0.422

 Optimization completed.
    -- Stationary point found.
 Normal termination of Gaussian 09 at Wed Sep 29 01:07:45 2021.
 Gaussian 09:  AM64L-G09RevA.02 11-Jun-2009

 ----------------------------------------------------------------------
 #p TD(NStates=10, Root=1) b3lyp/6-31G* volume pop=NPA density=current
 Geom=AllCheck Guess=Read
 ----------------------------------------------------------------------

 COc1ccc2c(c1)ccc(c2)C(=O)C_conf_0
 ---------------------------------
 Redundant internal coordinates taken from checkpoint file:
 C13H12O2_7ba9_conf_0.chk
 Charge =  0 Multiplicity = 1

                         Standard orientation:
 ---------------------------------------------------------------------
 Center     Atomic      Atomic             Coordinates (Angstroms)
 Number     Number       Type             X           Y           Z
 ---------------------------------------------------------------------
      1          6           0       -4.820863   -0.950682   -0.000018
      2          8           0       -4.181792    0.317527    0.000066
      3          6           0       -2.821351    0.351852    0.000025
      4          6           0       -2.265026    1.662126   -0.000016
      5          6           0       -0.905865    1.834647   -0.000043
      6          6           0       -0.021880    0.718196   -0.000034
      7          6           0       -0.585062   -0.598246   -0.000003
      8          6           0       -1.995803   -0.757234    0.000033
      9          6           0        0.300871   -1.712359   -0.000001
     10          6           0        1.661673   -1.535252   -0.000004
     11          6           0        2.229083   -0.230019   -0.000040
     12          6           0        1.385170    0.869084   -0.000051
     13          6           0        3.718807   -0.109645    0.000016
     14          8           0        4.425071   -1.108256   -0.000028
     15          6           0        4.348549    1.275672    0.000080
     16          1           0       -5.892653   -0.745603   -0.000067
     17          1           0       -4.560047   -1.530584    0.894803
     18          1           0       -4.559950   -1.530513   -0.894855
     19          1           0       -2.947974    2.505668   -0.000037
     20          1           0       -0.485533    2.837513   -0.000073
     21          1           0       -2.401875   -1.762724    0.000076
     22          1           0       -0.120584   -2.714975   -0.000006
     23          1           0        2.340823   -2.381190   -0.000010
     24          1           0        1.789545    1.877719   -0.000097
     25          1           0        4.044122    1.849130   -0.883533
     26          1           0        5.434064    1.163422    0.000165
     27          1           0        4.044012    1.849124    0.883660
 ---------------------------------------------------------------------

 SCF Done:  E(RB3LYP) =  -653.065094679     A.U. after    1 cycles

 Excitation energies and oscillator strengths:

 Excited State   1:      Singlet-A      3.7148 eV  333.76 nm  f=0.0000  <S**2>=0.000
      51 -> 54         0.66676
      51 -> 55         0.18213
      51 -> 56        -0.10811
 This state for optimization and/or second-order correction.
 Total Energy, E(TD-HF/TD-KS) =  -652.928577361
 Copying the excited state density for this state as the 1-particle RhoCI density.

 Excited State   2:      Singlet-A      3.9700 eV  312.30 nm  f=0.1056  <S**2>=0.000
      52 -> 54        -0.30106
      52 -> 55         0.12972
      53 -> 54         0.59605
      53 -> 55         0.17547

 Excited State   3:      Singlet-A      4.1075 eV  301.85 nm  f=0.0820  <S**2>=0.000
      52 -> 54         0.43983
      53 -> 54         0.33154
      53 -> 55        -0.42483

 Excited State   4:      Singlet-A      4.8917 eV  253.46 nm  f=0.3936  <S**2>=0.000
      52 -> 54         0.42900
      52 -> 55         0.21865
      53 -> 55         0.49481

 Excited State   5:      Singlet-A      4.9565 eV  250.15 nm  f=0.0000  <S**2>=0.000
      51 -> 54        -0.19846
      51 -> 55         0.67082

 Excited State   6:      Singlet-A      5.3114 eV  233.43 nm  f=0.3843  <S**2>=0.000
      50 -> 55        -0.10193
      52 -> 54        -0.11165
      52 -> 55         0.58085
      53 -> 54        -0.12610
      53 -> 55        -0.15868
      53 -> 56         0.25449
      53 -> 57         0.10612

 Excited State   7:      Singlet-A      5.6491 eV  219.48 nm  f=0.1327  <S**2>=0.000
      49 -> 54         0.21550
      50 -> 54         0.55135
      53 -> 56         0.24778
      53 -> 57        -0.24945

 Excited State   8:      Singlet-A      6.0961 eV  203.38 nm  f=0.0794  <S**2>=0.000
      49 -> 54         0.45920
      50 -> 54        -0.21705
      50 -> 55         0.43047
      52 -> 55         0.11310
      52 -> 57        -0.11878

 Excited State   9:      Singlet-A      6.1499 eV  201.60 nm  f=0.0297  <S**2>=0.000
      49 -> 54         0.21704
      50 -> 54        -0.29318
      50 -> 55        -0.29923
      52 -> 55        -0.12520
      52 -> 56        -0.26273
      52 -> 57         0.15728
      53 -> 56         0.32053
      53 -> 57        -0.22720

 Excited State  10:      Singlet-A      6.2142 eV  199.52 nm  f=0.3379  <S**2>=0.000
      49 -> 54        -0.32783
      50 -> 54        -0.10480
      50 -> 55         0.19633
      52 -> 55        -0.14751
      52 -> 56         0.15718
      52 -> 57        -0.11011
      53 -> 56         0.49139
      53 -> 57         0.13309

 The electronic state is 1-A.
 Alpha  occ. eigenvalues --  -19.18922 -19.12860 -10.27010 -10.25900 -10.24881
 Alpha  occ. eigenvalues --  -10.20810 -10.20315 -10.20226 -10.20182 -10.19673
 Alpha  occ. eigenvalues --  -10.19568 -10.19320 -10.19249 -10.19061 -10.18557
 Alpha  occ. eigenvalues --   -1.07516  -1.02773  -0.87834  -0.82782  -0.78211
 Alpha  occ. eigenvalues --   -0.76335  -0.74170  -0.72195  -0.70571  -0.63042
 Alpha  occ. eigenvalues --   -0.62320  -0.60322  -0.55730  -0.53483  -0.51695
 Alpha  occ. eigenvalues --   -0.49417  -0.47721  -0.47119  -0.46279  -0.45568
 Alpha  occ. eigenvalues --   -0.43855  -0.43775  -0.42814  -0.41621  -0.40653
 Alpha  occ. eigenvalues --   -0.39823  -0.39067  -0.37780  -0.36689  -0.36332
 Alpha  occ. eigenvalues --   -0.34847  -0.34799  -0.33080  -0.30322  -0.28623
 Alpha  occ. eigenvalues --   -0.24230  -0.23561  -0.21586
 Alpha virt. eigenvalues --   -0.05567  -0.03033   0.02272   0.03663   0.08970
 Alpha virt. eigenvalues --    0.09426   0.10664   0.11539   0.11689   0.13346
 Alpha virt. eigenvalues --    0.14697   0.15082   0.15610   0.16023   0.17672

 Mulliken atomic charges:
              1
     1  C   -0.211157
     2  O   -0.510480
     3  C    0.367091
     4  C   -0.170186
     5  C   -0.200984
     6  C    0.150981
     7  C    0.132893
     8  C   -0.281757
     9  C   -0.202271
    10  C   -0.182286
    11  C    0.105820
    12  C   -0.305876
    13  C    0.320337
    14  O   -0.305240
    15  C   -0.514012
    16  H    0.166935
    17  H    0.150919
    18  H    0.150920
    19  H    0.134603
    20  H    0.121851
    21  H    0.123868
    22  H    0.123938
    23  H    0.137571
    24  H    0.110056
    25  H    0.200670
    26  H    0.185127
    27  H    0.200670
 Sum of Mulliken atomic charges =  -0.00000

 Dipole moment (field-independent basis, Debye):
    X=              0.9701    Y=              0.5146    Z=             -0.0000  Tot=              1.0982
 Quadrupole moment (field-independent basis, Debye-Ang):
   XX=            -72.3799   YY=            -79.1277   ZZ=            -90.3704
   XY=             14.6097   XZ=              0.0010   YZ=             -0.0001

 Summary of Natural Population Analysis:

                                       Natural Population
                Natural  -----------------------------------------------
    Atom  No    Charge         Core      Valence    Rydberg      Total
 -----------------------------------------------------------------------
      C    1   -0.31575      1.99943     4.30248    0.01384     6.31575
      O    2   -0.52038      1.99974     6.50887    0.01177     8.52038
      C    3    0.30752      1.99881     3.67124    0.02243     5.69248
      C    4   -0.25762      1.99903     4.24433    0.01426     6.25762
      C    5   -0.21197      1.99906     4.19987    0.01304     6.21197
      C    6   -0.06219      1.99902     4.04856    0.01461     6.06219
      C    7   -0.04861      1.99902     4.03499    0.01460     6.04861
      C    8   -0.30815      1.99899     4.29800    0.01117     6.30815
      C    9   -0.22178      1.99906     4.20943    0.01330     6.22178
      C   10   -0.20717      1.99906     4.19427    0.01384     6.20717
      C   11   -0.16791      1.99889     4.15411    0.01490     6.16791
      C   12   -0.23454      1.99901     4.22288    0.01265     6.23454
      C   13    0.38821      1.99928     3.58016    0.03235     5.61179
      O   14   -0.25332      1.99981     6.23564    0.01786     8.25332
      C   15   -0.70888      1.99932     4.70287    0.00669     6.70888
      H   16    0.22648      0.00000     0.77299    0.00053     0.77352
      H   17    0.20178      0.00000     0.79624    0.00197     0.79822
      H   18    0.20178      0.00000     0.79624    0.00197     0.79822
      H   19    0.24534      0.00000     0.75347    0.00119     0.75466
      H   20    0.23163      0.00000     0.76733    0.00103     0.76837
      H   21    0.23289      0.00000     0.76603    0.00108     0.76711
      H   22    0.23392      0.00000     0.76504    0.00104     0.76608
      H   23    0.23968      0.00000     0.75950    0.00082     0.76032
      H   24    0.22313      0.00000     0.77567    0.00120     0.77687
      H   25    0.26387      0.00000     0.73490    0.00123     0.73613
      H   26    0.25815      0.00000     0.74073    0.00111     0.74185
      H   27    0.26387      0.00000     0.73490    0.00123     0.73613
 =======================================================================
   * Total *   -0.00000     29.98753    75.77074    0.24172   106.00000

 Normal termination of Gaussian 09 at Wed Sep 29 04:38:48 2021.
