 Gaussian 09, Revision A.02,

 -----------------------------------
 #p opt b3lyp/6-31G* scf=(xqc,tight)
 -----------------------------------

 -----------------------------------
 O=C(N(C)C)Oc1cccc2c1c(F)ccc2_conf_0
 -----------------------------------
 Symbolic Z-matrix:
 Charge =  0 Multiplicity = 1

 SCF Done:  E(RB3LYP) =  -807.658091122     A.U. after   15 cycles
 SCF Done:  E(RB3LYP) =  -807.664787677     A.U. after   13 cycles
 SCF Done:  E(RB3LYP) =  -807.664948583     A.U. after   12 cycles
 SCF Done:  E(RB3LYP) =  -807.665659505     A.U. after   13 cycles
 SCF Done:  E(RB3LYP) =  -807.666089041     A.U. after   12 cycles
 SCF Done:  E(RB3LYP) =  -807.666277377     A.U. after   16 cycles
 SCF Done:  E(RB3LYP) =  -807.666354224     A.U. after   11 cycles
 SCF Done:  E(RB3LYP) =  -807.666454160     A.U. after   11 cycles
 SCF Done:  E(RB3LYP) =  -807.666562251     A.U. after   12 cycles
 SCF Done:  E(RB3LYP) =  -807.666632170     A.U. after   11 cycles
 SCF Done:  E(RB3LYP) =  -807.666998140     A.U. after   10 cycles
 SCF Done:  E(RB3LYP) =  -807.667004192     A.U. after   10 cycles
 SCF Done:  E(RB3LYP) =  -807.667007281     A.U. after   10 cycles
 SCF Done:  E(RB3LYP) =  -807.667008216     A.U. after    9 cycles
 SCF Done:  E(RB3LYP) =  -807.667009191     A.U. after    9 cycles
 SCF Done:  E(RB3LYP) =  -807.667009539     A.U. after    9 cycles
 SCF Done:  E(RB3LYP) =  -807.667009752     A.U. after    7 cycles
 SCF Done:  E(RB3LYP) =  -807.667009787     A.U. after    7 cycles
 Optimization completed.
    -- Stationary point found.
 Normal termination of Gaussian 09 at Thu Sep 30 09:23:36 2021.

 ----------------------------------------------------------------------
 #p freq b3lyp/6-31G* volume NMR pop=NPA density=current Geom=AllCheck
 Guess=Read
 ----------------------------------------------------------------------

 O=C(N(C)C)Oc1cccc2c1c(F)ccc2_conf_0
 -----------------------------------
 Redundant internal coordinates taken from checkpoint file:
 C13H12FNO2_4d5c_conf_0.chk
 Charge =  0 Multiplicity = 1

 SCF Done:  E(RB3LYP) =  -807.667009787     A.U. after    1 cycles

  1  O    Isotropic =    70.5291   Anisotropy =   386.4517

  2  C    Isotropic =    46.7276   Anisotropy =    80.9688

  3  N    Isotropic =   179.7834   Anisotropy =    83.8844

  4  C    Isotropic =   154.7322   Anisotropy =    51.9984

  5  C    Isotropic =   155.2050   Anisotropy =    49.3757

  6  O    Isotropic =   146.9430   Anisotropy =   150.9040

  7  C    Isotropic =    48.4941   Anisotropy =    99.4622

  8  C    Isotropic =    73.8514   Anisotropy =   151.0350

  9  C    Isotropic =    69.2768   Anisotropy =   160.9976

 10  C    Isotropic =    71.8848   Anisotropy =   140.6549

 11  C    Isotropic =    59.9146   Anisotropy =   188.8315

 12  C    Isotropic =    77.6964   Anisotropy =   157.1662

 13  C    Isotropic =    36.0102   Anisotropy =    82.7052

 14  F    Isotropic =   303.3623   Anisotropy =   129.7823

 15  C    Isotropic =    83.7733   Anisotropy =   130.1201

 16  C    Isotropic =    70.5397   Anisotropy =   159.3198

 17  C    Isotropic =    72.1423   Anisotropy =   139.3806

 18  H    Isotropic =    28.1707   Anisotropy =     7.2353

 19  H    Isotropic =    29.7314   Anisotropy =     9.6538

 20  H    Isotropic =    29.9012   Anisotropy =     9.2042

 21  H    Isotropic =    27.9588   Anisotropy =     7.3136

 22  H    Isotropic =    29.8312   Anisotropy =     8.6726

 23  H    Isotropic =    29.4904   Anisotropy =     8.7732

 24  H    Isotropic =    24.6769   Anisotropy =     9.4325

 25  H    Isotropic =    24.7902   Anisotropy =     4.9334

 26  H    Isotropic =    24.8053   Anisotropy =     6.2193

 27  H    Isotropic =    25.3435   Anisotropy =     6.3854

 28  H    Isotropic =    24.8733   Anisotropy =     4.5204

 29  H    Isotropic =    24.8374   Anisotropy =     6.2896

  Exact polarizability: 202.045  -3.715 177.851  -8.345   4.752  70.519
 Approx polarizability: 292.441  -9.353 313.895 -18.065   7.084 110.825

                     1                      2                      3
                     A                      A                      A
 Frequencies --    25.6442                44.1603                60.8954
 Red. masses --     4.9170                 3.9116                 5.4143
 Frc consts  --     0.0019                 0.0045                 0.0118
 IR Inten    --     0.2470                 3.4295                 1.7502

                     4                      5                      6
                     A                      A                      A
 Frequencies --   101.1740               120.3615               126.5969
 Red. masses --     1.6655                 3.5408                 4.1161
 Frc consts  --     0.0100                 0.0302                 0.0389
 IR Inten    --     0.3313                 1.4036                 0.6139

                     7                      8                      9
                     A                      A                      A
 Frequencies --   147.4150               171.5158               219.1837
 Red. masses --     1.1293                 3.9967                 2.2331
 Frc consts  --     0.0145                 0.0693                 0.0632
 IR Inten    --     0.2226                 3.2646                 3.2967

                    10                     11                     12
                     A                      A                      A
 Frequencies --   245.2302               251.4856               268.1203
 Red. masses --     3.6834                 7.1918                 4.3700
 Frc consts  --     0.1305                 0.2680                 0.1851
 IR Inten    --     0.2416                 1.9086                 0.3796

                    13                     14                     15
                     A                      A                      A
 Frequencies --   284.7342               347.7241               387.6543
 Red. masses --     6.0282                 6.7341                 3.5139
 Frc consts  --     0.2880                 0.4797                 0.3111
 IR Inten    --     1.1836                 3.7183                15.3864

                    16                     17                     18
                     A                      A                      A
 Frequencies --   454.7342               472.1582               478.3626
 Red. masses --     3.6185                 5.7153                 3.5387
 Frc consts  --     0.4409                 0.7507                 0.4771
 IR Inten    --     8.5392                 5.8832                 0.4593

                    19                     20                     21
                     A                      A                      A
 Frequencies --   504.1651               507.5687               547.1342
 Red. masses --     4.7701                 5.7850                 6.8956
 Frc consts  --     0.7144                 0.8781                 1.2162
 IR Inten    --     0.7298                 1.3499                 0.7647

                    22                     23                     24
                     A                      A                      A
 Frequencies --   586.2829               613.1351               623.0284
 Red. masses --     7.0772                 5.4129                 4.0649
 Frc consts  --     1.4333                 1.1989                 0.9297
 IR Inten    --     3.3791                 2.4083                 1.3109

                    25                     26                     27
                     A                      A                      A
 Frequencies --   642.3913               714.4833               736.6291
 Red. masses --     4.7446                 6.4288                11.8038
 Frc consts  --     1.1536                 1.9336                 3.7737
 IR Inten    --     2.5396                 8.7988                18.1626

                    28                     29                     30
                     A                      A                      A
 Frequencies --   753.4117               770.9376               795.7423
 Red. masses --     3.0003                 1.2677                 5.3701
 Frc consts  --     1.0034                 0.4439                 2.0035
 IR Inten    --    18.1059                 1.7142                 1.9553

                    31                     32                     33
                     A                      A                      A
 Frequencies --   814.5565               837.4700               854.0440
 Red. masses --     1.8522                 5.6845                 4.0896
 Frc consts  --     0.7241                 2.3490                 1.7575
 IR Inten    --    57.8766                 5.3014                25.5679

                    34                     35                     36
                     A                      A                      A
 Frequencies --   887.4417               910.3457               964.3023
 Red. masses --     1.4536                 1.5168                 1.2628
 Frc consts  --     0.6745                 0.7406                 0.6918
 IR Inten    --     0.7641                 0.9328                 0.1686

                    37                     38                     39
                     A                      A                      A
 Frequencies --   975.9945              1007.0376              1057.1263
 Red. masses --     1.2823                 3.5870                 3.6706
 Frc consts  --     0.7197                 2.1433                 2.4168
 IR Inten    --     0.7190                16.8334                13.0567

                    40                     41                     42
                     A                      A                      A
 Frequencies --  1079.6465              1098.0539              1108.7702
 Red. masses --     2.9996                 1.3875                 1.7839
 Frc consts  --     2.0600                 0.9857                 1.2921
 IR Inten    --    41.3604                 5.0495                 0.3173

                    43                     44                     45
                     A                      A                      A
 Frequencies --  1144.5788              1150.3156              1182.8229
 Red. masses --     1.2229                 1.9965                 1.9070
 Frc consts  --     0.9439                 1.5565                 1.5720
 IR Inten    --     1.5579                 3.8874               460.5721

                    46                     47                     48
                     A                      A                      A
 Frequencies --  1193.0896              1195.6317              1211.7117
 Red. masses --     1.5245                 1.2969                 1.3543
 Frc consts  --     1.2786                 1.0923                 1.1716
 IR Inten    --   177.0563                29.5975               128.4736

                    49                     50                     51
                     A                      A                      A
 Frequencies --  1246.8238              1265.6023              1292.4068
 Red. masses --     1.8899                 3.2449                 3.5244
 Frc consts  --     1.7310                 3.0622                 3.4685
 IR Inten    --    10.0719                83.5444               203.1473

                    52                     53                     54
                     A                      A                      A
 Frequencies --  1306.7465              1392.8553              1402.3436
 Red. masses --     3.2825                 4.1918                 7.0336
 Frc consts  --     3.3024                 4.7914                 8.1496
 IR Inten    --    59.7561                17.2835                 1.5646

                    55                     56                     57
                     A                      A                      A
 Frequencies --  1416.9347              1440.6273              1461.0941
 Red. masses --     2.9707                 2.9598                 1.1671
 Frc consts  --     3.5140                 3.6193                 1.4680
 IR Inten    --   315.0189               117.9420                13.1005

                    58                     59                     60
                     A                      A                      A
 Frequencies --  1482.5172              1494.1163              1511.1913
 Red. masses --     2.0243                 1.2122                 2.6570
 Frc consts  --     2.6214                 1.5943                 3.5750
 IR Inten    --     7.6783                49.2140                 2.6260

                    61                     62                     63
                     A                      A                      A
 Frequencies --  1523.4922              1528.6373              1535.2060
 Red. masses --     1.0634                 1.0469                 1.0541
 Frc consts  --     1.4542                 1.4413                 1.4637
 IR Inten    --     3.5821                15.0239                12.3128

                    64                     65                     66
                     A                      A                      A
 Frequencies --  1560.5803              1567.8250              1634.8645
 Red. masses --     1.6841                 2.1211                 7.2322
 Frc consts  --     2.4166                 3.0719                11.3890
 IR Inten    --    22.6678                33.9822                54.7188

                    67                     68                     69
                     A                      A                      A
 Frequencies --  1661.3152              1686.4243              1819.9352
 Red. masses --     5.4104                 6.8757                10.9169
 Frc consts  --     8.7981                11.5212                21.3040
 IR Inten    --    56.2656                14.2939               372.0887

                    70                     71                     72
                     A                      A                      A
 Frequencies --  3028.6296              3035.4281              3081.4635
 Red. masses --     1.0438                 1.0448                 1.1024
 Frc consts  --     5.6409                 5.6718                 6.1672
 IR Inten    --    29.8250               117.5580                45.8475

                    73                     74                     75
                     A                      A                      A
 Frequencies --  3088.8830              3188.4045              3191.8352
 Red. masses --     1.0977                 1.0871                 1.0867
 Frc consts  --     6.1707                 6.5110                 6.5230
 IR Inten    --    23.9857                 1.7550                 2.0964

                    76                     77                     78
                     A                      A                      A
 Frequencies --  3193.3287              3207.4346              3209.0214
 Red. masses --     1.0963                 1.0944                 1.0938
 Frc consts  --     6.5867                 6.6333                 6.6364
 IR Inten    --     1.0855                15.6278                35.7160

                    79                     80                     81
                     A                      A                      A
 Frequencies --  3214.9366              3225.5337              3254.9363
 Red. masses --     1.0950                 1.0943                 1.0927
 Frc consts  --     6.6683                 6.7080                 6.8206
 IR Inten    --     0.4642                 5.8090                 1.8317

 - Thermochemistry -
 -------------------
 Temperature   298.150 Kelvin.  Pressure   1.00000 Atm.
 Atom     1 has atomic number  8 and mass  15.99491

 Molecular mass:   233.08521 amu.
 Principal axes and moments of inertia in atomic units:
                           1         2         3
     Eigenvalues --  2058.319005414.215307127.42723
           X            0.99989   0.01432  -0.00343
           Y           -0.01432   0.99990  -0.00035
           Z            0.00342   0.00039   0.99999
 This molecule is an asymmetric top.
 Rotational symmetry number  1.
 Warning -- assumption of classical behavior for rotation
           may cause significant error
 Rotational temperatures (Kelvin)      0.04208     0.01600     0.01215
 Rotational constants (GHZ):           0.87680     0.33333     0.25321
 Zero-point vibrational energy     597094.3 (Joules/Mol)
                                  142.70896 (Kcal/Mol)
 Warning -- explicit consideration of  23 degrees of freedom as
           vibrations may cause significant error
 Vibrational temperatures:     36.90    63.54    87.61   145.57   173.17
          (Kelvin)            182.14   212.10   246.77   315.36   352.83
                              361.83   385.76   409.67   500.30   557.75
                              654.26   679.33   688.26   725.38   730.28
                              787.20   843.53   882.16   896.40   924.26
                             1027.98  1059.84  1083.99  1109.21  1144.89
                             1171.96  1204.93  1228.78  1276.83  1309.78
                             1387.41  1404.24  1448.90  1520.97  1553.37
                             1579.85  1595.27  1646.79  1655.05  1701.82
                             1716.59  1720.25  1743.38  1793.90  1820.92
                             1859.48  1880.11  2004.01  2017.66  2038.65
                             2072.74  2102.19  2133.01  2149.70  2174.26
                             2191.96  2199.37  2208.82  2245.32  2255.75
                             2352.20  2390.26  2426.39  2618.48  4357.52
                             4367.30  4433.53  4444.21  4587.40  4592.33
                             4594.48  4614.78  4617.06  4625.57  4640.82
                             4683.12

 Zero-point correction=                           0.227421 (Hartree/Particle)
 Thermal correction to Energy=                    0.242490
 Thermal correction to Enthalpy=                  0.243434
 Thermal correction to Gibbs Free Energy=         0.184049
 Sum of electronic and zero-point Energies=           -807.439589
 Sum of electronic and thermal Energies=              -807.424520
 Sum of electronic and thermal Enthalpies=            -807.423576
 Sum of electronic and thermal Free Energies=         -807.482961

                     E (Thermal)             CV                S
                      KCal/Mol        Cal/Mol-Kelvin    Cal/Mol-Kelvin
 Total                  152.164             56.861            124.986
 Electronic               0.000              0.000              0.000
 Translational            0.889              2.981             42.241
 Rotational               0.889              2.981             32.740
 Vibrational            150.387             50.900             50.005
 Vibration     1          0.593              1.985              6.141
 Vibration     2          0.595              1.980              5.063
 Vibration     3          0.597              1.973              4.428
 Vibration     4          0.604              1.948              3.432
 Vibration     5          0.609              1.932              3.095
 Vibration     6          0.611              1.927              2.997
 Vibration     7          0.617              1.905              2.705
 Vibration     8          0.626              1.878              2.419
 Vibration     9          0.647              1.812              1.966
 Vibration    10          0.660              1.771              1.765
 Vibration    11          0.663              1.760              1.720
 Vibration    12          0.673              1.732              1.608
 Vibration    13          0.683              1.702              1.505
 Vibration    14          0.725              1.580              1.176
 Vibration    15          0.756              1.497              1.009
 Vibration    16          0.813              1.350              0.782
 Vibration    17          0.829              1.312              0.732
 Vibration    18          0.835              1.298              0.714
 Vibration    19          0.859              1.241              0.648
 Vibration    20          0.863              1.233              0.639
 Vibration    21          0.902              1.146              0.550
 Vibration    22          0.943              1.061              0.474
 Vibration    23          0.972              1.004              0.428

 Optimization completed.
    -- Stationary point found.
 Normal termination of Gaussian 09 at Thu Sep 30 10:50:25 2021.
 Gaussian 09:  AM64L-G09RevA.02 11-Jun-2009

 ----------------------------------------------------------------------
 #p TD(NStates=10, Root=1) b3lyp/6-31G* volume pop=NPA density=current
 Geom=AllCheck Guess=Read
 ----------------------------------------------------------------------

 O=C(N(C)C)Oc1cccc2c1c(F)ccc2_conf_0
 -----------------------------------
 Redundant internal coordinates taken from checkpoint file:
 C13H12FNO2_4d5c_conf_0.chk
 Charge =  0 Multiplicity = 1

                         Standard orientation:
 ---------------------------------------------------------------------
 Center     Atomic      Atomic             Coordinates (Angstroms)
 Number     Number       Type             X           Y           Z
 ---------------------------------------------------------------------
      1          8           0       -2.231660    1.470618   -0.986186
      2          6           0       -2.204279    0.506660   -0.245457
      3          7           0       -3.247532   -0.332184    0.011169
      4          6           0       -4.551388   -0.007698   -0.545724
      5          6           0       -3.177635   -1.484909    0.899487
      6          8           0       -1.089088    0.109906    0.468146
      7          6           0        0.122585    0.756477    0.291091
      8          6           0        0.228000    2.124939    0.403759
      9          6           0        1.491312    2.747235    0.307036
     10          6           0        2.628111    1.998802    0.114513
     11          6           0        2.556448    0.585804   -0.000276
     12          6           0        1.273411   -0.061685    0.080321
     13          6           0        1.265813   -1.477822   -0.057010
     14          9           0        0.093982   -2.152828   -0.010243
     15          6           0        2.407582   -2.214996   -0.247267
     16          6           0        3.657925   -1.561375   -0.315616
     17          6           0        3.728434   -0.193789   -0.196496
     18          1           0       -4.452526    0.867158   -1.186565
     19          1           0       -5.272666    0.207190    0.254708
     20          1           0       -4.932344   -0.850575   -1.135993
     21          1           0       -2.144474   -1.796743    1.030606
     22          1           0       -3.743061   -2.310986    0.452671
     23          1           0       -3.617299   -1.260823    1.881802
     24          1           0       -0.666468    2.714799    0.554894
     25          1           0        1.554665    3.828246    0.392614
     26          1           0        3.601602    2.476878    0.046830
     27          1           0        2.323034   -3.292074   -0.345544
     28          1           0        4.558651   -2.149329   -0.465721
     29          1           0        4.685846    0.316958   -0.252156
 ---------------------------------------------------------------------

 SCF Done:  E(RB3LYP) =  -807.667009787     A.U. after    1 cycles

 Excitation energies and oscillator strengths:

 Excited State   1:      Singlet-A      4.2665 eV  290.60 nm  f=0.1225  <S**2>=0.000
      59 -> 63        -0.13465
      61 -> 62         0.68712
 This state for optimization and/or second-order correction.
 Total Energy, E(TD-HF/TD-KS) =  -807.510219209
 Copying the excited state density for this state as the 1-particle RhoCI density.

 Excited State   2:      Singlet-A      4.4199 eV  280.51 nm  f=0.0158  <S**2>=0.000
      59 -> 62         0.42345
      61 -> 63         0.55908

 Excited State   3:      Singlet-A      4.9619 eV  249.87 nm  f=0.0076  <S**2>=0.000
      60 -> 62         0.70460

 Excited State   4:      Singlet-A      5.4916 eV  225.77 nm  f=0.0714  <S**2>=0.000
      57 -> 62         0.29849
      58 -> 62         0.55961
      59 -> 62        -0.24110
      61 -> 63         0.13319

 Excited State   5:      Singlet-A      5.5623 eV  222.90 nm  f=0.0080  <S**2>=0.000
      57 -> 62         0.51527
      58 -> 62        -0.28748
      59 -> 62        -0.11485
      61 -> 64        -0.35305

 Excited State   6:      Singlet-A      5.6141 eV  220.84 nm  f=0.0066  <S**2>=0.000
      57 -> 62        -0.10689
      60 -> 63         0.68797

 Excited State   7:      Singlet-A      5.9794 eV  207.35 nm  f=0.8181  <S**2>=0.000
      56 -> 62        -0.13531
      57 -> 62         0.27023
      57 -> 63        -0.12897
      59 -> 62         0.42336
      59 -> 63         0.13911
      60 -> 63         0.13116
      61 -> 63        -0.34522
      61 -> 64         0.18300

 Excited State   8:      Singlet-A      6.1132 eV  202.81 nm  f=0.1275  <S**2>=0.000
      56 -> 62        -0.15482
      57 -> 63        -0.23844
      58 -> 62        -0.14580
      58 -> 63         0.48196
      59 -> 62        -0.16931
      59 -> 63         0.10022
      59 -> 64        -0.22594
      61 -> 63         0.13248
      61 -> 64         0.20436

 Excited State   9:      Singlet-A      6.1317 eV  202.20 nm  f=0.1326  <S**2>=0.000
      57 -> 63        -0.27884
      58 -> 63        -0.25947
      59 -> 63         0.54639
      61 -> 64        -0.10789

 Excited State  10:      Singlet-A      6.1525 eV  201.52 nm  f=0.1073  <S**2>=0.000
      55 -> 62         0.11014
      56 -> 62        -0.14449
      57 -> 62         0.11650
      57 -> 63         0.23385
      58 -> 62        -0.22535
      58 -> 63        -0.22257
      59 -> 62        -0.14158
      59 -> 63         0.11394
      59 -> 64         0.12184
      61 -> 63         0.10755
      61 -> 64         0.45497
      61 -> 65        -0.13561

 The electronic state is 1-A.
 Alpha  occ. eigenvalues --  -24.70586 -19.19266 -19.11521 -14.36835 -10.33201
 Alpha  occ. eigenvalues --  -10.27589 -10.25721 -10.21742 -10.21607 -10.21121
 Alpha  occ. eigenvalues --  -10.20784 -10.19937 -10.19563 -10.19533 -10.19329
 Alpha  occ. eigenvalues --  -10.19205 -10.19059  -1.21642  -1.10534  -1.01413
 Alpha  occ. eigenvalues --   -0.94012  -0.87764  -0.82640  -0.77718  -0.75097
 Alpha  occ. eigenvalues --   -0.73363  -0.72205  -0.69848  -0.63868  -0.63064
 Alpha  occ. eigenvalues --   -0.61492  -0.56826  -0.53678  -0.52860  -0.51776
 Alpha  occ. eigenvalues --   -0.50429  -0.48432  -0.48250  -0.46929  -0.46251
 Alpha  occ. eigenvalues --   -0.45959  -0.44401  -0.43894  -0.42565  -0.41334
 Alpha  occ. eigenvalues --   -0.40525  -0.40323  -0.40047  -0.39183  -0.38514
 Alpha  occ. eigenvalues --   -0.37834  -0.37280  -0.35805  -0.34852  -0.32616
 Alpha  occ. eigenvalues --   -0.30888  -0.27311  -0.26913  -0.24921  -0.24223
 Alpha  occ. eigenvalues --   -0.20936
 Alpha virt. eigenvalues --   -0.03889  -0.01521   0.03362   0.05714   0.09066
 Alpha virt. eigenvalues --    0.09582   0.09843   0.10463   0.11709   0.14344
 Alpha virt. eigenvalues --    0.14643   0.14950   0.16509   0.16823   0.17102

 Mulliken atomic charges:
              1
     1  O   -0.508989
     2  C    0.782399
     3  N   -0.432667
     4  C   -0.320156
     5  C   -0.321749
     6  O   -0.535627
     7  C    0.293914
     8  C   -0.127441
     9  C   -0.150850
    10  C   -0.197103
    11  C    0.129450
    12  C    0.021846
    13  C    0.299388
    14  F   -0.281045
    15  C   -0.200044
    16  C   -0.125640
    17  C   -0.208417
    18  H    0.206055
    19  H    0.156215
    20  H    0.158492
    21  H    0.208746
    22  H    0.156629
    23  H    0.156135
    24  H    0.160368
    25  H    0.135281
    26  H    0.132768
    27  H    0.141562
    28  H    0.137722
    29  H    0.132759
 Sum of Mulliken atomic charges =   0.00000

 Dipole moment (field-independent basis, Debye):
    X=             -0.6694    Y=             -1.3230    Z=              1.3144  Tot=              1.9814
 Quadrupole moment (field-independent basis, Debye-Ang):
   XX=            -76.7750   YY=            -92.1092   ZZ=           -100.6494
   XY=              5.2314   XZ=             -4.0285   YZ=              3.2169

 Summary of Natural Population Analysis:

                                       Natural Population
                Natural  -----------------------------------------------
    Atom  No    Charge         Core      Valence    Rydberg      Total
 -----------------------------------------------------------------------
      O    1   -0.64429      1.99978     6.62534    0.01917     8.64429
      C    2    0.93714      1.99936     3.01836    0.04514     5.06286
      N    3   -0.47716      1.99932     5.46675    0.01109     7.47716
      C    4   -0.46919      1.99947     4.45795    0.01177     6.46919
      C    5   -0.47366      1.99946     4.46249    0.01172     6.47366
      O    6   -0.53096      1.99968     6.52057    0.01070     8.53096
      C    7    0.31806      1.99870     3.65860    0.02464     5.68194
      C    8   -0.22479      1.99903     4.21085    0.01491     6.22479
      C    9   -0.24714      1.99911     4.23210    0.01593     6.24714
      C   10   -0.21050      1.99905     4.19564    0.01582     6.21050
      C   11   -0.04819      1.99905     4.03405    0.01510     6.04819
      C   12   -0.14435      1.99888     4.13011    0.01536     6.14435
      C   13    0.42271      1.99841     3.55058    0.02830     5.57729
      F   14   -0.32610      1.99994     7.32057    0.00559     9.32610
      C   15   -0.30794      1.99902     4.29231    0.01661     6.30794
      C   16   -0.21295      1.99911     4.19867    0.01517     6.21295
      C   17   -0.22878      1.99905     4.21387    0.01586     6.22878
      H   18    0.26305      0.00000     0.73543    0.00152     0.73695
      H   19    0.22006      0.00000     0.77847    0.00147     0.77994
      H   20    0.22297      0.00000     0.77580    0.00123     0.77703
      H   21    0.26280      0.00000     0.73570    0.00150     0.73720
      H   22    0.22533      0.00000     0.77342    0.00125     0.77467
      H   23    0.21932      0.00000     0.77900    0.00168     0.78068
      H   24    0.25902      0.00000     0.73975    0.00122     0.74098
      H   25    0.23978      0.00000     0.75942    0.00080     0.76022
      H   26    0.23357      0.00000     0.76530    0.00112     0.76643
      H   27    0.24851      0.00000     0.75023    0.00126     0.75149
      H   28    0.23969      0.00000     0.75953    0.00078     0.76031
      H   29    0.23399      0.00000     0.76491    0.00110     0.76601
 =======================================================================
   * Total *   -0.00000     33.98640    87.70578    0.30782   122.00000

 Normal termination of Gaussian 09 at Thu Sep 30 15:47:02 2021.
