 Gaussian 09, Revision A.02,

 -----------------------------------
 #p opt b3lyp/6-31G* scf=(xqc,tight)
 -----------------------------------

 -------------------------------
 COc1cccc2c1n(CCN(C)C)cc2_conf_0
 -------------------------------
 Symbolic Z-matrix:
 Charge =  0 Multiplicity = 1

 SCF Done:  E(RB3LYP) =  -690.917399554     A.U. after   14 cycles
 SCF Done:  E(RB3LYP) =  -690.921925086     A.U. after   12 cycles
 SCF Done:  E(RB3LYP) =  -690.922741637     A.U. after   12 cycles
 SCF Done:  E(RB3LYP) =  -690.922963377     A.U. after   11 cycles
 SCF Done:  E(RB3LYP) =  -690.923034877     A.U. after   10 cycles
 SCF Done:  E(RB3LYP) =  -690.923069266     A.U. after   11 cycles
 SCF Done:  E(RB3LYP) =  -690.923083002     A.U. after   11 cycles
 SCF Done:  E(RB3LYP) =  -690.923085843     A.U. after   10 cycles
 SCF Done:  E(RB3LYP) =  -690.923086823     A.U. after    9 cycles
 SCF Done:  E(RB3LYP) =  -690.923086962     A.U. after    7 cycles
 SCF Done:  E(RB3LYP) =  -690.923087010     A.U. after    7 cycles
 SCF Done:  E(RB3LYP) =  -690.923087028     A.U. after    7 cycles
 Optimization completed.
    -- Stationary point found.
 Normal termination of Gaussian 09 at Thu Sep 30 14:35:15 2021.

 ----------------------------------------------------------------------
 #p freq b3lyp/6-31G* volume NMR pop=NPA density=current Geom=AllCheck
 Guess=Read
 ----------------------------------------------------------------------

 COc1cccc2c1n(CCN(C)C)cc2_conf_0
 -------------------------------
 Redundant internal coordinates taken from checkpoint file:
 C13H18N2O_d359_conf_0.chk
 Charge =  0 Multiplicity = 1

 SCF Done:  E(RB3LYP) =  -690.923087028     A.U. after    1 cycles

  1  C    Isotropic =   137.5618   Anisotropy =    65.7763

  2  O    Isotropic =   254.6830   Anisotropy =    77.7544

  3  C    Isotropic =    51.1489   Anisotropy =   100.2202

  4  C    Isotropic =    93.5417   Anisotropy =   130.4027

  5  C    Isotropic =    75.7174   Anisotropy =   147.8730

  6  C    Isotropic =    81.6078   Anisotropy =   140.8843

  7  C    Isotropic =    64.7171   Anisotropy =   150.9511

  8  C    Isotropic =    71.7333   Anisotropy =   117.5546

  9  N    Isotropic =   118.3040   Anisotropy =    88.6975

 10  C    Isotropic =   140.8484   Anisotropy =    48.5608

 11  C    Isotropic =   130.2829   Anisotropy =    65.6967

 12  N    Isotropic =   225.7264   Anisotropy =    39.6761

 13  C    Isotropic =   143.2904   Anisotropy =    66.4240

 14  C    Isotropic =   147.8019   Anisotropy =    57.3367

 15  C    Isotropic =    68.5500   Anisotropy =    90.3431

 16  C    Isotropic =    93.3832   Anisotropy =   105.1373

 17  H    Isotropic =    28.2517   Anisotropy =     7.7003

 18  H    Isotropic =    28.4763   Anisotropy =     9.1645

 19  H    Isotropic =    28.5254   Anisotropy =     8.6924

 20  H    Isotropic =    26.0656   Anisotropy =     7.8675

 21  H    Isotropic =    25.3704   Anisotropy =     4.5656

 22  H    Isotropic =    25.2545   Anisotropy =     5.0898

 23  H    Isotropic =    28.5275   Anisotropy =     5.3066

 24  H    Isotropic =    27.3797   Anisotropy =     4.6640

 25  H    Isotropic =    29.4736   Anisotropy =     7.1635

 26  H    Isotropic =    29.7546   Anisotropy =     6.4030

 27  H    Isotropic =    29.9053   Anisotropy =     9.4634

 28  H    Isotropic =    29.9308   Anisotropy =    10.1668

 29  H    Isotropic =    30.0629   Anisotropy =     8.3847

 30  H    Isotropic =    29.5069   Anisotropy =     6.5565

 31  H    Isotropic =    30.2779   Anisotropy =     7.3753

 32  H    Isotropic =    29.9915   Anisotropy =     9.3908

 33  H    Isotropic =    25.6094   Anisotropy =     5.3851

 34  H    Isotropic =    26.1072   Anisotropy =     4.2088

  Exact polarizability: 189.391   0.652 175.392  18.233   3.913  90.204
 Approx polarizability: 271.311   7.393 276.903  41.354  10.274 140.163

                     1                      2                      3
                     A                      A                      A
 Frequencies --    31.4825                33.1442                40.1014
 Red. masses --     3.4029                 2.9104                 4.1643
 Frc consts  --     0.0020                 0.0019                 0.0039
 IR Inten    --     0.2504                 0.0531                 0.0642

                     4                      5                      6
                     A                      A                      A
 Frequencies --    82.3152               104.6343               147.8682
 Red. masses --     3.3108                 2.2288                 3.8612
 Frc consts  --     0.0132                 0.0144                 0.0497
 IR Inten    --     3.7665                 0.3767                 2.3135

                     7                      8                      9
                     A                      A                      A
 Frequencies --   198.3608               207.5077               218.8928
 Red. masses --     2.9837                 2.6762                 3.3047
 Frc consts  --     0.0692                 0.0679                 0.0933
 IR Inten    --     1.4949                 1.0165                 0.3718

                    10                     11                     12
                     A                      A                      A
 Frequencies --   247.0150               250.3558               268.9156
 Red. masses --     1.1865                 1.6060                 1.3547
 Frc consts  --     0.0427                 0.0593                 0.0577
 IR Inten    --     0.6553                 1.4607                 0.4274

                    13                     14                     15
                     A                      A                      A
 Frequencies --   286.9750               305.9786               324.7345
 Red. masses --     1.9464                 2.5815                 3.1338
 Frc consts  --     0.0944                 0.1424                 0.1947
 IR Inten    --     1.0783                 0.7485                 0.1662

                    16                     17                     18
                     A                      A                      A
 Frequencies --   369.8304               392.5965               433.4123
 Red. masses --     3.0130                 2.8216                 2.7568
 Frc consts  --     0.2428                 0.2562                 0.3051
 IR Inten    --     1.6668                 7.9767                 2.1642

                    19                     20                     21
                     A                      A                      A
 Frequencies --   462.3248               512.8614               517.5708
 Red. masses --     2.3738                 5.8712                 3.9407
 Frc consts  --     0.2989                 0.9099                 0.6220
 IR Inten    --     0.4817                 2.9520                 0.8640

                    22                     23                     24
                     A                      A                      A
 Frequencies --   551.1452               587.9469               618.9775
 Red. masses --     4.3449                 4.4266                 4.7714
 Frc consts  --     0.7776                 0.9016                 1.0771
 IR Inten    --     0.6580                 5.1098                 4.9238

                    25                     26                     27
                     A                      A                      A
 Frequencies --   629.6039               696.0080               724.2905
 Red. masses --     4.5617                 4.9426                 1.4919
 Frc consts  --     1.0654                 1.4107                 0.4611
 IR Inten    --     3.6561                14.4771                41.3539

                    28                     29                     30
                     A                      A                      A
 Frequencies --   745.3125               753.7267               792.8533
 Red. masses --     1.3655                 4.8224                 1.2714
 Frc consts  --     0.4469                 1.6142                 0.4709
 IR Inten    --     8.7483                12.1059                 5.4348

                    31                     32                     33
                     A                      A                      A
 Frequencies --   794.2031               841.5349               851.2474
 Red. masses --     2.7203                 1.2779                 1.4545
 Frc consts  --     1.0110                 0.5332                 0.6210
 IR Inten    --    32.4331                 0.9118                 1.1351

                    34                     35                     36
                     A                      A                      A
 Frequencies --   851.5636               875.4413               939.3616
 Red. masses --     4.8622                 3.8223                 1.2320
 Frc consts  --     2.0774                 1.7259                 0.6405
 IR Inten    --     3.7477                12.0897                 0.5739

                    37                     38                     39
                     A                      A                      A
 Frequencies --  1002.4986              1041.5665              1043.2128
 Red. masses --     5.4247                 2.6311                 2.5162
 Frc consts  --     3.2121                 1.6817                 1.6134
 IR Inten    --    13.3737                11.4929                 5.9784

                    40                     41                     42
                     A                      A                      A
 Frequencies --  1069.8867              1077.2774              1094.4412
 Red. masses --     1.8152                 2.1207                 2.2838
 Frc consts  --     1.2242                 1.4500                 1.6117
 IR Inten    --    34.4613                19.4825                 5.4981

                    43                     44                     45
                     A                      A                      A
 Frequencies --  1102.7083              1128.5496              1134.4814
 Red. masses --     1.3871                 2.6772                 1.3028
 Frc consts  --     0.9937                 2.0090                 0.9879
 IR Inten    --    29.0750                36.5595                13.2585

                    46                     47                     48
                     A                      A                      A
 Frequencies --  1142.4726              1180.4940              1185.3002
 Red. masses --     1.9113                 1.5017                 1.2707
 Frc consts  --     1.4698                 1.2330                 1.0518
 IR Inten    --    33.2883                24.8156                 1.0859

                    49                     50                     51
                     A                      A                      A
 Frequencies --  1207.0079              1207.4255              1228.0272
 Red. masses --     1.6214                 1.4546                 1.3705
 Frc consts  --     1.3918                 1.2494                 1.2177
 IR Inten    --    10.5482                22.9038                 6.5023

                    52                     53                     54
                     A                      A                      A
 Frequencies --  1247.6081              1279.3341              1299.4066
 Red. masses --     1.7155                 2.2644                 2.2128
 Frc consts  --     1.5732                 2.1836                 2.2013
 IR Inten    --    14.2843                20.0522               139.9153

                    55                     56                     57
                     A                      A                      A
 Frequencies --  1315.1218              1342.0719              1359.1185
 Red. masses --     2.4028                 1.4908                 2.2432
 Frc consts  --     2.4485                 1.5820                 2.4413
 IR Inten    --     7.7768                65.3225                80.5309

                    58                     59                     60
                     A                      A                      A
 Frequencies --  1369.4214              1387.6150              1398.2152
 Red. masses --     1.4201                 2.2772                 5.6921
 Frc consts  --     1.5691                 2.5834                 6.5565
 IR Inten    --     5.6394                14.6567                17.0709

                    61                     62                     63
                     A                      A                      A
 Frequencies --  1436.6316              1443.4786              1469.2933
 Red. masses --     1.4935                 2.9896                 1.1871
 Frc consts  --     1.8161                 3.6702                 1.5099
 IR Inten    --     3.3351                14.9112                 6.4315

                    64                     65                     66
                     A                      A                      A
 Frequencies --  1479.4660              1495.6017              1498.5060
 Red. masses --     2.3239                 1.1633                 1.2173
 Frc consts  --     2.9969                 1.5331                 1.6105
 IR Inten    --    22.2623                 1.9980                12.4309

                    67                     68                     69
                     A                      A                      A
 Frequencies --  1512.3465              1517.4199              1518.6444
 Red. masses --     1.0643                 1.0509                 1.1728
 Frc consts  --     1.4342                 1.4257                 1.5936
 IR Inten    --     8.5189                 5.8565                 3.3302

                    70                     71                     72
                     A                      A                      A
 Frequencies --  1522.0693              1528.6093              1535.8668
 Red. masses --     1.0957                 1.0566                 1.0952
 Frc consts  --     1.4956                 1.4546                 1.5221
 IR Inten    --     6.0751                16.4205                11.9294

                    73                     74                     75
                     A                      A                      A
 Frequencies --  1538.0271              1541.8862              1544.5269
 Red. masses --     1.0707                 1.0612                 2.6900
 Frc consts  --     1.4922                 1.4864                 3.7809
 IR Inten    --    34.2970                 4.4577                74.9205

                    76                     77                     78
                     A                      A                      A
 Frequencies --  1577.7658              1629.6518              1667.1767
 Red. masses --     4.3302                 5.7802                 7.2926
 Frc consts  --     6.3511                 9.0444                11.9425
 IR Inten    --     8.5217                68.5524                11.0556

                    79                     80                     81
                     A                      A                      A
 Frequencies --  2932.5221              2941.4046              2969.5176
 Red. masses --     1.0614                 1.0625                 1.0705
 Frc consts  --     5.3780                 5.4162                 5.5617
 IR Inten    --    40.3556               108.3917                63.8435

                    82                     83                     84
                     A                      A                      A
 Frequencies --  3027.6964              3075.3682              3079.6989
 Red. masses --     1.0339                 1.0730                 1.0868
 Frc consts  --     5.5843                 5.9790                 6.0731
 IR Inten    --    57.9559                28.7269                30.9500

                    85                     86                     87
                     A                      A                      A
 Frequencies --  3084.3672              3087.1873              3092.7305
 Red. masses --     1.0714                 1.1065                 1.0666
 Frc consts  --     6.0055                 6.2133                 6.0111
 IR Inten    --    18.1287                38.7996                51.6758

                    88                     89                     90
                     A                      A                      A
 Frequencies --  3120.5957              3130.1120              3153.5441
 Red. masses --     1.1038                 1.1027                 1.1005
 Frc consts  --     6.3328                 6.3651                 6.4481
 IR Inten    --    29.8595                43.6776                23.6376

                    91                     92                     93
                     A                      A                      A
 Frequencies --  3162.8141              3184.6640              3202.6486
 Red. masses --     1.1000                 1.0859                 1.0941
 Frc consts  --     6.4832                 6.4891                 6.6120
 IR Inten    --    12.0546                 5.4585                34.2478

                    94                     95                     96
                     A                      A                      A
 Frequencies --  3226.2109              3252.3503              3271.7108
 Red. masses --     1.0911                 1.0890                 1.1035
 Frc consts  --     6.6909                 6.7869                 6.9593
 IR Inten    --    12.2079                 1.4894                 7.0862

 - Thermochemistry -
 -------------------
 Temperature   298.150 Kelvin.  Pressure   1.00000 Atm.
 Atom     1 has atomic number  6 and mass  12.00000

 Molecular mass:   218.14191 amu.
 Principal axes and moments of inertia in atomic units:
                           1         2         3
     Eigenvalues --  2149.652185021.457136685.53101
           X            0.99999   0.00088  -0.00336
           Y           -0.00090   0.99999  -0.00512
           Z            0.00336   0.00512   0.99998
 This molecule is an asymmetric top.
 Rotational symmetry number  1.
 Warning -- assumption of classical behavior for rotation
           may cause significant error
 Rotational temperatures (Kelvin)      0.04029     0.01725     0.01296
 Rotational constants (GHZ):           0.83955     0.35941     0.26995
 Zero-point vibrational energy     771504.4 (Joules/Mol)
                                  184.39398 (Kcal/Mol)
 Warning -- explicit consideration of  24 degrees of freedom as
           vibrations may cause significant error
 Vibrational temperatures:     45.30    47.69    57.70   118.43   150.55
          (Kelvin)            212.75   285.40   298.56   314.94   355.40
                              360.21   386.91   412.89   440.23   467.22
                              532.10   564.86   623.58   665.18   737.89
                              744.67   792.97   845.92   890.57   905.86
                             1001.40  1042.09  1072.34  1084.44  1140.74
                             1142.68  1210.78  1224.75  1225.21  1259.56
                             1351.53  1442.37  1498.58  1500.95  1539.33
                             1549.96  1574.65  1586.55  1623.73  1632.26
                             1643.76  1698.47  1705.38  1736.61  1737.21
                             1766.86  1795.03  1840.67  1869.55  1892.16
                             1930.94  1955.47  1970.29  1996.47  2011.72
                             2066.99  2076.84  2113.98  2128.62  2151.83
                             2156.01  2175.93  2183.23  2184.99  2189.92
                             2199.33  2209.77  2212.88  2218.43  2222.23
                             2270.05  2344.70  2398.69  4219.24  4232.02
                             4272.47  4356.17  4424.76  4430.99  4437.71
                             4441.77  4449.74  4489.84  4503.53  4537.24
                             4550.58  4582.02  4607.89  4641.79  4679.40
                             4707.26

 Zero-point correction=                           0.293851 (Hartree/Particle)
 Thermal correction to Energy=                    0.309404
 Thermal correction to Enthalpy=                  0.310349
 Thermal correction to Gibbs Free Energy=         0.250011
 Sum of electronic and zero-point Energies=           -690.629237
 Sum of electronic and thermal Energies=              -690.613683
 Sum of electronic and thermal Enthalpies=            -690.612738
 Sum of electronic and thermal Free Energies=         -690.673076

                     E (Thermal)             CV                S
                      KCal/Mol        Cal/Mol-Kelvin    Cal/Mol-Kelvin
 Total                  194.154             59.366            126.992
 Electronic               0.000              0.000              0.000
 Translational            0.889              2.981             42.043
 Rotational               0.889              2.981             32.645
 Vibrational            192.377             53.404             52.303
 Vibration     1          0.594              1.983              5.734
 Vibration     2          0.594              1.983              5.632
 Vibration     3          0.594              1.981              5.254
 Vibration     4          0.600              1.961              3.835
 Vibration     5          0.605              1.946              3.366
 Vibration     6          0.617              1.905              2.699
 Vibration     7          0.637              1.842              2.148
 Vibration     8          0.641              1.829              2.065
 Vibration     9          0.647              1.812              1.968
 Vibration    10          0.661              1.768              1.752
 Vibration    11          0.663              1.762              1.728
 Vibration    12          0.673              1.730              1.603
 Vibration    13          0.684              1.698              1.492
 Vibration    14          0.696              1.662              1.384
 Vibration    15          0.709              1.626              1.286
 Vibration    16          0.742              1.534              1.080
 Vibration    17          0.760              1.486              0.990
 Vibration    18          0.794              1.397              0.848
 Vibration    19          0.820              1.334              0.759
 Vibration    20          0.868              1.222              0.627
 Vibration    21          0.873              1.211              0.616
 Vibration    22          0.906              1.137              0.542
 Vibration    23          0.945              1.057              0.471
 Vibration    24          0.979              0.992              0.418

 Optimization completed.
    -- Stationary point found.
 Normal termination of Gaussian 09 at Thu Sep 30 15:45:48 2021.
 Gaussian 09:  AM64L-G09RevA.02 11-Jun-2009

 ----------------------------------------------------------------------
 #p TD(NStates=10, Root=1) b3lyp/6-31G* volume pop=NPA density=current
 Geom=AllCheck Guess=Read
 ----------------------------------------------------------------------

 COc1cccc2c1n(CCN(C)C)cc2_conf_0
 -------------------------------
 Redundant internal coordinates taken from checkpoint file:
 C13H18N2O_d359_conf_0.chk
 Charge =  0 Multiplicity = 1

                         Standard orientation:
 ---------------------------------------------------------------------
 Center     Atomic      Atomic             Coordinates (Angstroms)
 Number     Number       Type             X           Y           Z
 ---------------------------------------------------------------------
      1          6           0        0.256143    3.177644   -0.261008
      2          8           0        0.191165    1.765486   -0.375415
      3          6           0        1.322504    1.044734   -0.074556
      4          6           0        2.533352    1.596825    0.329363
      5          6           0        3.645578    0.774387    0.619935
      6          6           0        3.573701   -0.602386    0.518002
      7          6           0        2.355899   -1.186161    0.114081
      8          6           0        1.237593   -0.359449   -0.182701
      9          7           0        0.186081   -1.181255   -0.565312
     10          6           0       -1.186434   -0.800632   -0.881906
     11          6           0       -2.049807   -0.616299    0.376991
     12          7           0       -3.440927   -0.315022    0.040432
     13          6           0       -4.347759   -0.644473    1.132870
     14          6           0       -3.627608    1.067944   -0.383347
     15          6           0        0.625149   -2.490838   -0.496762
     16          6           0        1.933250   -2.539339   -0.094847
     17          1           0       -0.733877    3.547232   -0.535517
     18          1           0        1.005373    3.601881   -0.942135
     19          1           0        0.488124    3.487938    0.766249
     20          1           0        2.637037    2.671402    0.424806
     21          1           0        4.573107    1.248549    0.929457
     22          1           0        4.434425   -1.225561    0.744156
     23          1           0       -1.620534   -1.593865   -1.497964
     24          1           0       -1.159863    0.111136   -1.478363
     25          1           0       -1.594964    0.156834    1.023033
     26          1           0       -2.029739   -1.557242    0.938849
     27          1           0       -4.249077   -1.703918    1.392196
     28          1           0       -5.381711   -0.467981    0.815735
     29          1           0       -4.167757   -0.047846    2.049080
     30          1           0       -2.981054    1.300585   -1.234144
     31          1           0       -3.408486    1.798565    0.420786
     32          1           0       -4.665253    1.215064   -0.702553
     33          1           0       -0.052348   -3.292695   -0.759229
     34          1           0        2.531828   -3.431772    0.026352
 ---------------------------------------------------------------------

 SCF Done:  E(RB3LYP) =  -690.923087028     A.U. after    1 cycles

 Excitation energies and oscillator strengths:

 Excited State   1:      Singlet-A      4.7768 eV  259.55 nm  f=0.0991  <S**2>=0.000
      58 -> 60        -0.17488
      58 -> 61         0.17703
      59 -> 60         0.63168
      59 -> 61         0.14260
 This state for optimization and/or second-order correction.
 Total Energy, E(TD-HF/TD-KS) =  -690.747542813
 Copying the excited state density for this state as the 1-particle RhoCI density.

 Excited State   2:      Singlet-A      4.9796 eV  248.99 nm  f=0.0080  <S**2>=0.000
      57 -> 60         0.12097
      58 -> 60        -0.41897
      59 -> 60        -0.22399
      59 -> 61         0.50088

 Excited State   3:      Singlet-A      5.5312 eV  224.15 nm  f=0.0012  <S**2>=0.000
      57 -> 60         0.66292
      58 -> 60         0.23059

 Excited State   4:      Singlet-A      6.0605 eV  204.58 nm  f=0.5857  <S**2>=0.000
      57 -> 60        -0.17495
      57 -> 61        -0.18562
      58 -> 60         0.44604
      59 -> 61         0.43846

 Excited State   5:      Singlet-A      6.1581 eV  201.34 nm  f=0.0195  <S**2>=0.000
      56 -> 60         0.46201
      57 -> 61         0.12198
      58 -> 61         0.44861
      59 -> 63        -0.21488

 Excited State   6:      Singlet-A      6.2121 eV  199.59 nm  f=0.0729  <S**2>=0.000
      56 -> 60        -0.34484
      57 -> 61         0.51135
      58 -> 61         0.25877
      59 -> 63         0.16531

 Excited State   7:      Singlet-A      6.3616 eV  194.89 nm  f=0.1422  <S**2>=0.000
      56 -> 60         0.19561
      56 -> 61         0.10318
      57 -> 61         0.40540
      58 -> 61        -0.39018
      59 -> 60         0.13911
      59 -> 62         0.20086
      59 -> 63        -0.22105

 Excited State   8:      Singlet-A      6.4539 eV  192.11 nm  f=0.0506  <S**2>=0.000
      57 -> 61        -0.11075
      58 -> 61         0.11711
      59 -> 62         0.64221
      59 -> 64        -0.13442

 Excited State   9:      Singlet-A      6.7394 eV  183.97 nm  f=0.0363  <S**2>=0.000
      56 -> 60         0.12706
      56 -> 61         0.38154
      58 -> 63        -0.28834
      59 -> 63         0.26818
      59 -> 64         0.37942

 Excited State  10:      Singlet-A      6.7512 eV  183.65 nm  f=0.0159  <S**2>=0.000
      56 -> 61        -0.30321
      58 -> 63         0.21294
      59 -> 62         0.12300
      59 -> 63        -0.10841
      59 -> 64         0.54873

 The electronic state is 1-A.
 Alpha  occ. eigenvalues --  -19.17766 -14.37315 -14.32638 -10.24081 -10.24027
 Alpha  occ. eigenvalues --  -10.21914 -10.20646 -10.20620 -10.20554 -10.20227
 Alpha  occ. eigenvalues --  -10.20215 -10.17392 -10.17297 -10.17206 -10.16840
 Alpha  occ. eigenvalues --  -10.16354  -1.06090  -0.97404  -0.91903  -0.83244
 Alpha  occ. eigenvalues --   -0.79061  -0.75176  -0.72361  -0.70742  -0.70390
 Alpha  occ. eigenvalues --   -0.69029  -0.64958  -0.60297  -0.58508  -0.57733
 Alpha  occ. eigenvalues --   -0.55985  -0.52116  -0.49715  -0.48154  -0.47498
 Alpha  occ. eigenvalues --   -0.46812  -0.46635  -0.45762  -0.45036  -0.44429
 Alpha  occ. eigenvalues --   -0.42540  -0.41704  -0.40069  -0.39700  -0.38926
 Alpha  occ. eigenvalues --   -0.38680  -0.37406  -0.36760  -0.36348  -0.36032
 Alpha  occ. eigenvalues --   -0.34564  -0.33870  -0.33791  -0.32292  -0.30201
 Alpha  occ. eigenvalues --   -0.24578  -0.21474  -0.20718  -0.18399
 Alpha virt. eigenvalues --    0.00931   0.03382   0.07702   0.08274   0.09723
 Alpha virt. eigenvalues --    0.10251   0.10929   0.12742   0.13486   0.13779
 Alpha virt. eigenvalues --    0.14696   0.15171   0.15362   0.16412   0.16700

 Mulliken atomic charges:
              1
     1  C   -0.213952
     2  O   -0.523582
     3  C    0.341321
     4  C   -0.246922
     5  C   -0.125623
     6  C   -0.221069
     7  C    0.107652
     8  C    0.245031
     9  N   -0.477266
    10  C   -0.155467
    11  C   -0.121705
    12  N   -0.370345
    13  C   -0.296704
    14  C   -0.303427
    15  C   -0.007969
    16  C   -0.220731
    17  H    0.161025
    18  H    0.156868
    19  H    0.156048
    20  H    0.112328
    21  H    0.121197
    22  H    0.117266
    23  H    0.163752
    24  H    0.185017
    25  H    0.144148
    26  H    0.147150
    27  H    0.152564
    28  H    0.150119
    29  H    0.123210
    30  H    0.156409
    31  H    0.122450
    32  H    0.151040
    33  H    0.136304
    34  H    0.133863
 Sum of Mulliken atomic charges =  -0.00000

 Dipole moment (field-independent basis, Debye):
    X=             -2.4726    Y=              1.2724    Z=              0.1307  Tot=              2.7838
 Quadrupole moment (field-independent basis, Debye-Ang):
   XX=            -93.0308   YY=            -85.3699   ZZ=            -98.5995
   XY=             -0.5920   XZ=              0.1063   YZ=             -0.8214

 Summary of Natural Population Analysis:

                                       Natural Population
                Natural  -----------------------------------------------
    Atom  No    Charge         Core      Valence    Rydberg      Total
 -----------------------------------------------------------------------
      C    1   -0.31371      1.99943     4.30006    0.01421     6.31371
      O    2   -0.52221      1.99975     6.51044    0.01203     8.52221
      C    3    0.25436      1.99870     3.72347    0.02346     5.74564
      C    4   -0.38147      1.99907     4.36638    0.01602     6.38147
      C    5   -0.19070      1.99914     4.17587    0.01569     6.19070
      C    6   -0.25197      1.99903     4.23599    0.01695     6.25197
      C    7   -0.10750      1.99906     4.09161    0.01683     6.10750
      C    8    0.11356      1.99895     3.86692    0.02057     5.88644
      N    9   -0.30482      1.99930     5.29181    0.01371     7.30482
      C   10   -0.25578      1.99930     4.23818    0.01829     6.25578
      C   11   -0.26441      1.99931     4.24846    0.01663     6.26441
      N   12   -0.49979      1.99947     5.48594    0.01437     7.49979
      C   13   -0.46875      1.99949     4.45643    0.01283     6.46875
      C   14   -0.47189      1.99948     4.45936    0.01305     6.47189
      C   15   -0.12395      1.99917     4.10261    0.02217     6.12395
      C   16   -0.23694      1.99903     4.22360    0.01431     6.23694
      H   17    0.22232      0.00000     0.77705    0.00062     0.77768
      H   18    0.20574      0.00000     0.79214    0.00212     0.79426
      H   19    0.20541      0.00000     0.79243    0.00216     0.79459
      H   20    0.22889      0.00000     0.77018    0.00093     0.77111
      H   21    0.23042      0.00000     0.76875    0.00083     0.76958
      H   22    0.22937      0.00000     0.76956    0.00107     0.77063
      H   23    0.24370      0.00000     0.75372    0.00258     0.75630
      H   24    0.25501      0.00000     0.74343    0.00157     0.74499
      H   25    0.21594      0.00000     0.78046    0.00360     0.78406
      H   26    0.23439      0.00000     0.76386    0.00174     0.76561
      H   27    0.22675      0.00000     0.77245    0.00081     0.77325
      H   28    0.22685      0.00000     0.77220    0.00096     0.77315
      H   29    0.19252      0.00000     0.80417    0.00331     0.80748
      H   30    0.22518      0.00000     0.77397    0.00085     0.77482
      H   31    0.19143      0.00000     0.80514    0.00342     0.80857
      H   32    0.22743      0.00000     0.77166    0.00091     0.77257
      H   33    0.22538      0.00000     0.77408    0.00053     0.77462
      H   34    0.23922      0.00000     0.76019    0.00059     0.76078
 =======================================================================
   * Total *   -0.00000     31.98769    85.72260    0.28972   118.00000

 Normal termination of Gaussian 09 at Thu Sep 30 21:10:58 2021.
