 Gaussian 09, Revision A.02,

 -----------------------------------
 #p opt b3lyp/6-31G* scf=(xqc,tight)
 -----------------------------------

 -----------------------------------
 C[Si](Oc1ccc2c(c1)cccc2)(C)C_conf_0
 -----------------------------------
 Symbolic Z-matrix:
 Charge =  0 Multiplicity = 1

 SCF Done:  E(RB3LYP) =  -869.821666966     A.U. after   15 cycles
 SCF Done:  E(RB3LYP) =  -869.826919292     A.U. after   12 cycles
 SCF Done:  E(RB3LYP) =  -869.827534629     A.U. after   12 cycles
 SCF Done:  E(RB3LYP) =  -869.827653363     A.U. after   11 cycles
 SCF Done:  E(RB3LYP) =  -869.827697573     A.U. after   11 cycles
 SCF Done:  E(RB3LYP) =  -869.827707118     A.U. after   10 cycles
 SCF Done:  E(RB3LYP) =  -869.827715588     A.U. after   10 cycles
 SCF Done:  E(RB3LYP) =  -869.827729043     A.U. after   10 cycles
 SCF Done:  E(RB3LYP) =  -869.827741037     A.U. after   11 cycles
 SCF Done:  E(RB3LYP) =  -869.827743066     A.U. after    8 cycles
 SCF Done:  E(RB3LYP) =  -869.827747371     A.U. after    8 cycles
 SCF Done:  E(RB3LYP) =  -869.827749901     A.U. after   10 cycles
 SCF Done:  E(RB3LYP) =  -869.827751532     A.U. after    9 cycles
 SCF Done:  E(RB3LYP) =  -869.827752672     A.U. after    9 cycles
 SCF Done:  E(RB3LYP) =  -869.827752149     A.U. after    8 cycles
 SCF Done:  E(RB3LYP) =  -869.827753008     A.U. after    8 cycles
 SCF Done:  E(RB3LYP) =  -869.827752746     A.U. after    7 cycles
 SCF Done:  E(RB3LYP) =  -869.827752909     A.U. after    6 cycles
 Optimization completed.
    -- Stationary point found.
 Normal termination of Gaussian 09 at Tue Sep 28 15:36:35 2021.

 ----------------------------------------------------------------------
 #p freq b3lyp/6-31G* volume NMR pop=NPA density=current Geom=AllCheck
 Guess=Read
 ----------------------------------------------------------------------

 C[Si](Oc1ccc2c(c1)cccc2)(C)C_conf_0
 -----------------------------------
 Redundant internal coordinates taken from checkpoint file:
 C13H16OSi_b5e5_conf_0.chk
 Charge =  0 Multiplicity = 1

 SCF Done:  E(RB3LYP) =  -869.827752909     A.U. after    1 cycles

  1  C    Isotropic =   190.1639   Anisotropy =     8.8727

  2  Si   Isotropic =   393.7277   Anisotropy =    30.4635

  3  O    Isotropic =   212.3954   Anisotropy =    84.0995

  4  C    Isotropic =    42.1778   Anisotropy =   118.8632

  5  C    Isotropic =    73.9784   Anisotropy =   133.5190

  6  C    Isotropic =    65.9125   Anisotropy =   142.9377

  7  C    Isotropic =    68.0621   Anisotropy =   192.4563

  8  C    Isotropic =    62.1764   Anisotropy =   193.5924

  9  C    Isotropic =    83.1864   Anisotropy =   104.9723

 10  C    Isotropic =    69.5200   Anisotropy =   140.9987

 11  C    Isotropic =    70.0973   Anisotropy =   161.5995

 12  C    Isotropic =    72.9728   Anisotropy =   157.2029

 13  C    Isotropic =    67.8871   Anisotropy =   145.8720

 14  C    Isotropic =   188.3570   Anisotropy =    11.8318

 15  C    Isotropic =   188.6028   Anisotropy =     8.3654

 16  H    Isotropic =    31.9641   Anisotropy =     8.9496

 17  H    Isotropic =    32.2470   Anisotropy =     9.7747

 18  H    Isotropic =    31.4085   Anisotropy =     8.9845

 19  H    Isotropic =    25.2164   Anisotropy =     7.4447

 20  H    Isotropic =    24.6685   Anisotropy =     6.6102

 21  H    Isotropic =    25.3522   Anisotropy =    10.6031

 22  H    Isotropic =    24.8048   Anisotropy =     8.3415

 23  H    Isotropic =    24.9014   Anisotropy =     5.4110

 24  H    Isotropic =    25.0003   Anisotropy =     4.7171

 25  H    Isotropic =    24.6978   Anisotropy =     6.7028

 26  H    Isotropic =    31.7950   Anisotropy =     9.2247

 27  H    Isotropic =    31.7582   Anisotropy =     9.0612

 28  H    Isotropic =    32.2722   Anisotropy =     9.6263

 29  H    Isotropic =    31.4293   Anisotropy =     9.0860

 30  H    Isotropic =    32.1668   Anisotropy =     9.6769

 31  H    Isotropic =    31.8051   Anisotropy =     8.6115

  Exact polarizability: 233.626  14.705 163.221  -2.272   0.645  84.434
 Approx polarizability: 339.726  32.319 282.086  -4.798   0.706 120.749

                     1                      2                      3
                     A                      A                      A
 Frequencies --    19.5020                35.6881                71.2344
 Red. masses --     3.7895                 3.0951                 3.9833
 Frc consts  --     0.0008                 0.0023                 0.0119
 IR Inten    --     0.6099                 0.0933                 0.2243

                     4                      5                      6
                     A                      A                      A
 Frequencies --   113.8806               127.1811               139.7083
 Red. masses --     1.7516                 1.5548                 1.0377
 Frc consts  --     0.0134                 0.0148                 0.0119
 IR Inten    --     0.0066                 0.0510                 0.0550

                     7                      8                      9
                     A                      A                      A
 Frequencies --   145.6472               168.2723               185.3765
 Red. masses --     1.0687                 2.6307                 3.4520
 Frc consts  --     0.0134                 0.0439                 0.0699
 IR Inten    --     0.0177                 0.1836                 0.4060

                    10                     11                     12
                     A                      A                      A
 Frequencies --   196.2353               200.7921               241.6858
 Red. masses --     2.7395                 2.6961                 2.9498
 Frc consts  --     0.0622                 0.0640                 0.1015
 IR Inten    --     1.1904                 0.2980                 2.6832

                    13                     14                     15
                     A                      A                      A
 Frequencies --   260.2499               307.7941               322.5311
 Red. masses --     3.5030                 4.0963                 5.2091
 Frc consts  --     0.1398                 0.2286                 0.3193
 IR Inten    --     5.8797                 7.8020                 6.1922

                    16                     17                     18
                     A                      A                      A
 Frequencies --   407.7483               412.1528               469.1000
 Red. masses --     4.9749                 3.4605                 5.6647
 Frc consts  --     0.4873                 0.3463                 0.7344
 IR Inten    --     2.3717                 0.4939                 4.9595

                    19                     20                     21
                     A                      A                      A
 Frequencies --   486.2287               524.8623               546.7965
 Red. masses --     2.5450                 6.4395                 3.6201
 Frc consts  --     0.3545                 1.0452                 0.6377
 IR Inten    --     8.1266                 0.7043                 0.4071

                    22                     23                     24
                     A                      A                      A
 Frequencies --   595.1148               637.3621               655.3047
 Red. masses --     4.2784                 6.5454                 2.9366
 Frc consts  --     0.8928                 1.5666                 0.7430
 IR Inten    --     0.4041                 7.4890                 0.9252

                    25                     26                     27
                     A                      A                      A
 Frequencies --   663.5888               690.3258               698.2993
 Red. masses --     4.9337                 2.2365                 2.2934
 Frc consts  --     1.2800                 0.6279                 0.6589
 IR Inten    --    21.4403                 8.1485                 6.6803

                    28                     29                     30
                     A                      A                      A
 Frequencies --   704.0709               762.1882               769.7772
 Red. masses --     1.1816                 1.3824                 2.4851
 Frc consts  --     0.3451                 0.4732                 0.8676
 IR Inten    --     0.0467                28.6604                 0.0289

                    31                     32                     33
                     A                      A                      A
 Frequencies --   784.0401               785.2682               791.2471
 Red. masses --     1.6538                 4.1063                 1.4960
 Frc consts  --     0.5990                 1.4919                 0.5518
 IR Inten    --    13.1503                 1.3017                22.7914

                    34                     35                     36
                     A                      A                      A
 Frequencies --   828.8725               829.0244               859.6070
 Red. masses --     1.7957                 2.1644                 1.5493
 Frc consts  --     0.7269                 0.8764                 0.6745
 IR Inten    --     8.7814                 6.7264                51.1563

                    37                     38                     39
                     A                      A                      A
 Frequencies --   885.5656               890.3192               891.3729
 Red. masses --     1.6693                 1.6421                 1.6654
 Frc consts  --     0.7713                 0.7669                 0.7796
 IR Inten    --     5.8709               104.7597                99.2057

                    40                     41                     42
                     A                      A                      A
 Frequencies --   904.7276               942.7917               948.2978
 Red. masses --     2.0754                 5.0541                 1.3210
 Frc consts  --     1.0009                 2.6468                 0.6999
 IR Inten    --   257.2499               166.0525                 3.3463

                    43                     44                     45
                     A                      A                      A
 Frequencies --   964.1759               984.7263               995.0783
 Red. masses --     1.2964                 1.2649                 3.5363
 Frc consts  --     0.7101                 0.7227                 2.0630
 IR Inten    --     0.3084                 0.0237               138.8239

                    46                     47                     48
                     A                      A                      A
 Frequencies --  1052.2697              1151.8752              1176.0858
 Red. masses --     2.2755                 1.5977                 1.2378
 Frc consts  --     1.4845                 1.2490                 1.0087
 IR Inten    --     0.6387                20.6526                 1.7575

                    49                     50                     51
                     A                      A                      A
 Frequencies --  1187.4279              1219.2270              1260.9930
 Red. masses --     1.1763                 1.6211                 2.0962
 Frc consts  --     0.9772                 1.4198                 1.9638
 IR Inten    --     2.2221                95.2778               102.0493

                    52                     53                     54
                     A                      A                      A
 Frequencies --  1296.3555              1303.4923              1333.8243
 Red. masses --     1.8277                 2.6526                 1.2612
 Frc consts  --     1.8096                 2.6554                 1.3220
 IR Inten    --    48.3956               226.2071                33.1911

                    55                     56                     57
                     A                      A                      A
 Frequencies --  1334.0707              1343.2479              1393.5233
 Red. masses --     1.2499                 1.2321                 2.0656
 Frc consts  --     1.3106                 1.3098                 2.3633
 IR Inten    --    40.6395                45.6152                23.2637

                    58                     59                     60
                     A                      A                      A
 Frequencies --  1413.3960              1426.7323              1484.4234
 Red. masses --     6.1631                 3.7848                 1.0539
 Frc consts  --     7.2539                 4.5392                 1.3682
 IR Inten    --     2.5989                70.2805                 0.2518

                    61                     62                     63
                     A                      A                      A
 Frequencies --  1487.6684              1490.1516              1490.9823
 Red. masses --     2.4266                 1.0709                 1.0551
 Frc consts  --     3.1642                 1.4010                 1.3820
 IR Inten    --     7.8884                 0.1542                 0.0099

                    64                     65                     66
                     A                      A                      A
 Frequencies --  1497.4175              1498.2269              1508.8479
 Red. masses --     1.0484                 1.0651                 1.0629
 Frc consts  --     1.3851                 1.4087                 1.4257
 IR Inten    --     1.8666                 4.7619                 2.2752

                    67                     68                     69
                     A                      A                      A
 Frequencies --  1520.5686              1562.2107              1626.9190
 Red. masses --     2.2639                 3.4199                 6.9284
 Frc consts  --     3.0841                 4.9174                10.8048
 IR Inten    --   110.0291                54.8960                 9.3518

                    70                     71                     72
                     A                      A                      A
 Frequencies --  1660.6367              1685.2122              3044.9678
 Red. masses --     5.3347                 6.1507                 1.0367
 Frc consts  --     8.6679                10.2916                 5.6631
 IR Inten    --    92.4529                89.1137                 3.6920

                    73                     74                     75
                     A                      A                      A
 Frequencies --  3046.2955              3048.5429              3114.2114
 Red. masses --     1.0363                 1.0358                 1.0994
 Frc consts  --     5.6663                 5.6718                 6.2821
 IR Inten    --     3.0848                 4.9271                 5.9704

                    76                     77                     78
                     A                      A                      A
 Frequencies --  3115.8161              3120.1220              3127.0008
 Red. masses --     1.0997                 1.0999                 1.1006
 Frc consts  --     6.2903                 6.3085                 6.3405
 IR Inten    --     9.7194                30.3487                 3.7555

                    79                     80                     81
                     A                      A                      A
 Frequencies --  3127.6591              3128.4012              3173.9643
 Red. masses --     1.1006                 1.1003                 1.0857
 Frc consts  --     6.3434                 6.3444                 6.4441
 IR Inten    --    17.6849                20.7584                 5.5669

                    82                     83                     84
                     A                      A                      A
 Frequencies --  3177.8976              3183.1222              3193.0602
 Red. masses --     1.0884                 1.0884                 1.0929
 Frc consts  --     6.4762                 6.4973                 6.5650
 IR Inten    --     0.3595                12.6698                32.4409

                    85                     86                     87
                     A                      A                      A
 Frequencies --  3202.9492              3207.4505              3215.8709
 Red. masses --     1.0897                 1.0967                 1.0937
 Frc consts  --     6.5867                 6.6477                 6.6642
 IR Inten    --    31.7361                29.6932                 9.9585

 - Thermochemistry -
 -------------------
 Temperature   298.150 Kelvin.  Pressure   1.00000 Atm.
 Atom     1 has atomic number  6 and mass  12.00000

 Molecular mass:   216.09704 amu.
 Principal axes and moments of inertia in atomic units:
                           1         2         3
     Eigenvalues --  1406.108166650.752307467.69867
           X            0.99999  -0.00461   0.00013
           Y            0.00461   0.99999   0.00278
           Z           -0.00014  -0.00278   1.00000
 This molecule is an asymmetric top.
 Rotational symmetry number  1.
 Warning -- assumption of classical behavior for rotation
           may cause significant error
 Rotational temperatures (Kelvin)      0.06160     0.01302     0.01160
 Rotational constants (GHZ):           1.28350     0.27136     0.24167
 Zero-point vibrational energy     666780.1 (Joules/Mol)
                                  159.36427 (Kcal/Mol)
 Warning -- explicit consideration of  22 degrees of freedom as
           vibrations may cause significant error
 Vibrational temperatures:     28.06    51.35   102.49   163.85   182.99
          (Kelvin)            201.01   209.55   242.11   266.72   282.34
                              288.89   347.73   374.44   442.85   464.05
                              586.66   593.00   674.93   699.57   755.16
                              786.72   856.24   917.02   942.84   954.76
                              993.22  1004.70  1013.00  1096.62  1107.54
                             1128.06  1129.82  1138.43  1192.56  1192.78
                             1236.78  1274.13  1280.97  1282.49  1301.70
                             1356.47  1364.39  1387.23  1416.80  1431.69
                             1513.98  1657.29  1692.12  1708.44  1754.19
                             1814.29  1865.16  1875.43  1919.07  1919.43
                             1932.63  2004.97  2033.56  2052.75  2135.75
                             2140.42  2143.99  2145.19  2154.45  2155.61
                             2170.89  2187.76  2247.67  2340.77  2389.28
                             2424.64  4381.02  4382.93  4386.17  4480.65
                             4482.96  4489.15  4499.05  4500.00  4501.07
                             4566.62  4572.28  4579.80  4594.10  4608.32
                             4614.80  4626.92

 Zero-point correction=                           0.253963 (Hartree/Particle)
 Thermal correction to Energy=                    0.269837
 Thermal correction to Enthalpy=                  0.270781
 Thermal correction to Gibbs Free Energy=         0.209930
 Sum of electronic and zero-point Energies=           -869.573790
 Sum of electronic and thermal Energies=              -869.557916
 Sum of electronic and thermal Enthalpies=            -869.556972
 Sum of electronic and thermal Free Energies=         -869.617823

                     E (Thermal)             CV                S
                      KCal/Mol        Cal/Mol-Kelvin    Cal/Mol-Kelvin
 Total                  169.325             60.437            128.071
 Electronic               0.000              0.000              0.000
 Translational            0.889              2.981             42.015
 Rotational               0.889              2.981             32.613
 Vibrational            167.548             54.475             53.444
 Vibration     1          0.593              1.986              6.684
 Vibration     2          0.594              1.982              5.485
 Vibration     3          0.598              1.968              4.119
 Vibration     4          0.607              1.938              3.202
 Vibration     5          0.611              1.926              2.988
 Vibration     6          0.615              1.914              2.808
 Vibration     7          0.617              1.907              2.728
 Vibration     8          0.625              1.882              2.455
 Vibration     9          0.631              1.860              2.274
 Vibration    10          0.636              1.845              2.168
 Vibration    11          0.638              1.839              2.126
 Vibration    12          0.658              1.776              1.790
 Vibration    13          0.668              1.745              1.660
 Vibration    14          0.698              1.659              1.374
 Vibration    15          0.708              1.630              1.297
 Vibration    16          0.772              1.453              0.935
 Vibration    17          0.776              1.444              0.919
 Vibration    18          0.826              1.319              0.740
 Vibration    19          0.842              1.281              0.693
 Vibration    20          0.880              1.195              0.599
 Vibration    21          0.902              1.147              0.551
 Vibration    22          0.953              1.042              0.458

 Optimization completed.
    -- Stationary point found.
 Normal termination of Gaussian 09 at Tue Sep 28 16:22:26 2021.
 Gaussian 09:  AM64L-G09RevA.02 11-Jun-2009

 ----------------------------------------------------------------------
 #p TD(NStates=10, Root=1) b3lyp/6-31G* volume pop=NPA density=current
 Geom=AllCheck Guess=Read
 ----------------------------------------------------------------------

 C[Si](Oc1ccc2c(c1)cccc2)(C)C_conf_0
 -----------------------------------
 Redundant internal coordinates taken from checkpoint file:
 C13H16OSi_b5e5_conf_0.chk
 Charge =  0 Multiplicity = 1

                         Standard orientation:
 ---------------------------------------------------------------------
 Center     Atomic      Atomic             Coordinates (Angstroms)
 Number     Number       Type             X           Y           Z
 ---------------------------------------------------------------------
      1          6           0        2.793848   -1.175171    1.639347
      2         14           0        2.932215   -0.223867    0.017131
      3          8           0        1.680305    0.910367   -0.106115
      4          6           0        0.322864    0.798318   -0.069801
      5          6           0       -0.398465    2.023839   -0.041742
      6          6           0       -1.770596    2.023986   -0.008046
      7          6           0       -2.508054    0.808349   -0.000478
      8          6           0       -1.782336   -0.426455   -0.030673
      9          6           0       -0.362253   -0.401293   -0.066005
     10          6           0       -2.515038   -1.644483   -0.025449
     11          6           0       -3.891967   -1.642203    0.008842
     12          6           0       -4.607570   -0.420775    0.039656
     13          6           0       -3.926436    0.776457    0.034930
     14          6           0        4.482410    0.836867   -0.003493
     15          6           0        2.917149   -1.389953   -1.465926
     16          1           0        2.825909   -0.492029    2.496051
     17          1           0        3.629882   -1.878156    1.743948
     18          1           0        1.865383   -1.751612    1.711378
     19          1           0        0.169454    2.948954   -0.047270
     20          1           0       -2.312778    2.966559    0.014036
     21          1           0        0.173444   -1.345402   -0.094301
     22          1           0       -1.968054   -2.584433   -0.049267
     23          1           0       -4.435774   -2.583294    0.012268
     24          1           0       -5.693725   -0.432413    0.066757
     25          1           0       -4.469088    1.719002    0.058252
     26          1           0        4.492320    1.538895    0.837850
     27          1           0        4.547727    1.422714   -0.927297
     28          1           0        5.385494    0.218110    0.065185
     29          1           0        2.024084   -2.023198   -1.502321
     30          1           0        3.791313   -2.052890   -1.438993
     31          1           0        2.959619   -0.824503   -2.404173
 ---------------------------------------------------------------------

 SCF Done:  E(RB3LYP) =  -869.827752909     A.U. after    2 cycles

 Excitation energies and oscillator strengths:

 Excited State   1:      Singlet-A      4.2000 eV  295.20 nm  f=0.0387  <S**2>=0.000
      57 -> 59         0.18543
      57 -> 60         0.17482
      58 -> 59         0.62943
      58 -> 60        -0.18801
 This state for optimization and/or second-order correction.
 Total Energy, E(TD-HF/TD-KS) =  -869.673404298
 Copying the excited state density for this state as the 1-particle RhoCI density.

 Excited State   2:      Singlet-A      4.5485 eV  272.58 nm  f=0.0109  <S**2>=0.000
      57 -> 59         0.50045
      58 -> 59        -0.26873
      58 -> 60        -0.41382

 Excited State   3:      Singlet-A      5.6423 eV  219.74 nm  f=0.4190  <S**2>=0.000
      56 -> 59         0.39601
      57 -> 59         0.29478
      58 -> 60         0.32442
      58 -> 61        -0.37775

 Excited State   4:      Singlet-A      5.8173 eV  213.13 nm  f=0.7619  <S**2>=0.000
      56 -> 59        -0.20057
      57 -> 59         0.30575
      57 -> 60         0.21918
      58 -> 60         0.39842
      58 -> 61         0.37113

 Excited State   5:      Singlet-A      5.9153 eV  209.60 nm  f=0.1140  <S**2>=0.000
      54 -> 59         0.10751
      55 -> 59         0.13833
      56 -> 59        -0.14395
      56 -> 60         0.17704
      57 -> 59        -0.10060
      57 -> 60         0.52395
      57 -> 61        -0.16473
      58 -> 59        -0.12218
      58 -> 61        -0.27541

 Excited State   6:      Singlet-A      6.2196 eV  199.34 nm  f=0.1544  <S**2>=0.000
      56 -> 59         0.29284
      56 -> 60        -0.22321
      57 -> 59        -0.11170
      57 -> 60         0.31172
      57 -> 61         0.42189
      58 -> 61         0.18647

 Excited State   7:      Singlet-A      6.3858 eV  194.16 nm  f=0.0140  <S**2>=0.000
      52 -> 59         0.21898
      54 -> 59        -0.40308
      55 -> 59         0.51474

 Excited State   8:      Singlet-A      6.4993 eV  190.77 nm  f=0.1447  <S**2>=0.000
      54 -> 59         0.34201
      55 -> 59         0.15225
      56 -> 59        -0.36672
      57 -> 60        -0.13553
      57 -> 61         0.36746
      58 -> 60         0.11710
      58 -> 61        -0.18087

 Excited State   9:      Singlet-A      6.6089 eV  187.60 nm  f=0.0006  <S**2>=0.000
      58 -> 62         0.66354
      58 -> 63         0.19189

 Excited State  10:      Singlet-A      6.6413 eV  186.69 nm  f=0.0260  <S**2>=0.000
      54 -> 59         0.36661
      55 -> 59         0.34939
      56 -> 59         0.21443
      56 -> 60         0.28171
      57 -> 60        -0.10401
      57 -> 61        -0.13787
      58 -> 61         0.25363

 The electronic state is 1-A.
 Alpha  occ. eigenvalues --  -66.15051 -19.15481 -10.24772 -10.19406 -10.18916
 Alpha  occ. eigenvalues --  -10.18823 -10.18535 -10.18487 -10.18363 -10.18319
 Alpha  occ. eigenvalues --  -10.18283 -10.18096 -10.16621 -10.16587 -10.16395
 Alpha  occ. eigenvalues --   -5.29150  -3.65269  -3.64936  -3.64924  -1.02691
 Alpha  occ. eigenvalues --   -0.86363  -0.80903  -0.76561  -0.73259  -0.71552
 Alpha  occ. eigenvalues --   -0.70824  -0.68259  -0.68087  -0.62624  -0.60423
 Alpha  occ. eigenvalues --   -0.59216  -0.53952  -0.50940  -0.50179  -0.45437
 Alpha  occ. eigenvalues --   -0.44472  -0.44073  -0.42619  -0.42031  -0.41724
 Alpha  occ. eigenvalues --   -0.40778  -0.40618  -0.40515  -0.39878  -0.39077
 Alpha  occ. eigenvalues --   -0.38988  -0.38422  -0.37488  -0.36636  -0.34506
 Alpha  occ. eigenvalues --   -0.33461  -0.31946  -0.31228  -0.29287  -0.29109
 Alpha  occ. eigenvalues --   -0.27409  -0.22550  -0.20207
 Alpha virt. eigenvalues --   -0.02997   0.00314   0.03830   0.06739   0.07748
 Alpha virt. eigenvalues --    0.09540   0.09846   0.10395   0.11740   0.12085
 Alpha virt. eigenvalues --    0.12236   0.13678   0.13816   0.15421   0.16332

 Mulliken atomic charges:
              1
     1  C   -0.684743
     2  Si   0.888607
     3  O   -0.585498
     4  C    0.401981
     5  C   -0.196445
     6  C   -0.213984
     7  C    0.150789
     8  C    0.138375
     9  C   -0.273262
    10  C   -0.207852
    11  C   -0.157827
    12  C   -0.113236
    13  C   -0.216650
    14  C   -0.664829
    15  C   -0.686736
    16  H    0.176027
    17  H    0.167230
    18  H    0.172579
    19  H    0.125044
    20  H    0.124736
    21  H    0.141846
    22  H    0.113769
    23  H    0.114837
    24  H    0.130469
    25  H    0.122646
    26  H    0.175429
    27  H    0.175601
    28  H    0.165960
    29  H    0.171306
    30  H    0.167569
    31  H    0.176258
 Sum of Mulliken atomic charges =  -0.00000

 Dipole moment (field-independent basis, Debye):
    X=              2.8233    Y=             -1.0382    Z=              0.1203  Tot=              3.0106
 Quadrupole moment (field-independent basis, Debye-Ang):
   XX=            -86.0017   YY=            -92.5624   ZZ=            -99.2237
   XY=             -3.8765   XZ=              0.0208   YZ=              0.2484

 Summary of Natural Population Analysis:

                                       Natural Population
                Natural  -----------------------------------------------
    Atom  No    Charge         Core      Valence    Rydberg      Total
 -----------------------------------------------------------------------
      C    1   -1.22442      1.99948     5.21560    0.00934     7.22442
     Si    2    2.00830      9.99784     1.94853    0.04533    11.99170
      O    3   -0.80122      1.99976     6.78926    0.01220     8.80122
      C    4    0.39345      1.99879     3.58557    0.02219     5.60655
      C    5   -0.34194      1.99905     4.32589    0.01700     6.34194
      C    6   -0.21745      1.99907     4.20306    0.01533     6.21745
      C    7   -0.04560      1.99902     4.03154    0.01504     6.04560
      C    8   -0.05263      1.99903     4.03790    0.01570     6.05263
      C    9   -0.26199      1.99899     4.24937    0.01363     6.26199
      C   10   -0.22867      1.99906     4.21429    0.01532     6.22867
      C   11   -0.29874      1.99912     4.28321    0.01641     6.29874
      C   12   -0.16602      1.99911     4.15228    0.01463     6.16602
      C   13   -0.25163      1.99907     4.23714    0.01542     6.25163
      C   14   -1.22047      1.99949     5.21211    0.00888     7.22047
      C   15   -1.22390      1.99948     5.21498    0.00944     7.22390
      H   16    0.26016      0.00000     0.73905    0.00079     0.73984
      H   17    0.25637      0.00000     0.74299    0.00064     0.74363
      H   18    0.25686      0.00000     0.74220    0.00094     0.74314
      H   19    0.24085      0.00000     0.75813    0.00101     0.75915
      H   20    0.23178      0.00000     0.76711    0.00111     0.76822
      H   21    0.22701      0.00000     0.77163    0.00135     0.77299
      H   22    0.22396      0.00000     0.77487    0.00117     0.77604
      H   23    0.23043      0.00000     0.76876    0.00081     0.76957
      H   24    0.23203      0.00000     0.76710    0.00087     0.76797
      H   25    0.22915      0.00000     0.76973    0.00113     0.77085
      H   26    0.25953      0.00000     0.73970    0.00077     0.74047
      H   27    0.25970      0.00000     0.73953    0.00077     0.74030
      H   28    0.25389      0.00000     0.74554    0.00057     0.74611
      H   29    0.25449      0.00000     0.74473    0.00078     0.74551
      H   30    0.25641      0.00000     0.74296    0.00063     0.74359
      H   31    0.26032      0.00000     0.73889    0.00079     0.73968
 =======================================================================
   * Total *   -0.00000     37.98636    77.75365    0.25999   116.00000

 Normal termination of Gaussian 09 at Tue Sep 28 20:57:37 2021.
