 Gaussian 09, Revision A.02,

 -----------------------------------
 #p opt b3lyp/6-31G* scf=(xqc,tight)
 -----------------------------------

 -----------------------------------------
 COc1nc(Oc2ccc(cc2)C(=O)OC)nc(n1)OC_conf_0
 -----------------------------------------
 Symbolic Z-matrix:
 Charge =  0 Multiplicity = 1

 SCF Done:  E(RB3LYP) =  -1043.58814741     A.U. after   15 cycles
 SCF Done:  E(RB3LYP) =  -1043.59845794     A.U. after   13 cycles
 SCF Done:  E(RB3LYP) =  -1043.60342459     A.U. after   13 cycles
 SCF Done:  E(RB3LYP) =  -1043.60442018     A.U. after   13 cycles
 SCF Done:  E(RB3LYP) =  -1043.60451554     A.U. after   12 cycles
 SCF Done:  E(RB3LYP) =  -1043.60529441     A.U. after   12 cycles
 SCF Done:  E(RB3LYP) =  -1043.60542580     A.U. after   11 cycles
 SCF Done:  E(RB3LYP) =  -1043.60549046     A.U. after   11 cycles
 SCF Done:  E(RB3LYP) =  -1043.60553268     A.U. after   11 cycles
 SCF Done:  E(RB3LYP) =  -1043.60556095     A.U. after   11 cycles
 SCF Done:  E(RB3LYP) =  -1043.60556628     A.U. after   11 cycles
 SCF Done:  E(RB3LYP) =  -1043.60556815     A.U. after   10 cycles
 SCF Done:  E(RB3LYP) =  -1043.60556804     A.U. after    9 cycles
 SCF Done:  E(RB3LYP) =  -1043.60556722     A.U. after    9 cycles
 SCF Done:  E(RB3LYP) =  -1043.60556722     A.U. after    8 cycles
 SCF Done:  E(RB3LYP) =  -1043.60556759     A.U. after    7 cycles
 SCF Done:  E(RB3LYP) =  -1043.60556780     A.U. after    7 cycles
 Optimization completed.
    -- Stationary point found.
 Normal termination of Gaussian 09 at Tue Sep 28 17:55:28 2021.

 ----------------------------------------------------------------------
 #p freq b3lyp/6-31G* volume NMR pop=NPA density=current Geom=AllCheck
 Guess=Read
 ----------------------------------------------------------------------

 COc1nc(Oc2ccc(cc2)C(=O)OC)nc(n1)OC_conf_0
 -----------------------------------------
 Redundant internal coordinates taken from checkpoint file:
 C13H13N3O5_5438_conf_0.chk
 Charge =  0 Multiplicity = 1

 SCF Done:  E(RB3LYP) =  -1043.60556780     A.U. after    1 cycles

  1  C    Isotropic =   136.1637   Anisotropy =    64.5159

  2  O    Isotropic =   189.5453   Anisotropy =    91.0116

  3  C    Isotropic =    22.4318   Anisotropy =   100.8205

  4  N    Isotropic =    63.1717   Anisotropy =   282.3946

  5  C    Isotropic =    24.0910   Anisotropy =    92.0283

  6  O    Isotropic =   136.8937   Anisotropy =   102.1588

  7  C    Isotropic =    40.2658   Anisotropy =   114.7176

  8  C    Isotropic =    74.8712   Anisotropy =   142.3746

  9  C    Isotropic =    64.6759   Anisotropy =   171.5880

 10  C    Isotropic =    68.4605   Anisotropy =   147.5548

 11  C    Isotropic =    63.4513   Anisotropy =   174.6628

 12  C    Isotropic =    72.6920   Anisotropy =   149.4517

 13  C    Isotropic =    32.8741   Anisotropy =    74.6079

 14  O    Isotropic =   -45.3638   Anisotropy =   575.7483

 15  O    Isotropic =   167.0477   Anisotropy =   130.5645

 16  C    Isotropic =   138.9460   Anisotropy =    62.8767

 17  N    Isotropic =    68.0965   Anisotropy =   280.4319

 18  C    Isotropic =    23.7042   Anisotropy =    99.4667

 19  N    Isotropic =    54.3149   Anisotropy =   284.5573

 20  O    Isotropic =   189.7718   Anisotropy =    89.7480

 21  C    Isotropic =   136.5180   Anisotropy =    63.6959

 22  H    Isotropic =    28.4750   Anisotropy =     7.6500

 23  H    Isotropic =    28.2590   Anisotropy =     7.7795

 24  H    Isotropic =    28.2368   Anisotropy =     7.5042

 25  H    Isotropic =    25.2436   Anisotropy =     6.7286

 26  H    Isotropic =    24.1990   Anisotropy =     8.0139

 27  H    Isotropic =    24.0094   Anisotropy =     7.2485

 28  H    Isotropic =    25.1460   Anisotropy =     7.8089

 29  H    Isotropic =    28.6838   Anisotropy =     7.3498

 30  H    Isotropic =    28.2850   Anisotropy =     8.3576

 31  H    Isotropic =    28.2984   Anisotropy =     8.5104

 32  H    Isotropic =    28.6709   Anisotropy =     7.4233

 33  H    Isotropic =    28.6319   Anisotropy =     6.8131

 34  H    Isotropic =    28.7499   Anisotropy =     6.2916

  Exact polarizability: 259.102 -22.543 145.380   7.013  14.669 117.854
 Approx polarizability: 331.188 -30.143 230.181   5.900  37.004 201.998

                     1                      2                      3
                     A                      A                      A
 Frequencies --    13.9525                24.4240                38.8136
 Red. masses --     4.8840                 5.8215                 6.0422
 Frc consts  --     0.0006                 0.0020                 0.0054
 IR Inten    --     0.3111                 0.1517                 0.2709

                     4                      5                      6
                     A                      A                      A
 Frequencies --    60.0702                83.2288                94.8721
 Red. masses --     4.3893                 3.0616                 3.5483
 Frc consts  --     0.0093                 0.0125                 0.0188
 IR Inten    --     1.4104                 7.2741                 0.1717

                     7                      8                      9
                     A                      A                      A
 Frequencies --   128.8639               132.9989               137.3374
 Red. masses --     1.2496                 2.4051                 1.9481
 Frc consts  --     0.0122                 0.0251                 0.0216
 IR Inten    --     0.3834                 0.2650                 0.1582

                    10                     11                     12
                     A                      A                      A
 Frequencies --   151.9028               155.4578               159.7083
 Red. masses --     1.9082                 1.5496                 3.7751
 Frc consts  --     0.0259                 0.0221                 0.0567
 IR Inten    --     0.0987                 0.4588                 2.1301

                    13                     14                     15
                     A                      A                      A
 Frequencies --   172.1676               202.4080               211.0873
 Red. masses --     3.5774                 5.3010                 4.1169
 Frc consts  --     0.0625                 0.1280                 0.1081
 IR Inten    --     1.1918                 1.5858                 7.6833

                    16                     17                     18
                     A                      A                      A
 Frequencies --   218.3636               255.6170               290.2417
 Red. masses --     4.1315                 6.5953                 5.9847
 Frc consts  --     0.1161                 0.2539                 0.2970
 IR Inten    --     1.5498                 3.5229                 5.1120

                    19                     20                     21
                     A                      A                      A
 Frequencies --   318.2133               332.2801               391.4475
 Red. masses --     5.0392                 5.1747                 5.8950
 Frc consts  --     0.3006                 0.3366                 0.5322
 IR Inten    --    24.9279                 3.9666                 0.7457

                    22                     23                     24
                     A                      A                      A
 Frequencies --   407.3612               424.4191               433.8878
 Red. masses --     5.4985                 3.1163                 5.5692
 Frc consts  --     0.5376                 0.3307                 0.6177
 IR Inten    --     3.2570                 0.1279                 5.7124

                    25                     26                     27
                     A                      A                      A
 Frequencies --   499.8115               504.3742               559.2908
 Red. masses --     6.2431                 3.6834                10.0173
 Frc consts  --     0.9189                 0.5521                 1.8462
 IR Inten    --     8.9834                 1.0022                 3.6994

                    28                     29                     30
                     A                      A                      A
 Frequencies --   618.5942               638.1182               647.6091
 Red. masses --     6.0492                 6.7646                 7.1550
 Frc consts  --     1.3638                 1.6229                 1.7680
 IR Inten    --     4.5896                 0.8157                 0.6669

                    31                     32                     33
                     A                      A                      A
 Frequencies --   682.4144               699.2868               733.3388
 Red. masses --     7.1919                 4.4585                 7.4799
 Frc consts  --     1.9733                 1.2846                 2.3700
 IR Inten    --     1.3957                22.8438                10.3697

                    34                     35                     36
                     A                      A                      A
 Frequencies --   741.5444               748.3011               782.8749
 Red. masses --     5.7609                12.0178                 6.3704
 Frc consts  --     1.8664                 3.9649                 2.3004
 IR Inten    --     5.7964                 0.0413                13.6671

                    37                     38                     39
                     A                      A                      A
 Frequencies --   821.1679               827.7441               844.7541
 Red. masses --     5.6890                10.8637                 1.2561
 Frc consts  --     2.2602                 4.3855                 0.5281
 IR Inten    --     8.4201                33.9524                 0.4155

                    40                     41                     42
                     A                      A                      A
 Frequencies --   863.3775               879.3611               972.4822
 Red. masses --     4.4218                 2.2183                 1.5513
 Frc consts  --     1.9420                 1.0107                 0.8644
 IR Inten    --    14.6748                25.9434                 2.0614

                    43                     44                     45
                     A                      A                      A
 Frequencies --   975.2498               986.1269               998.1658
 Red. masses --     3.9297                 1.3275                13.1661
 Frc consts  --     2.2021                 0.7606                 7.7288
 IR Inten    --     5.3417                 0.8368                 0.1836

                    46                     47                     48
                     A                      A                      A
 Frequencies --  1003.6682              1038.7679              1056.7294
 Red. masses --     7.3172                 2.7469                 8.0948
 Frc consts  --     4.3428                 1.7463                 5.3258
 IR Inten    --     6.1325                23.8205                45.9927

                    49                     50                     51
                     A                      A                      A
 Frequencies --  1107.2076              1133.3052              1147.3397
 Red. masses --     4.8945                 1.3621                 3.3065
 Frc consts  --     3.5352                 1.0307                 2.5645
 IR Inten    --    64.2859                41.3553               138.0225

                    52                     53                     54
                     A                      A                      A
 Frequencies --  1175.9019              1183.7059              1184.3821
 Red. masses --     4.1867                 1.2659                 1.2650
 Frc consts  --     3.4109                 1.0451                 1.0455
 IR Inten    --   145.3971                 0.9332                 0.3005

                    55                     56                     57
                     A                      A                      A
 Frequencies --  1185.5293              1195.2810              1219.3359
 Red. masses --     1.2723                 1.1872                 1.8735
 Frc consts  --     1.0535                 0.9993                 1.6411
 IR Inten    --     0.8919               141.7645                61.2121

                    58                     59                     60
                     A                      A                      A
 Frequencies --  1223.8336              1226.2689              1262.9572
 Red. masses --     1.5893                 1.6415                 4.5934
 Frc consts  --     1.4025                 1.4543                 4.3168
 IR Inten    --    65.2513                 9.7922               566.5848

                    61                     62                     63
                     A                      A                      A
 Frequencies --  1312.1163              1323.7450              1333.1876
 Red. masses --     4.7998                 6.0864                 1.4200
 Frc consts  --     4.8688                 6.2837                 1.4870
 IR Inten    --   666.2781                32.2939                16.6680

                    64                     65                     66
                     A                      A                      A
 Frequencies --  1362.1271              1408.0415              1417.4714
 Red. masses --    10.5383                 3.2016                 7.0464
 Frc consts  --    11.5201                 3.7397                 8.3416
 IR Inten    --    18.7052               738.2034               784.3522

                    67                     68                     69
                     A                      A                      A
 Frequencies --  1455.4105              1466.9772              1493.0301
 Red. masses --     3.0062                 1.6614                 1.2123
 Frc consts  --     3.7518                 2.1065                 1.5922
 IR Inten    --     5.3459                 9.9364                21.6530

                    70                     71                     72
                     A                      A                      A
 Frequencies --  1511.8074              1512.6040              1513.2976
 Red. masses --     1.0482                 1.0486                 1.0481
 Frc consts  --     1.4115                 1.4135                 1.4142
 IR Inten    --     5.8884                 6.0365                 8.1079

                    73                     74                     75
                     A                      A                      A
 Frequencies --  1519.5497              1522.5433              1524.4713
 Red. masses --     1.0754                 1.0651                 1.4691
 Frc consts  --     1.4630                 1.4548                 2.0116
 IR Inten    --    40.3730                 2.1118               117.8977

                    76                     77                     78
                     A                      A                      A
 Frequencies --  1524.7176              1551.7151              1566.8422
 Red. masses --     1.0721                 2.6623                 3.7567
 Frc consts  --     1.4685                 3.7769                 5.4339
 IR Inten    --    18.4251               110.6219                 3.2486

                    79                     80                     81
                     A                      A                      A
 Frequencies --  1591.3341              1634.4376              1643.5503
 Red. masses --     7.8518                 8.3985                 8.8543
 Frc consts  --    11.7149                13.2187                14.0918
 IR Inten    --   662.6527               453.6305               443.8972

                    82                     83                     84
                     A                      A                      A
 Frequencies --  1665.5911              1801.2062              3075.6162
 Red. masses --     6.0349                11.6642                 1.0294
 Frc consts  --     9.8640                22.2962                 5.7373
 IR Inten    --    13.4002               228.0262                42.8064

                    85                     86                     87
                     A                      A                      A
 Frequencies --  3076.0321              3076.3895              3150.3840
 Red. masses --     1.0295                 1.0294                 1.1075
 Frc consts  --     5.7392                 5.7402                 6.4764
 IR Inten    --    51.2005                13.2572                20.5035

                    88                     89                     90
                     A                      A                      A
 Frequencies --  3151.9049              3152.7494              3181.4930
 Red. masses --     1.1077                 1.1078                 1.1073
 Frc consts  --     6.4837                 6.4875                 6.6033
 IR Inten    --    20.1995                18.7074                24.7513

                    91                     92                     93
                     A                      A                      A
 Frequencies --  3181.5537              3181.8608              3219.2597
 Red. masses --     1.1072                 1.1071                 1.0898
 Frc consts  --     6.6033                 6.6040                 6.6542
 IR Inten    --    17.0565                23.1798                 4.6084

                    94                     95                     96
                     A                      A                      A
 Frequencies --  3221.9189              3234.6090              3239.8113
 Red. masses --     1.0886                 1.0949                 1.0936
 Frc consts  --     6.6579                 6.7492                 6.7629
 IR Inten    --     1.6256                 5.0853                 1.6306

 - Thermochemistry -
 -------------------
 Temperature   298.150 Kelvin.  Pressure   1.00000 Atm.
 Atom     1 has atomic number  6 and mass  12.00000

 Molecular mass:   291.08552 amu.
 Principal axes and moments of inertia in atomic units:
                           1         2         3
     Eigenvalues --  2419.83446********************
           X            0.99996  -0.00780   0.00453
           Y            0.00779   0.99997   0.00304
           Z           -0.00456  -0.00300   0.99999
 This molecule is an asymmetric top.
 Rotational symmetry number  1.
 Warning -- assumption of classical behavior for rotation
           may cause significant error
 Rotational temperatures (Kelvin)      0.03579     0.00600     0.00542
 Rotational constants (GHZ):           0.74581     0.12504     0.11296
 Zero-point vibrational energy     681911.4 (Joules/Mol)
                                  162.98073 (Kcal/Mol)
 Warning -- explicit consideration of  28 degrees of freedom as
           vibrations may cause significant error
 Vibrational temperatures:     20.07    35.14    55.84    86.43   119.75
          (Kelvin)            136.50   185.41   191.36   197.60   218.55
                              223.67   229.78   247.71   291.22   303.71
                              314.18   367.78   417.59   457.84   478.08
                              563.20   586.10   610.64   624.27   719.12
                              725.68   804.69   890.02   918.11   931.76
                              981.84  1006.12  1055.11  1066.92  1076.64
                             1126.38  1181.48  1190.94  1215.41  1242.21
                             1265.20  1399.18  1403.17  1418.81  1436.14
                             1444.05  1494.55  1520.40  1593.02  1630.57
                             1650.76  1691.86  1703.09  1704.06  1705.71
                             1719.74  1754.35  1760.82  1764.33  1817.11
                             1887.84  1904.57  1918.16  1959.79  2025.86
                             2039.42  2094.01  2110.65  2148.13  2175.15
                             2176.30  2177.29  2186.29  2190.60  2193.37
                             2193.73  2232.57  2254.33  2289.57  2351.59
                             2364.70  2396.41  2591.53  4425.12  4425.72
                             4426.23  4532.69  4534.88  4536.10  4577.45
                             4577.54  4577.98  4631.79  4635.62  4653.88
                             4661.36

 Zero-point correction=                           0.259726 (Hartree/Particle)
 Thermal correction to Energy=                    0.279164
 Thermal correction to Enthalpy=                  0.280108
 Thermal correction to Gibbs Free Energy=         0.208968
 Sum of electronic and zero-point Energies=          -1043.345841
 Sum of electronic and thermal Energies=             -1043.326404
 Sum of electronic and thermal Enthalpies=           -1043.325460
 Sum of electronic and thermal Free Energies=        -1043.396600

                     E (Thermal)             CV                S
                      KCal/Mol        Cal/Mol-Kelvin    Cal/Mol-Kelvin
 Total                  175.178             70.060            149.727
 Electronic               0.000              0.000              0.000
 Translational            0.889              2.981             42.903
 Rotational               0.889              2.981             34.678
 Vibrational            173.400             64.098             72.147
 Vibration     1          0.593              1.986              7.349
 Vibration     2          0.593              1.985              6.237
 Vibration     3          0.594              1.981              5.319
 Vibration     4          0.597              1.973              4.455
 Vibration     5          0.600              1.961              3.813
 Vibration     6          0.603              1.953              3.557
 Vibration     7          0.611              1.924              2.963
 Vibration     8          0.613              1.920              2.902
 Vibration     9          0.614              1.916              2.841
 Vibration    10          0.619              1.901              2.648
 Vibration    11          0.620              1.897              2.604
 Vibration    12          0.622              1.892              2.553
 Vibration    13          0.626              1.877              2.412
 Vibration    14          0.639              1.836              2.111
 Vibration    15          0.643              1.824              2.034
 Vibration    16          0.646              1.813              1.973
 Vibration    17          0.666              1.753              1.692
 Vibration    18          0.686              1.692              1.473
 Vibration    19          0.705              1.639              1.319
 Vibration    20          0.714              1.611              1.249
 Vibration    21          0.759              1.488              0.995
 Vibration    22          0.772              1.454              0.936
 Vibration    23          0.786              1.417              0.877
 Vibration    24          0.795              1.396              0.846
 Vibration    25          0.855              1.250              0.659
 Vibration    26          0.860              1.240              0.647
 Vibration    27          0.915              1.119              0.525
 Vibration    28          0.978              0.993              0.419

 Optimization completed.
    -- Stationary point found.
 Normal termination of Gaussian 09 at Tue Sep 28 20:07:18 2021.
 Gaussian 09:  AM64L-G09RevA.02 11-Jun-2009

 ----------------------------------------------------------------------
 #p TD(NStates=10, Root=1) b3lyp/6-31G* volume pop=NPA density=current
 Geom=AllCheck Guess=Read
 ----------------------------------------------------------------------

 COc1nc(Oc2ccc(cc2)C(=O)OC)nc(n1)OC_conf_0
 -----------------------------------------
 Redundant internal coordinates taken from checkpoint file:
 C13H13N3O5_5438_conf_0.chk
 Charge =  0 Multiplicity = 1

                         Standard orientation:
 ---------------------------------------------------------------------
 Center     Atomic      Atomic             Coordinates (Angstroms)
 Number     Number       Type             X           Y           Z
 ---------------------------------------------------------------------
      1          6           0        5.534977   -2.129263    0.165858
      2          8           0        5.344715   -0.712332    0.037429
      3          6           0        4.094503   -0.257123   -0.013733
      4          7           0        3.084529   -1.134939    0.059502
      5          6           0        1.886650   -0.559859   -0.003378
      6          8           0        0.861904   -1.437656    0.049504
      7          6           0       -0.457754   -0.995115    0.098709
      8          6           0       -1.299465   -1.386139   -0.939759
      9          6           0       -2.651519   -1.056438   -0.883086
     10          6           0       -3.155443   -0.338675    0.209596
     11          6           0       -2.291965    0.039068    1.248350
     12          6           0       -0.942513   -0.289612    1.200850
     13          6           0       -4.589980    0.043760    0.324458
     14          8           0       -5.062855    0.670314    1.252829
     15          8           0       -5.325072   -0.384014   -0.728261
     16          6           0       -6.719669   -0.046361   -0.677890
     17          7           0        1.627266    0.738282   -0.125627
     18          6           0        2.734086    1.497515   -0.185695
     19          7           0        3.992952    1.068393   -0.135098
     20          8           0        2.598707    2.816495   -0.310361
     21          6           0        1.268241    3.350531   -0.378751
     22          1           0        6.616699   -2.265766    0.187205
     23          1           0        5.097372   -2.659313   -0.684004
     24          1           0        5.082335   -2.501031    1.088657
     25          1           0       -0.888784   -1.945566   -1.773824
     26          1           0       -3.318139   -1.354022   -1.684224
     27          1           0       -2.701022    0.587299    2.090362
     28          1           0       -0.269044   -0.007694    2.002571
     29          1           0       -7.152366   -0.456259   -1.590997
     30          1           0       -6.851156    1.038335   -0.642197
     31          1           0       -7.190317   -0.489397    0.203825
     32          1           0        1.403589    4.427680   -0.481339
     33          1           0        0.707410    3.119962    0.530753
     34          1           0        0.730109    2.947437   -1.240515
 ---------------------------------------------------------------------

 SCF Done:  E(RB3LYP) =  -1043.60556780     A.U. after    2 cycles

 Excitation energies and oscillator strengths:

 Excited State   1:      Singlet-A      4.8429 eV  256.01 nm  f=0.0024  <S**2>=0.000
      72 -> 77         0.52478
      73 -> 77         0.37060
      74 -> 77         0.23039
 This state for optimization and/or second-order correction.
 Total Energy, E(TD-HF/TD-KS) =  -1043.42759449
 Copying the excited state density for this state as the 1-particle RhoCI density.

 Excited State   2:      Singlet-A      5.0098 eV  247.48 nm  f=0.0316  <S**2>=0.000
      75 -> 77         0.55087
      76 -> 77        -0.22146
      76 -> 78        -0.25328
      76 -> 79        -0.18696
      76 -> 80        -0.17343

 Excited State   3:      Singlet-A      5.1415 eV  241.14 nm  f=0.4100  <S**2>=0.000
      75 -> 77         0.19003
      76 -> 77         0.62818
      76 -> 79        -0.15928

 Excited State   4:      Singlet-A      5.4696 eV  226.68 nm  f=0.0035  <S**2>=0.000
      72 -> 77        -0.23874
      72 -> 78        -0.15989
      72 -> 79         0.13758
      73 -> 77         0.44534
      73 -> 78         0.26781
      73 -> 79        -0.23372
      74 -> 77        -0.16806
      75 -> 78         0.10226

 Excited State   5:      Singlet-A      5.5246 eV  224.42 nm  f=0.0003  <S**2>=0.000
      70 -> 77        -0.25581
      70 -> 78        -0.23954
      70 -> 79         0.15515
      72 -> 77        -0.20380
      72 -> 79         0.10072
      73 -> 79        -0.12433
      74 -> 77         0.33359
      76 -> 78         0.28282
      76 -> 79        -0.17823
      76 -> 80        -0.11907

 Excited State   6:      Singlet-A      5.6396 eV  219.85 nm  f=0.0017  <S**2>=0.000
      70 -> 77        -0.12229
      70 -> 80        -0.10017
      71 -> 77        -0.27656
      71 -> 78        -0.11709
      72 -> 78        -0.10702
      72 -> 80         0.15350
      73 -> 78         0.17629
      73 -> 80        -0.21333
      74 -> 77         0.27684
      75 -> 78         0.12584
      76 -> 78        -0.18454
      76 -> 79        -0.14151
      76 -> 80         0.26302

 Excited State   7:      Singlet-A      5.6529 eV  219.33 nm  f=0.0136  <S**2>=0.000
      70 -> 78         0.10918
      71 -> 77         0.41686
      71 -> 78         0.14981
      72 -> 77        -0.12982
      73 -> 78         0.11813
      73 -> 80        -0.16317
      74 -> 77         0.32206
      74 -> 78        -0.12227
      74 -> 80         0.14400
      76 -> 79         0.13291
      76 -> 80        -0.10468

 Excited State   8:      Singlet-A      5.7167 eV  216.88 nm  f=0.0215  <S**2>=0.000
      71 -> 77        -0.16207
      72 -> 78         0.12068
      72 -> 80        -0.15301
      73 -> 78        -0.17101
      73 -> 79        -0.18635
      73 -> 80         0.26068
      74 -> 77         0.28882
      74 -> 79         0.10987
      75 -> 80         0.11680
      76 -> 78        -0.25749
      76 -> 79         0.26724

 Excited State   9:      Singlet-A      5.7408 eV  215.97 nm  f=0.0420  <S**2>=0.000
      70 -> 77         0.47953
      70 -> 78         0.11519
      70 -> 79        -0.13144
      71 -> 77        -0.18342
      74 -> 77         0.14591
      75 -> 77         0.13946
      76 -> 78         0.32251
      76 -> 79        -0.13571

 Excited State  10:      Singlet-A      5.8072 eV  213.50 nm  f=0.0123  <S**2>=0.000
      70 -> 78         0.11106
      70 -> 80        -0.14508
      71 -> 77         0.33034
      72 -> 78         0.10984
      73 -> 77         0.10632
      73 -> 78        -0.16332
      73 -> 80         0.16127
      76 -> 78        -0.11667
      76 -> 79        -0.32848
      76 -> 80         0.31466

 The electronic state is 1-A.
 Alpha  occ. eigenvalues --  -19.21440 -19.19967 -19.19812 -19.19664 -19.13707
 Alpha  occ. eigenvalues --  -14.34324 -14.33973 -14.33268 -10.33662 -10.32830
 Alpha  occ. eigenvalues --  -10.32658 -10.31883 -10.27009 -10.24525 -10.24412
 Alpha  occ. eigenvalues --  -10.24334 -10.21206 -10.21074 -10.20845 -10.20754
 Alpha  occ. eigenvalues --  -10.20689  -1.12174  -1.10466  -1.10431  -1.09691
 Alpha  occ. eigenvalues --   -1.01505  -1.00176  -0.90673  -0.90084  -0.87195
 Alpha  occ. eigenvalues --   -0.78528  -0.76680  -0.75283  -0.73170  -0.72241
 Alpha  occ. eigenvalues --   -0.68939  -0.63845  -0.63031  -0.62206  -0.58850
 Alpha  occ. eigenvalues --   -0.57658  -0.56867  -0.54038  -0.52619  -0.51074
 Alpha  occ. eigenvalues --   -0.50799  -0.49062  -0.48437  -0.47899  -0.46970
 Alpha  occ. eigenvalues --   -0.45887  -0.45566  -0.44682  -0.44283  -0.43734
 Alpha  occ. eigenvalues --   -0.43332  -0.42375  -0.40774  -0.40263  -0.39436
 Alpha  occ. eigenvalues --   -0.38964  -0.37374  -0.36916  -0.36692  -0.35959
 Alpha  occ. eigenvalues --   -0.35743  -0.35440  -0.31465  -0.30554  -0.28809
 Alpha  occ. eigenvalues --   -0.28151  -0.27816  -0.27731  -0.27557  -0.26742
 Alpha  occ. eigenvalues --   -0.25426
 Alpha virt. eigenvalues --   -0.05065  -0.02097  -0.01701  -0.01178   0.05356
 Alpha virt. eigenvalues --    0.08550   0.10776   0.11217   0.11591   0.12017
 Alpha virt. eigenvalues --    0.12595   0.13250   0.13378   0.13845   0.14831

 Mulliken atomic charges:
              1
     1  C   -0.209005
     2  O   -0.457787
     3  C    0.675922
     4  N   -0.523144
     5  C    0.661349
     6  O   -0.529695
     7  C    0.322082
     8  C   -0.161545
     9  C   -0.202383
    10  C    0.065885
    11  C   -0.208749
    12  C   -0.141634
    13  C    0.568231
    14  O   -0.292690
    15  O   -0.429262
    16  C   -0.242865
    17  N   -0.523499
    18  C    0.675569
    19  N   -0.491164
    20  O   -0.458006
    21  C   -0.209554
    22  H    0.166497
    23  H    0.171446
    24  H    0.171576
    25  H    0.138452
    26  H    0.136326
    27  H    0.130172
    28  H    0.134752
    29  H    0.190868
    30  H    0.181093
    31  H    0.181471
    32  H    0.166345
    33  H    0.170146
    34  H    0.172799
 Sum of Mulliken atomic charges =  -0.00000

 Dipole moment (field-independent basis, Debye):
    X=             -7.1528    Y=             -0.0143    Z=             -0.5787  Tot=              7.1762
 Quadrupole moment (field-independent basis, Debye-Ang):
   XX=            -86.9308   YY=           -116.0169   ZZ=           -114.7082
   XY=            -14.1629   XZ=              6.9975   YZ=              1.5325

 Summary of Natural Population Analysis:

                                       Natural Population
                Natural  -----------------------------------------------
    Atom  No    Charge         Core      Valence    Rydberg      Total
 -----------------------------------------------------------------------
      C    1   -0.32037      1.99941     4.30728    0.01368     6.32037
      O    2   -0.50095      1.99972     6.48895    0.01229     8.50095
      C    3    0.76189      1.99921     3.20195    0.03695     5.23811
      N    4   -0.61247      1.99926     5.59228    0.02093     7.61247
      C    5    0.77536      1.99917     3.18974    0.03573     5.22464
      O    6   -0.49535      1.99968     6.48357    0.01210     8.49535
      C    7    0.24420      1.99870     3.73428    0.02282     5.75580
      C    8   -0.25367      1.99899     4.24047    0.01421     6.25367
      C    9   -0.23582      1.99905     4.22249    0.01428     6.23582
      C   10   -0.21744      1.99888     4.20244    0.01612     6.21744
      C   11   -0.23512      1.99907     4.22214    0.01391     6.23512
      C   12   -0.25525      1.99900     4.24245    0.01381     6.25525
      C   13    0.67601      1.99931     3.28664    0.03803     5.32399
      O   14   -0.24730      1.99981     6.22897    0.01852     8.24730
      O   15   -0.47580      1.99977     6.46539    0.01065     8.47580
      C   16   -0.32800      1.99943     4.31437    0.01420     6.32800
      N   17   -0.63665      1.99924     5.61818    0.01923     7.63665
      C   18    0.76717      1.99921     3.19703    0.03658     5.23283
      N   19   -0.56496      1.99927     5.54373    0.02197     7.56496
      O   20   -0.50074      1.99972     6.48890    0.01212     8.50074
      C   21   -0.32044      1.99941     4.30733    0.01371     6.32044
      H   22    0.22363      0.00000     0.77575    0.00061     0.77637
      H   23    0.22025      0.00000     0.77838    0.00137     0.77975
      H   24    0.22032      0.00000     0.77831    0.00136     0.77968
      H   25    0.24843      0.00000     0.75050    0.00106     0.75157
      H   26    0.24448      0.00000     0.75469    0.00083     0.75552
      H   27    0.23376      0.00000     0.76577    0.00046     0.76624
      H   28    0.24630      0.00000     0.75280    0.00090     0.75370
      H   29    0.23741      0.00000     0.76226    0.00033     0.76259
      H   30    0.21863      0.00000     0.78007    0.00130     0.78137
      H   31    0.21873      0.00000     0.77998    0.00129     0.78127
      H   32    0.22358      0.00000     0.77581    0.00061     0.77642
      H   33    0.21923      0.00000     0.77928    0.00149     0.78077
      H   34    0.22093      0.00000     0.77770    0.00136     0.77907
 =======================================================================
   * Total *   -0.00000     41.98529   109.58989    0.42482   152.00000

 Normal termination of Gaussian 09 at Wed Sep 29 02:01:05 2021.
