 Gaussian 09, Revision A.02,

 -----------------------------------
 #p opt b3lyp/6-31G* scf=(xqc,tight)
 -----------------------------------

 ---------------------------------
 O=C(N(C)C)Oc1cccc2c1cccc2F_conf_0
 ---------------------------------
 Symbolic Z-matrix:
 Charge =  0 Multiplicity = 1

 SCF Done:  E(RB3LYP) =  -807.661991616     A.U. after   15 cycles
 SCF Done:  E(RB3LYP) =  -807.669615417     A.U. after   13 cycles
 SCF Done:  E(RB3LYP) =  -807.670178918     A.U. after   12 cycles
 SCF Done:  E(RB3LYP) =  -807.670055444     A.U. after   12 cycles
 SCF Done:  E(RB3LYP) =  -807.670434185     A.U. after   12 cycles
 SCF Done:  E(RB3LYP) =  -807.670523463     A.U. after   11 cycles
 SCF Done:  E(RB3LYP) =  -807.670641014     A.U. after   12 cycles
 SCF Done:  E(RB3LYP) =  -807.670695911     A.U. after   16 cycles
 SCF Done:  E(RB3LYP) =  -807.670734742     A.U. after   10 cycles
 SCF Done:  E(RB3LYP) =  -807.670762292     A.U. after   11 cycles
 SCF Done:  E(RB3LYP) =  -807.670782624     A.U. after   10 cycles
 SCF Done:  E(RB3LYP) =  -807.670789415     A.U. after   10 cycles
 SCF Done:  E(RB3LYP) =  -807.670793889     A.U. after   10 cycles
 SCF Done:  E(RB3LYP) =  -807.670794881     A.U. after    8 cycles
 SCF Done:  E(RB3LYP) =  -807.670795030     A.U. after    8 cycles
 SCF Done:  E(RB3LYP) =  -807.670794945     A.U. after    7 cycles
 SCF Done:  E(RB3LYP) =  -807.670794885     A.U. after    7 cycles
 SCF Done:  E(RB3LYP) =  -807.670794842     A.U. after    6 cycles
 Optimization completed.
    -- Stationary point found.
 Normal termination of Gaussian 09 at Thu Sep 30 10:06:45 2021.

 ----------------------------------------------------------------------
 #p freq b3lyp/6-31G* volume NMR pop=NPA density=current Geom=AllCheck
 Guess=Read
 ----------------------------------------------------------------------

 O=C(N(C)C)Oc1cccc2c1cccc2F_conf_0
 ---------------------------------
 Redundant internal coordinates taken from checkpoint file:
 C13H12FNO2_135f_conf_0.chk
 Charge =  0 Multiplicity = 1

 SCF Done:  E(RB3LYP) =  -807.670794842     A.U. after    1 cycles

  1  O    Isotropic =    67.7652   Anisotropy =   388.3127

  2  C    Isotropic =    46.9112   Anisotropy =    80.1737

  3  N    Isotropic =   179.6483   Anisotropy =    83.5671

  4  C    Isotropic =   154.9772   Anisotropy =    51.8212

  5  C    Isotropic =   155.5608   Anisotropy =    49.2666

  6  O    Isotropic =   149.7014   Anisotropy =   150.8573

  7  C    Isotropic =    48.4200   Anisotropy =   100.4334

  8  C    Isotropic =    75.1059   Anisotropy =   150.3383

  9  C    Isotropic =    70.4024   Anisotropy =   160.3793

 10  C    Isotropic =    77.0195   Anisotropy =   159.1643

 11  C    Isotropic =    70.9123   Anisotropy =   171.3976

 12  C    Isotropic =    67.9671   Anisotropy =   174.6072

 13  C    Isotropic =    77.9056   Anisotropy =   155.7547

 14  C    Isotropic =    70.6336   Anisotropy =   159.1192

 15  C    Isotropic =    85.1543   Anisotropy =   131.7449

 16  C    Isotropic =    35.8667   Anisotropy =    86.4504

 17  F    Isotropic =   307.3002   Anisotropy =   128.1654

 18  H    Isotropic =    28.1055   Anisotropy =     7.1299

 19  H    Isotropic =    29.8624   Anisotropy =     9.3297

 20  H    Isotropic =    29.7940   Anisotropy =     9.4172

 21  H    Isotropic =    28.1278   Anisotropy =     4.6077

 22  H    Isotropic =    29.4523   Anisotropy =     9.1414

 23  H    Isotropic =    29.7172   Anisotropy =     8.8685

 24  H    Isotropic =    24.7757   Anisotropy =     9.3139

 25  H    Isotropic =    24.7524   Anisotropy =     5.1127

 26  H    Isotropic =    24.3611   Anisotropy =     7.8546

 27  H    Isotropic =    24.4105   Anisotropy =     9.9850

 28  H    Isotropic =    24.8354   Anisotropy =     5.6415

 29  H    Isotropic =    25.3295   Anisotropy =     5.2027

  Exact polarizability: 200.748  -4.415 176.959  -6.425   5.706  71.077
 Approx polarizability: 290.746  -8.767 312.170 -15.289   8.919 111.616

                     1                      2                      3
                     A                      A                      A
 Frequencies --    29.6863                37.5421                68.9344
 Red. masses --     4.9795                 3.6328                 3.0852
 Frc consts  --     0.0026                 0.0030                 0.0086
 IR Inten    --     0.7864                 1.7292                 0.4604

                     4                      5                      6
                     A                      A                      A
 Frequencies --    76.7527               116.9542               129.5489
 Red. masses --     1.7755                 3.0224                 5.1234
 Frc consts  --     0.0062                 0.0244                 0.0507
 IR Inten    --     0.1448                 0.6428                 2.6647

                     7                      8                      9
                     A                      A                      A
 Frequencies --   148.6760               178.7369               221.0517
 Red. masses --     1.2223                 4.1848                 2.5745
 Frc consts  --     0.0159                 0.0788                 0.0741
 IR Inten    --     0.3621                 1.7526                 3.9621

                    10                     11                     12
                     A                      A                      A
 Frequencies --   234.3362               243.1978               254.0347
 Red. masses --     3.4777                 4.8775                 6.5024
 Frc consts  --     0.1125                 0.1700                 0.2472
 IR Inten    --     1.9243                 1.9272                 1.8376

                    13                     14                     15
                     A                      A                      A
 Frequencies --   291.2393               334.7406               383.5241
 Red. masses --     4.7333                 6.4367                 3.4497
 Frc consts  --     0.2365                 0.4249                 0.2990
 IR Inten    --     1.4733                 2.2893                17.1637

                    16                     17                     18
                     A                      A                      A
 Frequencies --   443.9347               475.5566               487.3376
 Red. masses --     3.6902                 3.4821                 6.6311
 Frc consts  --     0.4285                 0.4640                 0.9279
 IR Inten    --     6.8087                 0.1247                 3.7115

                    19                     20                     21
                     A                      A                      A
 Frequencies --   512.4724               527.7197               546.0372
 Red. masses --     5.4493                 6.6433                 5.6094
 Frc consts  --     0.8432                 1.0900                 0.9854
 IR Inten    --     0.3414                 0.0531                 0.3869

                    22                     23                     24
                     A                      A                      A
 Frequencies --   589.0951               597.6877               624.1642
 Red. masses --     7.1894                 3.6937                 5.6787
 Frc consts  --     1.4700                 0.7774                 1.3035
 IR Inten    --     1.5386                 1.2093                 7.6160

                    25                     26                     27
                     A                      A                      A
 Frequencies --   663.1247               716.9792               737.1604
 Red. masses --     5.4282                 6.7509                11.3217
 Frc consts  --     1.4064                 2.0447                 3.6248
 IR Inten    --     3.7095                 0.0771                19.3756

                    28                     29                     30
                     A                      A                      A
 Frequencies --   740.6611               793.8807               799.6020
 Red. masses --     1.7227                 5.2346                 1.3108
 Frc consts  --     0.5568                 1.9438                 0.4938
 IR Inten    --     0.2513                 9.0724                79.8894

                    31                     32                     33
                     A                      A                      A
 Frequencies --   808.4705               853.7274               881.2846
 Red. masses --     2.9552                 4.5969                 4.4994
 Frc consts  --     1.1381                 1.9740                 2.0589
 IR Inten    --     8.0573                13.8912                 0.0857

                    34                     35                     36
                     A                      A                      A
 Frequencies --   895.2095               908.9177               942.6271
 Red. masses --     1.4153                 1.5137                 5.4959
 Frc consts  --     0.6682                 0.7368                 2.8772
 IR Inten    --     2.0166                 1.0137                74.3458

                    37                     38                     39
                     A                      A                      A
 Frequencies --   969.1248               974.4528              1045.2761
 Red. masses --     1.2591                 1.2769                 2.9904
 Frc consts  --     0.6968                 0.7144                 1.9250
 IR Inten    --     0.6312                 0.3352                33.5275

                    40                     41                     42
                     A                      A                      A
 Frequencies --  1085.3309              1094.6696              1098.1951
 Red. masses --     2.0013                 1.3704                 1.9056
 Frc consts  --     1.3889                 0.9675                 1.3541
 IR Inten    --     6.2693                 8.7889                 2.3707

                    43                     44                     45
                     A                      A                      A
 Frequencies --  1143.8773              1178.0485              1182.2255
 Red. masses --     1.2178                 1.8823                 1.9175
 Frc consts  --     0.9388                 1.5391                 1.5790
 IR Inten    --     0.5181                70.5300               530.9211

                    46                     47                     48
                     A                      A                      A
 Frequencies --  1191.6155              1199.4778              1207.4491
 Red. masses --     1.4484                 1.3231                 1.8128
 Frc consts  --     1.2117                 1.1215                 1.5572
 IR Inten    --    82.4308                 4.8113               159.1681

                    49                     50                     51
                     A                      A                      A
 Frequencies --  1251.9801              1264.0830              1287.3132
 Red. masses --     2.3617                 2.5273                 2.6093
 Frc consts  --     2.1810                 2.3794                 2.5477
 IR Inten    --    14.5533               160.5868               123.1023

                    52                     53                     54
                     A                      A                      A
 Frequencies --  1300.3440              1385.2302              1417.0958
 Red. masses --     4.6234                 3.7623                 6.5741
 Frc consts  --     4.6060                 4.2535                 7.7783
 IR Inten    --    11.9493                 2.6047                 1.1603

                    55                     56                     57
                     A                      A                      A
 Frequencies --  1431.7617              1456.0188              1460.5951
 Red. masses --     2.7134                 2.1828                 1.3430
 Frc consts  --     3.2772                 2.7265                 1.6880
 IR Inten    --   449.7694                28.8368                 7.8169

                    58                     59                     60
                     A                      A                      A
 Frequencies --  1465.6199              1491.6915              1515.5258
 Red. masses --     2.3328                 1.2314                 2.7032
 Frc consts  --     2.9524                 1.6144                 3.6581
 IR Inten    --     5.1861                40.7557                 0.4770

                    61                     62                     63
                     A                      A                      A
 Frequencies --  1520.5785              1530.3596              1532.2515
 Red. masses --     1.0437                 1.0486                 1.0464
 Frc consts  --     1.4218                 1.4469                 1.4475
 IR Inten    --     3.6988                16.7473                14.2550

                    64                     65                     66
                     A                      A                      A
 Frequencies --  1560.5986              1567.0025              1633.7963
 Red. masses --     2.2516                 1.6327                 7.2046
 Frc consts  --     3.2310                 2.3620                11.3307
 IR Inten    --    93.1681                 6.6465                 1.1285

                    67                     68                     69
                     A                      A                      A
 Frequencies --  1660.0136              1691.1077              1822.6674
 Red. masses --     5.5650                 7.0797                10.9745
 Frc consts  --     9.0352                11.9292                21.4808
 IR Inten    --    50.0548                 4.3217               364.5188

                    70                     71                     72
                     A                      A                      A
 Frequencies --  3028.3996              3036.5646              3078.3397
 Red. masses --     1.0427                 1.0419                 1.1007
 Frc consts  --     5.6343                 5.6604                 6.1456
 IR Inten    --    29.9404               102.9168                59.8274

                    73                     74                     75
                     A                      A                      A
 Frequencies --  3082.6643              3195.4075              3198.8408
 Red. masses --     1.1040                 1.0963                 1.0881
 Frc consts  --     6.1814                 6.5955                 6.5602
 IR Inten    --    13.3924                 0.7958                12.3427

                    76                     77                     78
                     A                      A                      A
 Frequencies --  3200.4003              3208.5261              3225.8987
 Red. masses --     1.0885                 1.0946                 1.0924
 Frc consts  --     6.5689                 6.6391                 6.6980
 IR Inten    --     9.4789                 3.8277                 6.7589

                    79                     80                     81
                     A                      A                      A
 Frequencies --  3230.7310              3234.5770              3248.9879
 Red. masses --     1.0931                 1.0933                 1.0929
 Frc consts  --     6.7224                 6.7397                 6.7970
 IR Inten    --     8.6537                 8.2941                 3.1145

 - Thermochemistry -
 -------------------
 Temperature   298.150 Kelvin.  Pressure   1.00000 Atm.
 Atom     1 has atomic number  8 and mass  15.99491

 Molecular mass:   233.08521 amu.
 Principal axes and moments of inertia in atomic units:
                           1         2         3
     Eigenvalues --  1731.225926855.051728189.34586
           X            0.99996   0.00899  -0.00160
           Y           -0.00899   0.99996   0.00009
           Z            0.00160  -0.00008   1.00000
 This molecule is an asymmetric top.
 Rotational symmetry number  1.
 Warning -- assumption of classical behavior for rotation
           may cause significant error
 Rotational temperatures (Kelvin)      0.05003     0.01264     0.01058
 Rotational constants (GHZ):           1.04246     0.26327     0.22038
 Zero-point vibrational energy     597411.0 (Joules/Mol)
                                  142.78466 (Kcal/Mol)
 Warning -- explicit consideration of  23 degrees of freedom as
           vibrations may cause significant error
 Vibrational temperatures:     42.71    54.01    99.18   110.43   168.27
          (Kelvin)            186.39   213.91   257.16   318.04   337.16
                              349.91   365.50   419.03   481.62   551.80
                              638.72   684.22   701.17   737.33   759.27
                              785.62   847.58   859.94   898.03   954.09
                             1031.57  1060.61  1065.64  1142.22  1150.45
                             1163.21  1228.32  1267.97  1288.01  1307.73
                             1356.23  1394.35  1402.02  1503.92  1561.55
                             1574.98  1580.06  1645.78  1694.95  1700.96
                             1714.47  1725.78  1737.25  1801.32  1818.73
                             1852.15  1870.90  1993.03  2038.88  2059.98
                             2094.88  2101.47  2108.70  2146.21  2180.50
                             2187.77  2201.84  2204.57  2245.35  2254.56
                             2350.67  2388.39  2433.12  2622.41  4357.19
                             4368.93  4429.04  4435.26  4597.47  4602.41
                             4604.66  4616.35  4641.34  4648.30  4653.83
                             4674.56

 Zero-point correction=                           0.227542 (Hartree/Particle)
 Thermal correction to Energy=                    0.242659
 Thermal correction to Enthalpy=                  0.243603
 Thermal correction to Gibbs Free Energy=         0.183928
 Sum of electronic and zero-point Energies=           -807.443253
 Sum of electronic and thermal Energies=              -807.428136
 Sum of electronic and thermal Enthalpies=            -807.427191
 Sum of electronic and thermal Free Energies=         -807.486867

                     E (Thermal)             CV                S
                      KCal/Mol        Cal/Mol-Kelvin    Cal/Mol-Kelvin
 Total                  152.271             56.835            125.598
 Electronic               0.000              0.000              0.000
 Translational            0.889              2.981             42.241
 Rotational               0.889              2.981             32.941
 Vibrational            150.493             50.873             50.417
 Vibration     1          0.593              1.984              5.850
 Vibration     2          0.594              1.982              5.385
 Vibration     3          0.598              1.969              4.184
 Vibration     4          0.599              1.965              3.972
 Vibration     5          0.608              1.935              3.150
 Vibration     6          0.612              1.924              2.953
 Vibration     7          0.618              1.904              2.689
 Vibration     8          0.629              1.868              2.342
 Vibration     9          0.648              1.809              1.950
 Vibration    10          0.654              1.788              1.845
 Vibration    11          0.659              1.774              1.779
 Vibration    12          0.665              1.756              1.702
 Vibration    13          0.687              1.690              1.467
 Vibration    14          0.716              1.606              1.237
 Vibration    15          0.753              1.505              1.025
 Vibration    16          0.803              1.374              0.814
 Vibration    17          0.832              1.304              0.722
 Vibration    18          0.843              1.278              0.691
 Vibration    19          0.868              1.222              0.628
 Vibration    20          0.883              1.189              0.592
 Vibration    21          0.901              1.148              0.552
 Vibration    22          0.946              1.055              0.469
 Vibration    23          0.956              1.037              0.454

 Optimization completed.
    -- Stationary point found.
 Normal termination of Gaussian 09 at Thu Sep 30 11:28:07 2021.
 Gaussian 09:  AM64L-G09RevA.02 11-Jun-2009

 ----------------------------------------------------------------------
 #p TD(NStates=10, Root=1) b3lyp/6-31G* volume pop=NPA density=current
 Geom=AllCheck Guess=Read
 ----------------------------------------------------------------------

 O=C(N(C)C)Oc1cccc2c1cccc2F_conf_0
 ---------------------------------
 Redundant internal coordinates taken from checkpoint file:
 C13H12FNO2_135f_conf_0.chk
 Charge =  0 Multiplicity = 1

                         Standard orientation:
 ---------------------------------------------------------------------
 Center     Atomic      Atomic             Coordinates (Angstroms)
 Number     Number       Type             X           Y           Z
 ---------------------------------------------------------------------
      1          8           0       -2.480321    1.272142   -1.070873
      2          6           0       -2.497552    0.351638   -0.278124
      3          7           0       -3.595618   -0.384315    0.060692
      4          6           0       -4.851021   -0.109618   -0.621499
      5          6           0       -3.595306   -1.502563    0.991827
      6          8           0       -1.384119   -0.093619    0.411681
      7          6           0       -0.172410    0.575611    0.283652
      8          6           0       -0.065340    1.940789    0.419485
      9          6           0        1.207757    2.552971    0.362900
     10          6           0        2.347559    1.802845    0.185231
     11          6           0        2.249057    0.395213    0.049517
     12          6           0        0.970872   -0.251434    0.090740
     13          6           0        0.892930   -1.662669   -0.056117
     14          6           0        2.035900   -2.409053   -0.235865
     15          6           0        3.309282   -1.792218   -0.274880
     16          6           0        3.385917   -0.431453   -0.134723
     17          9           0        4.595702    0.172454   -0.171107
     18          1           0       -4.714995    0.748150   -1.278159
     19          1           0       -5.639005    0.110421    0.110007
     20          1           0       -5.165472   -0.977181   -1.217287
     21          1           0       -2.651527   -1.546533    1.529818
     22          1           0       -3.752515   -2.453025    0.462594
     23          1           0       -4.410683   -1.377831    1.715491
     24          1           0       -0.956140    2.540958    0.554447
     25          1           0        1.276260    3.632110    0.465531
     26          1           0        3.325397    2.269408    0.145701
     27          1           0       -0.079344   -2.140351   -0.028237
     28          1           0        1.968451   -3.487114   -0.350505
     29          1           0        4.217214   -2.369445   -0.413618
 ---------------------------------------------------------------------

 SCF Done:  E(RB3LYP) =  -807.670794842     A.U. after    1 cycles

 Excitation energies and oscillator strengths:

 Excited State   1:      Singlet-A      4.2923 eV  288.85 nm  f=0.1202  <S**2>=0.000
      61 -> 62         0.68950
 This state for optimization and/or second-order correction.
 Total Energy, E(TD-HF/TD-KS) =  -807.513055050
 Copying the excited state density for this state as the 1-particle RhoCI density.

 Excited State   2:      Singlet-A      4.4409 eV  279.19 nm  f=0.0136  <S**2>=0.000
      59 -> 62         0.31037
      60 -> 62        -0.30605
      61 -> 63         0.55459

 Excited State   3:      Singlet-A      5.1516 eV  240.67 nm  f=0.0144  <S**2>=0.000
      59 -> 62         0.47097
      60 -> 62         0.52304

 Excited State   4:      Singlet-A      5.5320 eV  224.12 nm  f=0.0094  <S**2>=0.000
      58 -> 62         0.62346
      61 -> 64         0.30164

 Excited State   5:      Singlet-A      5.6715 eV  218.61 nm  f=0.1362  <S**2>=0.000
      57 -> 62         0.60551
      59 -> 62         0.20089
      60 -> 62        -0.18192
      61 -> 63        -0.17768
      61 -> 64        -0.11749

 Excited State   6:      Singlet-A      5.8174 eV  213.13 nm  f=0.0166  <S**2>=0.000
      59 -> 63         0.46489
      60 -> 63         0.50281

 Excited State   7:      Singlet-A      6.0265 eV  205.73 nm  f=0.8358  <S**2>=0.000
      57 -> 62         0.31583
      59 -> 62        -0.32893
      60 -> 62         0.28095
      60 -> 63        -0.17475
      61 -> 63         0.35461
      61 -> 64         0.16980

 Excited State   8:      Singlet-A      6.1121 eV  202.85 nm  f=0.0117  <S**2>=0.000
      55 -> 62         0.11135
      58 -> 62        -0.10850
      58 -> 63         0.59591
      59 -> 64        -0.15524
      60 -> 64         0.16806
      61 -> 64         0.17519

 Excited State   9:      Singlet-A      6.1284 eV  202.31 nm  f=0.1744  <S**2>=0.000
      56 -> 62        -0.13910
      58 -> 62        -0.22640
      58 -> 63        -0.18668
      59 -> 62         0.14136
      59 -> 63         0.15818
      60 -> 62        -0.10777
      60 -> 63        -0.12516
      61 -> 63        -0.14630
      61 -> 64         0.49850
      61 -> 65        -0.17669

 Excited State  10:      Singlet-A      6.2115 eV  199.61 nm  f=0.1357  <S**2>=0.000
      57 -> 63         0.21525
      58 -> 64         0.14256
      59 -> 63         0.45333
      60 -> 63        -0.40169
      61 -> 62         0.10629
      61 -> 64        -0.18845

 The electronic state is 1-A.
 Alpha  occ. eigenvalues --  -24.70533 -19.19981 -19.12043 -14.37499 -10.33791
 Alpha  occ. eigenvalues --  -10.27121 -10.25447 -10.22709 -10.22098 -10.20653
 Alpha  occ. eigenvalues --  -10.20499 -10.19848 -10.19476 -10.19468 -10.19227
 Alpha  occ. eigenvalues --  -10.19169 -10.19155  -1.21563  -1.10999  -1.01931
 Alpha  occ. eigenvalues --   -0.94650  -0.87687  -0.82583  -0.77681  -0.75001
 Alpha  occ. eigenvalues --   -0.73491  -0.72777  -0.70306  -0.64091  -0.62762
 Alpha  occ. eigenvalues --   -0.61527  -0.56709  -0.54181  -0.53566  -0.50801
 Alpha  occ. eigenvalues --   -0.50342  -0.49254  -0.48563  -0.47482  -0.45881
 Alpha  occ. eigenvalues --   -0.45836  -0.44596  -0.44251  -0.42796  -0.41182
 Alpha  occ. eigenvalues --   -0.41062  -0.41004  -0.40652  -0.39260  -0.38727
 Alpha  occ. eigenvalues --   -0.38573  -0.37353  -0.35314  -0.34716  -0.32810
 Alpha  occ. eigenvalues --   -0.31578  -0.27704  -0.26804  -0.24892  -0.24788
 Alpha  occ. eigenvalues --   -0.20961
 Alpha virt. eigenvalues --   -0.03818  -0.01380   0.03453   0.05309   0.08169
 Alpha virt. eigenvalues --    0.09754   0.09994   0.10310   0.12495   0.13827
 Alpha virt. eigenvalues --    0.13995   0.14994   0.15712   0.16072   0.17001

 Mulliken atomic charges:
              1
     1  O   -0.504519
     2  C    0.780242
     3  N   -0.434042
     4  C   -0.319418
     5  C   -0.317784
     6  O   -0.546425
     7  C    0.269081
     8  C   -0.130308
     9  C   -0.151969
    10  C   -0.181903
    11  C    0.046607
    12  C    0.104432
    13  C   -0.187348
    14  C   -0.138473
    15  C   -0.192047
    16  C    0.290305
    17  F   -0.282860
    18  H    0.207514
    19  H    0.156212
    20  H    0.156879
    21  H    0.199402
    22  H    0.157891
    23  H    0.158877
    24  H    0.154398
    25  H    0.138391
    26  H    0.145718
    27  H    0.139322
    28  H    0.136443
    29  H    0.145383
 Sum of Mulliken atomic charges =  -0.00000

 Dipole moment (field-independent basis, Debye):
    X=             -2.5941    Y=             -2.2816    Z=              1.5137  Tot=              3.7718
 Quadrupole moment (field-independent basis, Debye-Ang):
   XX=            -84.9710   YY=            -88.9349   ZZ=           -100.4559
   XY=              5.0982   XZ=             -4.0195   YZ=              3.1682

 Summary of Natural Population Analysis:

                                       Natural Population
                Natural  -----------------------------------------------
    Atom  No    Charge         Core      Valence    Rydberg      Total
 -----------------------------------------------------------------------
      O    1   -0.63995      1.99978     6.62092    0.01926     8.63995
      C    2    0.93589      1.99937     3.01959    0.04515     5.06411
      N    3   -0.48354      1.99932     5.47324    0.01098     7.48354
      C    4   -0.46943      1.99947     4.45809    0.01187     6.46943
      C    5   -0.47159      1.99946     4.46058    0.01155     6.47159
      O    6   -0.54465      1.99969     6.53468    0.01027     8.54465
      C    7    0.31784      1.99866     3.66031    0.02319     5.68216
      C    8   -0.25427      1.99902     4.24011    0.01515     6.25427
      C    9   -0.22060      1.99912     4.20596    0.01552     6.22060
      C   10   -0.22030      1.99905     4.20290    0.01834     6.22030
      C   11   -0.11318      1.99895     4.09899    0.01524     6.11318
      C   12   -0.07779      1.99897     4.06363    0.01519     6.07779
      C   13   -0.22468      1.99906     4.20902    0.01660     6.22468
      C   14   -0.22087      1.99912     4.20628    0.01546     6.22087
      C   15   -0.29927      1.99901     4.28432    0.01595     6.29927
      C   16    0.43178      1.99838     3.54192    0.02792     5.56822
      F   17   -0.32488      1.99994     7.31928    0.00566     9.32488
      H   18    0.26416      0.00000     0.73434    0.00150     0.73584
      H   19    0.22146      0.00000     0.77721    0.00132     0.77854
      H   20    0.22031      0.00000     0.77828    0.00142     0.77969
      H   21    0.25610      0.00000     0.74282    0.00107     0.74390
      H   22    0.22054      0.00000     0.77781    0.00165     0.77946
      H   23    0.22495      0.00000     0.77361    0.00144     0.77505
      H   24    0.25634      0.00000     0.74252    0.00114     0.74366
      H   25    0.24017      0.00000     0.75904    0.00078     0.75983
      H   26    0.24506      0.00000     0.75320    0.00174     0.75494
      H   27    0.24191      0.00000     0.75680    0.00129     0.75809
      H   28    0.23881      0.00000     0.76041    0.00078     0.76119
      H   29    0.24968      0.00000     0.74913    0.00119     0.75032
 =======================================================================
   * Total *   -0.00000     33.98637    87.70499    0.30864   122.00000

 Normal termination of Gaussian 09 at Thu Sep 30 16:23:41 2021.
