 Gaussian 09, Revision A.02,

 -----------------------------------
 #p opt b3lyp/6-31G* scf=(xqc,tight)
 -----------------------------------

 -----------------------------------
 C[Si](Oc1ccc2c(c1)CCCC2)(C)C_conf_0
 -----------------------------------
 Symbolic Z-matrix:
 Charge =  0 Multiplicity = 1

 SCF Done:  E(RB3LYP) =  -872.237119139     A.U. after   15 cycles
 SCF Done:  E(RB3LYP) =  -872.240012617     A.U. after   11 cycles
 SCF Done:  E(RB3LYP) =  -872.240372729     A.U. after   15 cycles
 SCF Done:  E(RB3LYP) =  -872.240467007     A.U. after   11 cycles
 SCF Done:  E(RB3LYP) =  -872.240501476     A.U. after   10 cycles
 SCF Done:  E(RB3LYP) =  -872.240512682     A.U. after    9 cycles
 SCF Done:  E(RB3LYP) =  -872.240523459     A.U. after    9 cycles
 SCF Done:  E(RB3LYP) =  -872.240533229     A.U. after    9 cycles
 SCF Done:  E(RB3LYP) =  -872.240534575     A.U. after    8 cycles
 SCF Done:  E(RB3LYP) =  -872.240534818     A.U. after    7 cycles
 SCF Done:  E(RB3LYP) =  -872.240534947     A.U. after    7 cycles
 SCF Done:  E(RB3LYP) =  -872.240535078     A.U. after    7 cycles
 SCF Done:  E(RB3LYP) =  -872.240535162     A.U. after    7 cycles
 SCF Done:  E(RB3LYP) =  -872.240535224     A.U. after    7 cycles
 SCF Done:  E(RB3LYP) =  -872.240535274     A.U. after    6 cycles
 Optimization completed.
    -- Stationary point found.
 Normal termination of Gaussian 09 at Thu Sep 30 13:38:05 2021.

 ----------------------------------------------------------------------
 #p freq b3lyp/6-31G* volume NMR pop=NPA density=current Geom=AllCheck
 Guess=Read
 ----------------------------------------------------------------------

 C[Si](Oc1ccc2c(c1)CCCC2)(C)C_conf_0
 -----------------------------------
 Redundant internal coordinates taken from checkpoint file:
 C13H20OSi_0b1c_conf_0.chk
 Charge =  0 Multiplicity = 1

 SCF Done:  E(RB3LYP) =  -872.240535274     A.U. after    1 cycles

  1  C    Isotropic =   189.5341   Anisotropy =     8.5469

  2  Si   Isotropic =   395.5945   Anisotropy =    31.4251

  3  O    Isotropic =   217.0976   Anisotropy =    78.2168

  4  C    Isotropic =    42.6147   Anisotropy =   118.0806

  5  C    Isotropic =    77.6042   Anisotropy =   129.5488

  6  C    Isotropic =    65.5663   Anisotropy =   146.0478

  7  C    Isotropic =    67.7645   Anisotropy =   165.1212

  8  C    Isotropic =    58.8841   Anisotropy =   171.3779

  9  C    Isotropic =    78.8472   Anisotropy =   111.5246

 10  C    Isotropic =   158.1562   Anisotropy =    19.5528

 11  C    Isotropic =   164.5045   Anisotropy =     6.1644

 12  C    Isotropic =   164.3599   Anisotropy =     6.3250

 13  C    Isotropic =   159.1869   Anisotropy =    16.7914

 14  C    Isotropic =   188.3474   Anisotropy =    11.7654

 15  C    Isotropic =   188.9684   Anisotropy =     8.4194

 16  H    Isotropic =    31.9836   Anisotropy =     8.8483

 17  H    Isotropic =    32.3095   Anisotropy =     9.6120

 18  H    Isotropic =    31.5733   Anisotropy =     9.0254

 19  H    Isotropic =    25.7090   Anisotropy =     6.3870

 20  H    Isotropic =    25.3830   Anisotropy =     6.5938

 21  H    Isotropic =    25.8908   Anisotropy =    11.3481

 22  H    Isotropic =    29.6452   Anisotropy =     7.5746

 23  H    Isotropic =    29.4300   Anisotropy =     6.6306

 24  H    Isotropic =    30.4884   Anisotropy =     7.4426

 25  H    Isotropic =    30.4849   Anisotropy =     9.1478

 26  H    Isotropic =    30.4558   Anisotropy =     9.5257

 27  H    Isotropic =    30.4876   Anisotropy =     7.5188

 28  H    Isotropic =    29.4728   Anisotropy =     7.6322

 29  H    Isotropic =    29.6364   Anisotropy =     7.9385

 30  H    Isotropic =    31.8602   Anisotropy =     9.1289

 31  H    Isotropic =    31.8455   Anisotropy =     9.1000

 32  H    Isotropic =    32.3489   Anisotropy =     9.5865

 33  H    Isotropic =    31.5859   Anisotropy =     8.9828

 34  H    Isotropic =    32.2813   Anisotropy =     9.5925

 35  H    Isotropic =    31.9301   Anisotropy =     8.7812

  Exact polarizability: 206.765   1.309 156.254  -0.712   1.121 107.062
 Approx polarizability: 264.997   0.568 244.677  -1.734   2.754 156.387

 ******    1 imaginary frequencies (negative Signs) ******

                     1                      2                      3
                     A                      A                      A
 Frequencies --    -8.3418                36.4310                69.5038
 Red. masses --     3.4833                 2.8948                 3.7183
 Frc consts  --     0.0001                 0.0023                 0.0106
 IR Inten    --     0.5430                 0.1622                 0.2145

                     4                      5                      6
                     A                      A                      A
 Frequencies --    86.9607               114.3816               125.8304
 Red. masses --     2.5841                 1.0884                 2.7344
 Frc consts  --     0.0115                 0.0084                 0.0255
 IR Inten    --     0.0634                 0.0039                 0.0474

                     7                      8                      9
                     A                      A                      A
 Frequencies --   126.9333               148.2689               166.3343
 Red. masses --     1.0422                 1.0217                 2.6452
 Frc consts  --     0.0099                 0.0132                 0.0431
 IR Inten    --     0.0823                 0.0002                 0.1336

                    10                     11                     12
                     A                      A                      A
 Frequencies --   194.1595               196.6355               213.0371
 Red. masses --     2.6876                 2.6582                 2.8861
 Frc consts  --     0.0597                 0.0606                 0.0772
 IR Inten    --     0.6849                 0.7594                 1.5469

                    13                     14                     15
                     A                      A                      A
 Frequencies --   237.2074               272.5680               300.6347
 Red. masses --     2.9385                 3.3466                 3.0091
 Frc consts  --     0.0974                 0.1465                 0.1602
 IR Inten    --     2.0070                 4.9685                 4.1386

                    16                     17                     18
                     A                      A                      A
 Frequencies --   307.9292               350.5613               389.0345
 Red. masses --     2.1943                 3.2928                 4.3405
 Frc consts  --     0.1226                 0.2384                 0.3871
 IR Inten    --     4.5225                 6.3398                 3.3946

                    19                     20                     21
                     A                      A                      A
 Frequencies --   437.4276               453.2999               462.7819
 Red. masses --     3.1114                 2.9801                 4.0061
 Frc consts  --     0.3508                 0.3608                 0.5055
 IR Inten    --     2.6998                 1.9978                 0.5990

                    22                     23                     24
                     A                      A                      A
 Frequencies --   522.5841               571.9840               599.4161
 Red. masses --     3.4187                 3.2046                 3.6843
 Frc consts  --     0.5501                 0.6177                 0.7800
 IR Inten    --     3.0830                 0.7502                 0.6657

                    25                     26                     27
                     A                      A                      A
 Frequencies --   622.1961               676.7371               689.1641
 Red. masses --     3.4467                 3.2037                 2.2803
 Frc consts  --     0.7862                 0.8645                 0.6381
 IR Inten    --     3.0621                11.3600                 8.7330

                    28                     29                     30
                     A                      A                      A
 Frequencies --   697.1979               702.1581               712.5847
 Red. masses --     2.2991                 1.2364                 2.6713
 Frc consts  --     0.6584                 0.3592                 0.7992
 IR Inten    --     7.0569                 0.1641                 0.4123

                    31                     32                     33
                     A                      A                      A
 Frequencies --   748.5672               782.9822               790.8159
 Red. masses --     4.4718                 1.5040                 1.4890
 Frc consts  --     1.4764                 0.5432                 0.5486
 IR Inten    --     1.4039                21.9369                23.9302

                    34                     35                     36
                     A                      A                      A
 Frequencies --   824.9887               828.8325               848.3918
 Red. masses --     1.5696                 2.4422                 1.5386
 Frc consts  --     0.6294                 0.9885                 0.6525
 IR Inten    --     9.9028                 2.9359                18.3642

                    37                     38                     39
                     A                      A                      A
 Frequencies --   867.8431               876.8496               889.1075
 Red. masses --     1.4849                 2.4547                 1.6375
 Frc consts  --     0.6589                 1.1120                 0.7627
 IR Inten    --     8.0349                 0.3055               107.0660

                    40                     41                     42
                     A                      A                      A
 Frequencies --   889.7928               909.9183               930.4713
 Red. masses --     1.6470                 1.9802                 1.4164
 Frc consts  --     0.7683                 0.9660                 0.7225
 IR Inten    --   102.1813               281.8453                13.1364

                    43                     44                     45
                     A                      A                      A
 Frequencies --   955.1022               959.9840               977.2917
 Red. masses --     1.3645                 2.4987                 3.0812
 Frc consts  --     0.7334                 1.3567                 1.7339
 IR Inten    --     0.2925                 1.4510               189.4679

                    46                     47                     48
                     A                      A                      A
 Frequencies --  1013.9234              1083.6462              1113.3946
 Red. masses --     2.6431                 1.8046                 1.8428
 Frc consts  --     1.6009                 1.2485                 1.3459
 IR Inten    --    48.7532                 4.4374                 1.3300

                    49                     50                     51
                     A                      A                      A
 Frequencies --  1140.4633              1166.9632              1190.4453
 Red. masses --     1.7367                 1.1621                 1.7803
 Frc consts  --     1.3309                 0.9324                 1.4865
 IR Inten    --    22.1081                 2.0724                25.0123

                    52                     53                     54
                     A                      A                      A
 Frequencies --  1196.4945              1226.0644              1272.4039
 Red. masses --     1.3684                 2.1755                 1.5333
 Frc consts  --     1.1542                 1.9268                 1.4626
 IR Inten    --     1.6863                21.0875                35.4855

                    55                     56                     57
                     A                      A                      A
 Frequencies --  1288.1517              1303.3386              1322.5772
 Red. masses --     1.2753                 3.4312                 1.2648
 Frc consts  --     1.2468                 3.4341                 1.3035
 IR Inten    --    21.5130               254.9001                 8.6729

                    58                     59                     60
                     A                      A                      A
 Frequencies --  1333.2487              1333.9723              1342.4412
 Red. masses --     1.2630                 1.2506                 1.2783
 Frc consts  --     1.3228                 1.3112                 1.3573
 IR Inten    --    33.7973                40.1433                18.3591

                    61                     62                     63
                     A                      A                      A
 Frequencies --  1352.3342              1374.2435              1388.3832
 Red. masses --     3.6090                 1.5716                 1.4547
 Frc consts  --     3.8887                 1.7487                 1.6522
 IR Inten    --   126.4023                 9.0635                 2.9041

                    64                     65                     66
                     A                      A                      A
 Frequencies --  1392.3399              1405.9891              1463.9209
 Red. masses --     1.4746                 1.5514                 3.7637
 Frc consts  --     1.6842                 1.8069                 4.7522
 IR Inten    --     2.2148                12.3385                13.3336

                    67                     68                     69
                     A                      A                      A
 Frequencies --  1484.1989              1490.2732              1491.3292
 Red. masses --     1.0539                 1.0550                 1.0532
 Frc consts  --     1.3678                 1.3804                 1.3802
 IR Inten    --     0.1917                 0.2473                 0.0126

                    70                     71                     72
                     A                      A                      A
 Frequencies --  1497.4272              1497.6929              1504.7823
 Red. masses --     1.0517                 1.0500                 1.1205
 Frc consts  --     1.3894                 1.3876                 1.4949
 IR Inten    --     4.7644                 3.3469                 2.0214

                    73                     74                     75
                     A                      A                      A
 Frequencies --  1509.2635              1512.4457              1521.3088
 Red. masses --     1.0486                 1.0861                 1.0876
 Frc consts  --     1.4073                 1.4638                 1.4831
 IR Inten    --     3.8836                 3.6037                 3.8674

                    76                     77                     78
                     A                      A                      A
 Frequencies --  1532.6328              1552.6168              1628.9803
 Red. masses --     1.1039                 2.6368                 6.9931
 Frc consts  --     1.5277                 3.7451                10.9334
 IR Inten    --     1.7252               186.7615                15.5734

                    79                     80                     81
                     A                      A                      A
 Frequencies --  1665.5025              3005.8814              3010.1023
 Red. masses --     6.0976                 1.0702                 1.0694
 Frc consts  --     9.9654                 5.6974                 5.7090
 IR Inten    --   108.6712                34.5875                18.4746

                    82                     83                     84
                     A                      A                      A
 Frequencies --  3028.9499              3033.9688              3044.4894
 Red. masses --     1.0678                 1.0618                 1.0367
 Frc consts  --     5.7722                 5.7583                 5.6613
 IR Inten    --    20.5300                26.2203                 4.1931

                    85                     86                     87
                     A                      A                      A
 Frequencies --  3045.6014              3048.0676              3059.6690
 Red. masses --     1.0364                 1.0358                 1.0906
 Frc consts  --     5.6638                 5.6698                 6.0155
 IR Inten    --     3.4350                 5.2380                57.1635

                    88                     89                     90
                     A                      A                      A
 Frequencies --  3060.8813              3078.2976              3081.7321
 Red. masses --     1.0922                 1.0959                 1.1053
 Frc consts  --     6.0288                 6.1184                 6.1845
 IR Inten    --    24.5557                75.8807                58.2610

                    91                     92                     93
                     A                      A                      A
 Frequencies --  3113.6928              3114.8773              3119.7034
 Red. masses --     1.0994                 1.0997                 1.0999
 Frc consts  --     6.2800                 6.2866                 6.3071
 IR Inten    --     4.2991                13.0463                30.4932

                    94                     95                     96
                     A                      A                      A
 Frequencies --  3126.4454              3127.1109              3127.7174
 Red. masses --     1.1005                 1.1006                 1.1001
 Frc consts  --     6.3381                 6.3411                 6.3406
 IR Inten    --     3.1829                18.0105                23.2879

                    97                     98                     99
                     A                      A                      A
 Frequencies --  3170.4651              3190.5041              3213.1383
 Red. masses --     1.0886                 1.0891                 1.0930
 Frc consts  --     6.4474                 6.5319                 6.6486
 IR Inten    --    23.4667                21.6265                11.2915

 - Thermochemistry -
 -------------------
 Temperature   298.150 Kelvin.  Pressure   1.00000 Atm.
 Atom     1 has atomic number  6 and mass  12.00000

 Molecular mass:   220.12834 amu.
 Principal axes and moments of inertia in atomic units:
                           1         2         3
     Eigenvalues --  1496.357546953.612867789.03377
           X            1.00000  -0.00037   0.00005
           Y            0.00037   1.00000   0.00133
           Z           -0.00005  -0.00133   1.00000
 This molecule is an asymmetric top.
 Rotational symmetry number  1.
 Warning -- assumption of classical behavior for rotation
           may cause significant error
 Rotational temperatures (Kelvin)      0.05788     0.01246     0.01112
 Rotational constants (GHZ):           1.20609     0.25954     0.23170
    1 imaginary frequencies ignored.
 Zero-point vibrational energy     789292.3 (Joules/Mol)
                                  188.64539 (Kcal/Mol)
 Warning -- explicit consideration of  23 degrees of freedom as
           vibrations may cause significant error
 Vibrational temperatures:     52.42   100.00   125.12   164.57   181.04
          (Kelvin)            182.63   213.33   239.32   279.35   282.91
                              306.51   341.29   392.16   432.55   443.04
                              504.38   559.73   629.36   652.20   665.84
                              751.88   822.96   862.42   895.20   973.67
                              991.55  1003.11  1010.25  1025.25  1077.02
                             1126.54  1137.81  1186.97  1192.50  1220.65
                             1248.63  1261.59  1279.23  1280.21  1309.17
                             1338.74  1374.18  1381.20  1406.10  1458.81
                             1559.12  1601.92  1640.87  1679.00  1712.78
                             1721.49  1764.03  1830.70  1853.36  1875.21
                             1902.89  1918.25  1919.29  1931.47  1945.70
                             1977.23  1997.57  2003.26  2022.90  2106.25
                             2135.43  2144.17  2145.69  2154.46  2154.84
                             2165.04  2171.49  2176.07  2188.82  2205.11
                             2233.87  2343.74  2396.28  4324.79  4330.86
                             4357.98  4365.20  4380.34  4381.94  4385.48
                             4402.18  4403.92  4428.98  4433.92  4479.90
                             4481.61  4488.55  4498.25  4499.21  4500.08
                             4561.59  4590.42  4622.98

 Zero-point correction=                           0.300626 (Hartree/Particle)
 Thermal correction to Energy=                    0.316697
 Thermal correction to Enthalpy=                  0.317641
 Thermal correction to Gibbs Free Energy=         0.257559
 Sum of electronic and zero-point Energies=           -871.939910
 Sum of electronic and thermal Energies=              -871.923839
 Sum of electronic and thermal Enthalpies=            -871.922895
 Sum of electronic and thermal Free Energies=         -871.982977

                     E (Thermal)             CV                S
                      KCal/Mol        Cal/Mol-Kelvin    Cal/Mol-Kelvin
 Total                  198.730             62.167            126.453
 Electronic               0.000              0.000              0.000
 Translational            0.889              2.981             42.070
 Rotational               0.889              2.981             32.761
 Vibrational            196.953             56.205             51.623
 Vibration     1          0.594              1.982              5.444
 Vibration     2          0.598              1.969              4.167
 Vibration     3          0.601              1.958              3.727
 Vibration     4          0.607              1.938              3.193
 Vibration     5          0.611              1.927              3.009
 Vibration     6          0.611              1.926              2.992
 Vibration     7          0.618              1.905              2.694
 Vibration     8          0.624              1.884              2.477
 Vibration     9          0.635              1.848              2.188
 Vibration    10          0.636              1.845              2.164
 Vibration    11          0.644              1.821              2.017
 Vibration    12          0.656              1.784              1.824
 Vibration    13          0.676              1.724              1.580
 Vibration    14          0.693              1.672              1.413
 Vibration    15          0.698              1.659              1.373
 Vibration    16          0.727              1.574              1.164
 Vibration    17          0.757              1.494              1.004
 Vibration    18          0.798              1.389              0.835
 Vibration    19          0.812              1.354              0.786
 Vibration    20          0.820              1.333              0.758
 Vibration    21          0.878              1.200              0.604
 Vibration    22          0.928              1.092              0.500
 Vibration    23          0.957              1.033              0.451

 Normal termination of Gaussian 09 at Thu Sep 30 14:47:20 2021.
 Gaussian 09:  AM64L-G09RevA.02 11-Jun-2009

 ----------------------------------------------------------------------
 #p TD(NStates=10, Root=1) b3lyp/6-31G* volume pop=NPA density=current
 Geom=AllCheck Guess=Read
 ----------------------------------------------------------------------

 C[Si](Oc1ccc2c(c1)CCCC2)(C)C_conf_0
 -----------------------------------
 Redundant internal coordinates taken from checkpoint file:
 C13H20OSi_0b1c_conf_0.chk
 Charge =  0 Multiplicity = 1

                         Standard orientation:
 ---------------------------------------------------------------------
 Center     Atomic      Atomic             Coordinates (Angstroms)
 Number     Number       Type             X           Y           Z
 ---------------------------------------------------------------------
      1          6           0        2.931289   -1.289027    1.559725
      2         14           0        3.059963   -0.237200   -0.001525
      3          8           0        1.841542    0.932628   -0.031955
      4          6           0        0.477309    0.862923   -0.016243
      5          6           0       -0.223279    2.075877    0.019832
      6          6           0       -1.611773    2.065906    0.037961
      7          6           0       -2.347052    0.871137    0.020959
      8          6           0       -1.643552   -0.343621   -0.019900
      9          6           0       -0.240904   -0.334640   -0.036621
     10          6           0       -2.371573   -1.677581   -0.081893
     11          6           0       -3.842177   -1.587032    0.344167
     12          6           0       -4.524862   -0.402240   -0.347905
     13          6           0       -3.865151    0.914899    0.080298
     14          6           0        4.640839    0.778440    0.018834
     15          6           0        2.989929   -1.310826   -1.551954
     16          1           0        2.980523   -0.661179    2.457058
     17          1           0        3.761817   -2.004572    1.609582
     18          1           0        1.998407   -1.860984    1.607841
     19          1           0        0.337537    3.005287    0.032304
     20          1           0       -2.146846    3.013459    0.066911
     21          1           0        0.287600   -1.283783   -0.068100
     22          1           0       -1.840851   -2.416655    0.532339
     23          1           0       -2.324719   -2.057944   -1.114183
     24          1           0       -3.905891   -1.455547    1.433754
     25          1           0       -4.355952   -2.527063    0.108481
     26          1           0       -5.595994   -0.377124   -0.113203
     27          1           0       -4.441380   -0.522969   -1.437445
     28          1           0       -4.178413    1.147123    1.110300
     29          1           0       -4.235402    1.743995   -0.536801
     30          1           0        4.682376    1.425412    0.902342
     31          1           0        4.708970    1.419914   -0.867044
     32          1           0        5.527172    0.132378    0.034014
     33          1           0        2.067938   -1.898493   -1.619257
     34          1           0        3.832482   -2.013779   -1.570200
     35          1           0        3.054556   -0.692982   -2.455266
 ---------------------------------------------------------------------

 SCF Done:  E(RB3LYP) =  -872.240535274     A.U. after    2 cycles

 Excitation energies and oscillator strengths:

 Excited State   1:      Singlet-A      4.9786 eV  249.04 nm  f=0.0353  <S**2>=0.000
      59 -> 62        -0.31064
      60 -> 61         0.63301
 This state for optimization and/or second-order correction.
 Total Energy, E(TD-HF/TD-KS) =  -872.057576297
 Copying the excited state density for this state as the 1-particle RhoCI density.

 Excited State   2:      Singlet-A      5.7329 eV  216.27 nm  f=0.1207  <S**2>=0.000
      59 -> 61         0.35808
      60 -> 62         0.60335

 Excited State   3:      Singlet-A      6.5633 eV  188.90 nm  f=0.6562  <S**2>=0.000
      59 -> 61         0.58726
      60 -> 62        -0.34727

 Excited State   4:      Singlet-A      6.6704 eV  185.87 nm  f=0.3713  <S**2>=0.000
      57 -> 61        -0.15649
      59 -> 62         0.59407
      60 -> 61         0.28515

 Excited State   5:      Singlet-A      6.7436 eV  183.85 nm  f=0.0056  <S**2>=0.000
      60 -> 63         0.64008
      60 -> 64         0.25930

 Excited State   6:      Singlet-A      6.9795 eV  177.64 nm  f=0.0021  <S**2>=0.000
      60 -> 63        -0.24905
      60 -> 64         0.64214

 Excited State   7:      Singlet-A      7.0091 eV  176.89 nm  f=0.0023  <S**2>=0.000
      56 -> 61        -0.24910
      58 -> 61         0.64227

 Excited State   8:      Singlet-A      7.3500 eV  168.69 nm  f=0.0005  <S**2>=0.000
      53 -> 62         0.11652
      56 -> 62        -0.23831
      58 -> 62         0.63539

 Excited State   9:      Singlet-A      7.3998 eV  167.55 nm  f=0.0569  <S**2>=0.000
      55 -> 61         0.10533
      57 -> 61         0.61994
      59 -> 62         0.12144
      60 -> 65         0.25785

 Excited State  10:      Singlet-A      7.4455 eV  166.52 nm  f=0.0109  <S**2>=0.000
      57 -> 61        -0.16875
      60 -> 63        -0.10766
      60 -> 65         0.51560
      60 -> 66        -0.39521

 The electronic state is 1-A.
 Alpha  occ. eigenvalues --  -66.14645 -19.14825 -10.23820 -10.18588 -10.18226
 Alpha  occ. eigenvalues --  -10.17968 -10.17859 -10.17801 -10.17773 -10.17703
 Alpha  occ. eigenvalues --  -10.17422 -10.17154 -10.16297 -10.16289 -10.16064
 Alpha  occ. eigenvalues --   -5.28739  -3.64850  -3.64530  -3.64518  -1.01932
 Alpha  occ. eigenvalues --   -0.85005  -0.79866  -0.75792  -0.72797  -0.71086
 Alpha  occ. eigenvalues --   -0.70293  -0.67946  -0.67757  -0.62776  -0.59874
 Alpha  occ. eigenvalues --   -0.59579  -0.54839  -0.51787  -0.48594  -0.46496
 Alpha  occ. eigenvalues --   -0.44154  -0.43267  -0.42795  -0.42277  -0.41505
 Alpha  occ. eigenvalues --   -0.41203  -0.40579  -0.40186  -0.39834  -0.38832
 Alpha  occ. eigenvalues --   -0.38580  -0.38114  -0.37910  -0.37299  -0.36862
 Alpha  occ. eigenvalues --   -0.35868  -0.32758  -0.32325  -0.31609  -0.30909
 Alpha  occ. eigenvalues --   -0.30506  -0.28945  -0.28566  -0.23264  -0.20477
 Alpha virt. eigenvalues --    0.00597   0.02170   0.07074   0.08132   0.09708
 Alpha virt. eigenvalues --    0.09975   0.10633   0.11944   0.12281   0.13289
 Alpha virt. eigenvalues --    0.13991   0.14050   0.14840   0.14963   0.16439

 Mulliken atomic charges:
              1
     1  C   -0.682318
     2  Si   0.889427
     3  O   -0.581421
     4  C    0.385637
     5  C   -0.177496
     6  C   -0.228439
     7  C    0.145687
     8  C    0.107657
     9  C   -0.286951
    10  C   -0.334149
    11  C   -0.263867
    12  C   -0.265220
    13  C   -0.346358
    14  C   -0.663296
    15  C   -0.683353
    16  H    0.172349
    17  H    0.162558
    18  H    0.170691
    19  H    0.126369
    20  H    0.109529
    21  H    0.119193
    22  H    0.132607
    23  H    0.138211
    24  H    0.133801
    25  H    0.128421
    26  H    0.130559
    27  H    0.137134
    28  H    0.158182
    29  H    0.147867
    30  H    0.173057
    31  H    0.173216
    32  H    0.163632
    33  H    0.171497
    34  H    0.162970
    35  H    0.172614
 Sum of Mulliken atomic charges =  -0.00000

 Dipole moment (field-independent basis, Debye):
    X=              1.0935    Y=             -1.2550    Z=              0.0614  Tot=              1.6657
 Quadrupole moment (field-independent basis, Debye-Ang):
   XX=            -87.2653   YY=            -97.6733   ZZ=            -99.8581
   XY=             -2.6140   XZ=             -0.2405   YZ=              0.2281

 Summary of Natural Population Analysis:

                                       Natural Population
                Natural  -----------------------------------------------
    Atom  No    Charge         Core      Valence    Rydberg      Total
 -----------------------------------------------------------------------
      C    1   -1.22272      1.99948     5.21371    0.00953     7.22272
     Si    2    2.00946      9.99784     1.94611    0.04660    11.99054
      O    3   -0.79358      1.99976     6.78166    0.01216     8.79358
      C    4    0.36248      1.99877     3.61587    0.02288     5.63752
      C    5   -0.28256      1.99905     4.26465    0.01886     6.28256
      C    6   -0.29496      1.99908     4.27703    0.01886     6.29496
      C    7    0.04245      1.99899     3.94313    0.01543     5.95755
      C    8   -0.04925      1.99901     4.03317    0.01707     6.04925
      C    9   -0.34980      1.99900     4.33185    0.01895     6.34980
      C   10   -0.46885      1.99929     4.45795    0.01161     6.46885
      C   11   -0.45440      1.99934     4.44282    0.01224     6.45440
      C   12   -0.45536      1.99933     4.44373    0.01230     6.45536
      C   13   -0.47811      1.99927     4.46701    0.01183     6.47811
      C   14   -1.21981      1.99949     5.21140    0.00893     7.21981
      C   15   -1.22246      1.99948     5.21341    0.00957     7.22246
      H   16    0.25800      0.00000     0.74120    0.00080     0.74200
      H   17    0.25329      0.00000     0.74593    0.00077     0.74671
      H   18    0.25588      0.00000     0.74248    0.00164     0.74412
      H   19    0.23600      0.00000     0.76278    0.00122     0.76400
      H   20    0.22505      0.00000     0.77390    0.00105     0.77495
      H   21    0.21847      0.00000     0.78029    0.00125     0.78153
      H   22    0.23551      0.00000     0.76144    0.00305     0.76449
      H   23    0.23056      0.00000     0.76534    0.00410     0.76944
      H   24    0.22719      0.00000     0.77085    0.00196     0.77281
      H   25    0.23691      0.00000     0.76139    0.00170     0.76309
      H   26    0.23784      0.00000     0.76079    0.00137     0.76216
      H   27    0.22876      0.00000     0.76925    0.00198     0.77124
      H   28    0.25019      0.00000     0.74762    0.00219     0.74981
      H   29    0.24786      0.00000     0.74976    0.00238     0.75214
      H   30    0.25806      0.00000     0.74117    0.00077     0.74194
      H   31    0.25816      0.00000     0.74106    0.00078     0.74184
      H   32    0.25246      0.00000     0.74696    0.00057     0.74754
      H   33    0.25569      0.00000     0.74307    0.00124     0.74431
      H   34    0.25346      0.00000     0.74578    0.00075     0.74654
      H   35    0.25816      0.00000     0.74104    0.00080     0.74184
 =======================================================================
   * Total *   -0.00000     37.98718    81.73561    0.27722   120.00000

 Normal termination of Gaussian 09 at Thu Sep 30 20:07:28 2021.
