 Gaussian 09, Revision A.02,

 -----------------------------------
 #p opt b3lyp/6-31G* scf=(xqc,tight)
 -----------------------------------

 ------------------------------
 c1ccc(cc1)n1cnc2c1cccc2_conf_0
 ------------------------------
 Symbolic Z-matrix:
 Charge =  0 Multiplicity = 1

 SCF Done:  E(RB3LYP) =  -610.913795531     A.U. after   15 cycles
 SCF Done:  E(RB3LYP) =  -610.917070114     A.U. after   15 cycles
 SCF Done:  E(RB3LYP) =  -610.918051369     A.U. after   14 cycles
 SCF Done:  E(RB3LYP) =  -610.918316685     A.U. after   11 cycles
 SCF Done:  E(RB3LYP) =  -610.918402124     A.U. after   11 cycles
 SCF Done:  E(RB3LYP) =  -610.918416659     A.U. after   10 cycles
 SCF Done:  E(RB3LYP) =  -610.918419730     A.U. after    8 cycles
 SCF Done:  E(RB3LYP) =  -610.918420906     A.U. after    8 cycles
 SCF Done:  E(RB3LYP) =  -610.918421126     A.U. after    8 cycles
 Optimization completed.
    -- Stationary point found.
 Normal termination of Gaussian 09 at Sun Oct  3 21:40:34 2021.

 ----------------------------------------------------------------------
 #p freq b3lyp/6-31G* volume NMR pop=NPA density=current Geom=AllCheck
 Guess=Read
 ----------------------------------------------------------------------

 c1ccc(cc1)n1cnc2c1cccc2_conf_0
 ------------------------------
 Redundant internal coordinates taken from checkpoint file:
 C13H10N2_c1e2_conf_0.chk
 Charge =  0 Multiplicity = 1

 SCF Done:  E(RB3LYP) =  -610.918421126     A.U. after    1 cycles

  1  C    Isotropic =    69.7462   Anisotropy =   166.6976

  2  C    Isotropic =    66.6969   Anisotropy =   167.1694

  3  C    Isotropic =    72.5118   Anisotropy =   153.5104

  4  C    Isotropic =    58.3623   Anisotropy =   131.0442

  5  C    Isotropic =    72.1088   Anisotropy =   144.6358

  6  C    Isotropic =    66.2740   Anisotropy =   167.5932

  7  N    Isotropic =    86.9363   Anisotropy =   100.3276

  8  C    Isotropic =    56.0046   Anisotropy =    77.1889

  9  N    Isotropic =     4.3869   Anisotropy =   358.4497

 10  C    Isotropic =    51.5182   Anisotropy =   133.0680

 11  C    Isotropic =    63.2156   Anisotropy =   132.6787

 12  C    Isotropic =    86.5976   Anisotropy =   143.1953

 13  C    Isotropic =    72.6153   Anisotropy =   158.9264

 14  C    Isotropic =    73.4786   Anisotropy =   157.9225

 15  C    Isotropic =    73.8289   Anisotropy =   150.2244

 16  H    Isotropic =    24.9104   Anisotropy =     3.9600

 17  H    Isotropic =    24.7522   Anisotropy =     4.8802

 18  H    Isotropic =    24.7301   Anisotropy =     9.4638

 19  H    Isotropic =    24.9994   Anisotropy =     8.2008

 20  H    Isotropic =    24.7514   Anisotropy =     4.7266

 21  H    Isotropic =    24.6529   Anisotropy =     6.1138

 22  H    Isotropic =    24.8937   Anisotropy =     9.1266

 23  H    Isotropic =    25.0110   Anisotropy =     5.4838

 24  H    Isotropic =    24.9624   Anisotropy =     4.5625

 25  H    Isotropic =    24.5492   Anisotropy =     4.9798

  Exact polarizability: 215.549  -3.041 143.194  -4.264   6.589  67.284
 Approx polarizability: 319.251  -0.037 261.615 -10.270  13.574 111.925

                     1                      2                      3
                     A                      A                      A
 Frequencies --    51.1776                69.7429                90.7167
 Red. masses --     4.1389                 4.6314                 4.7167
 Frc consts  --     0.0064                 0.0133                 0.0229
 IR Inten    --     0.8720                 0.0924                 0.0211

                     4                      5                      6
                     A                      A                      A
 Frequencies --   219.5349               232.5865               256.2668
 Red. masses --     4.7240                 4.3417                 5.0472
 Frc consts  --     0.1341                 0.1384                 0.1953
 IR Inten    --     1.1077                 1.5374                 0.6818

                     7                      8                      9
                     A                      A                      A
 Frequencies --   326.2881               384.1580               422.0419
 Red. masses --     6.1295                 5.5350                 3.0543
 Frc consts  --     0.3845                 0.4813                 0.3205
 IR Inten    --     1.2204                 0.8472                 0.6558

                    10                     11                     12
                     A                      A                      A
 Frequencies --   437.3312               478.3718               532.5616
 Red. masses --     3.0275                 4.2961                 4.6128
 Frc consts  --     0.3412                 0.5792                 0.7708
 IR Inten    --     4.5672                 2.7457                 8.3728

                    13                     14                     15
                     A                      A                      A
 Frequencies --   586.9184               591.2944               627.1240
 Red. masses --     4.4770                 4.7517                 5.4683
 Frc consts  --     0.9086                 0.9788                 1.2671
 IR Inten    --     3.8456                 2.4273                 2.1255

                    16                     17                     18
                     A                      A                      A
 Frequencies --   630.6961               645.5071               710.3814
 Red. masses --     6.5553                 4.2839                 2.2294
 Frc consts  --     1.5363                 1.0517                 0.6629
 IR Inten    --     2.3515                 1.1658                20.6840

                    19                     20                     21
                     A                      A                      A
 Frequencies --   719.8474               759.0585               774.3914
 Red. masses --     5.6411                 1.4606                 1.9815
 Frc consts  --     1.7223                 0.4958                 0.7001
 IR Inten    --    11.3903                44.2985                39.6663

                    22                     23                     24
                     A                      A                      A
 Frequencies --   778.3557               803.8933               852.3830
 Red. masses --     2.7680                 4.3797                 1.2597
 Frc consts  --     0.9880                 1.6676                 0.5392
 IR Inten    --     3.3236                19.6146                 0.0153

                    25                     26                     27
                     A                      A                      A
 Frequencies --   854.1090               872.5828               896.9510
 Red. masses --     1.3423                 1.4811                 5.8601
 Frc consts  --     0.5769                 0.6644                 2.7778
 IR Inten    --     3.3882                 2.7572                 7.3541

                    28                     29                     30
                     A                      A                      A
 Frequencies --   926.9298               937.2689               969.8362
 Red. masses --     1.4198                 1.3467                 1.3359
 Frc consts  --     0.7187                 0.6970                 0.7403
 IR Inten    --     4.2282                 1.0834                 0.6302

                    31                     32                     33
                     A                      A                      A
 Frequencies --   975.8840               992.7263               997.0523
 Red. masses --     1.2397                 7.0724                 1.2536
 Frc consts  --     0.6956                 4.1066                 0.7342
 IR Inten    --     0.0940                 8.3223                 0.2921

                    34                     35                     36
                     A                      A                      A
 Frequencies --  1019.2614              1039.2609              1058.4329
 Red. masses --     6.1258                 2.0853                 2.0550
 Frc consts  --     3.7496                 1.3270                 1.3564
 IR Inten    --     0.3315                 7.4600                 0.6161

                    37                     38                     39
                     A                      A                      A
 Frequencies --  1110.3161              1133.7403              1169.3301
 Red. masses --     1.5740                 1.9293                 1.7172
 Frc consts  --     1.1433                 1.4611                 1.3834
 IR Inten    --     5.1534                 1.5737                15.6734

                    40                     41                     42
                     A                      A                      A
 Frequencies --  1187.6756              1194.2789              1209.8506
 Red. masses --     1.3044                 1.1019                 1.1481
 Frc consts  --     1.0841                 0.9260                 0.9901
 IR Inten    --     1.5681                 0.1097                 2.0387

                    43                     44                     45
                     A                      A                      A
 Frequencies --  1230.0747              1263.0519              1317.4084
 Red. masses --     2.9446                 2.1908                 2.3609
 Frc consts  --     2.6250                 2.0592                 2.4141
 IR Inten    --    42.9362                54.8515                38.2680

                    46                     47                     48
                     A                      A                      A
 Frequencies --  1329.0898              1352.9542              1367.8784
 Red. masses --     1.8225                 4.1614                 1.6423
 Frc consts  --     1.8968                 4.4880                 1.8105
 IR Inten    --    33.6926                 8.0571                 0.9821

                    49                     50                     51
                     A                      A                      A
 Frequencies --  1397.0569              1415.9183              1494.3521
 Red. masses --     6.3390                 3.5810                 2.6194
 Frc consts  --     7.2896                 4.2299                 3.4464
 IR Inten    --     2.4505                32.0101                63.7532

                    52                     53                     54
                     A                      A                      A
 Frequencies --  1503.5265              1528.1332              1549.7296
 Red. masses --     2.3228                 2.8696                 3.1170
 Frc consts  --     3.0938                 3.9481                 4.4106
 IR Inten    --    22.5465                 2.3611                 4.2266

                    55                     56                     57
                     A                      A                      A
 Frequencies --  1551.8609              1633.8027              1646.5088
 Red. masses --     3.7672                 6.1641                 6.0594
 Frc consts  --     5.3454                 9.6944                 9.6785
 IR Inten    --   227.9009                 1.6384                 5.4084

                    58                     59                     60
                     A                      A                      A
 Frequencies --  1660.3409              1671.4592              3187.2941
 Red. masses --     5.7200                 6.6794                 1.0858
 Frc consts  --     9.2905                10.9946                 6.4992
 IR Inten    --    61.1223                 4.4761                 1.7723

                    61                     62                     63
                     A                      A                      A
 Frequencies --  3190.0975              3198.2276              3200.9820
 Red. masses --     1.0854                 1.0888                 1.0899
 Frc consts  --     6.5080                 6.5618                 6.5798
 IR Inten    --     1.8342                 6.1357                22.3242

                    64                     65                     66
                     A                      A                      A
 Frequencies --  3208.3867              3213.9809              3216.4578
 Red. masses --     1.0922                 1.0939                 1.0954
 Frc consts  --     6.6241                 6.6576                 6.6767
 IR Inten    --    26.1273                16.6123                 7.8292

                    67                     68                     69
                     A                      A                      A
 Frequencies --  3218.8918              3222.2614              3259.9344
 Red. masses --     1.0960                 1.0955                 1.0959
 Frc consts  --     6.6909                 6.7017                 6.8618
 IR Inten    --    17.8127                 5.2556                 0.7062

 - Thermochemistry -
 -------------------
 Temperature   298.150 Kelvin.  Pressure   1.00000 Atm.
 Atom     1 has atomic number  6 and mass  12.00000

 Molecular mass:   194.08440 amu.
 Principal axes and moments of inertia in atomic units:
                           1         2         3
     Eigenvalues --  1173.027474614.015145502.40532
           X            0.99998  -0.00674  -0.00024
           Y            0.00674   0.99988   0.01430
           Z            0.00014  -0.01430   0.99990
 This molecule is an asymmetric top.
 Rotational symmetry number  1.
 Warning -- assumption of classical behavior for rotation
           may cause significant error
 Rotational temperatures (Kelvin)      0.07384     0.01877     0.01574
 Rotational constants (GHZ):           1.53853     0.39114     0.32799
 Zero-point vibrational energy     523699.8 (Joules/Mol)
                                  125.16726 (Kcal/Mol)
 Warning -- explicit consideration of  14 degrees of freedom as
           vibrations may cause significant error
 Vibrational temperatures:     73.63   100.34   130.52   315.86   334.64
          (Kelvin)            368.71   469.46   552.72   607.22   629.22
                              688.27   766.24   844.44   850.74   902.29
                              907.43   928.74  1022.08  1035.70  1092.11
                             1114.18  1119.88  1156.62  1226.39  1228.87
                             1255.45  1290.51  1333.64  1348.52  1395.38
                             1404.08  1428.31  1434.53  1466.49  1495.26
                             1522.85  1597.50  1631.20  1682.40  1708.80
                             1718.30  1740.70  1769.80  1817.25  1895.45
                             1912.26  1946.60  1968.07  2010.05  2037.19
                             2150.04  2163.24  2198.64  2229.71  2232.78
                             2350.67  2368.96  2388.86  2404.85  4585.80
                             4589.83  4601.53  4605.49  4616.15  4624.20
                             4627.76  4631.26  4636.11  4690.31

 Zero-point correction=                           0.199467 (Hartree/Particle)
 Thermal correction to Energy=                    0.210047
 Thermal correction to Enthalpy=                  0.210991
 Thermal correction to Gibbs Free Energy=         0.162270
 Sum of electronic and zero-point Energies=           -610.718954
 Sum of electronic and thermal Energies=              -610.708374
 Sum of electronic and thermal Enthalpies=            -610.707430
 Sum of electronic and thermal Free Energies=         -610.756151

                     E (Thermal)             CV                S
                      KCal/Mol        Cal/Mol-Kelvin    Cal/Mol-Kelvin
 Total                  131.807             43.617            102.542
 Electronic               0.000              0.000              0.000
 Translational            0.889              2.981             41.695
 Rotational               0.889              2.981             31.766
 Vibrational            130.029             37.655             29.081
 Vibration     1          0.595              1.977              4.771
 Vibration     2          0.598              1.969              4.161
 Vibration     3          0.602              1.956              3.645
 Vibration     4          0.647              1.811              1.963
 Vibration     5          0.653              1.791              1.859
 Vibration     6          0.666              1.752              1.687
 Vibration     7          0.710              1.623              1.278
 Vibration     8          0.753              1.504              1.023
 Vibration     9          0.784              1.422              0.885
 Vibration    10          0.798              1.389              0.835
 Vibration    11          0.835              1.298              0.714
 Vibration    12          0.888              1.178              0.582
 Vibration    13          0.944              1.060              0.473
 Vibration    14          0.949              1.050              0.465

 Optimization completed.
    -- Stationary point found.
 Normal termination of Gaussian 09 at Sun Oct  3 22:58:24 2021.
 Gaussian 09:  AM64L-G09RevA.02 11-Jun-2009

 ----------------------------------------------------------------------
 #p TD(NStates=10, Root=1) b3lyp/6-31G* volume pop=NPA density=current
 Geom=AllCheck Guess=Read
 ----------------------------------------------------------------------

 c1ccc(cc1)n1cnc2c1cccc2_conf_0
 ------------------------------
 Redundant internal coordinates taken from checkpoint file:
 C13H10N2_c1e2_conf_0.chk
 Charge =  0 Multiplicity = 1

                         Standard orientation:
 ---------------------------------------------------------------------
 Center     Atomic      Atomic             Coordinates (Angstroms)
 Number     Number       Type             X           Y           Z
 ---------------------------------------------------------------------
      1          6           0       -4.054830   -0.609376    0.054240
      2          6           0       -3.122431   -1.342921   -0.682355
      3          6           0       -1.791461   -0.932527   -0.745463
      4          6           0       -1.384648    0.212261   -0.049363
      5          6           0       -2.313971    0.944829    0.698450
      6          6           0       -3.646976    0.537102    0.738233
      7          7           0       -0.033884    0.646880   -0.113137
      8          6           0        0.393593    1.944434   -0.348492
      9          7           0        1.690119    2.087904   -0.375683
     10          6           0        2.188078    0.811641   -0.139831
     11          6           0        1.128537   -0.112725    0.024552
     12          6           0        1.352747   -1.462577    0.306670
     13          6           0        2.680426   -1.872412    0.399797
     14          6           0        3.746775   -0.967925    0.223953
     15          6           0        3.515682    0.377271   -0.042493
     16          1           0       -5.091830   -0.929815    0.095420
     17          1           0       -3.432934   -2.232329   -1.223582
     18          1           0       -1.071341   -1.481168   -1.343759
     19          1           0       -1.985692    1.815901    1.257460
     20          1           0       -4.363952    1.110497    1.319104
     21          1           0       -0.327699    2.734251   -0.517120
     22          1           0        0.535601   -2.160928    0.455630
     23          1           0        2.897572   -2.914789    0.616161
     24          1           0        4.767451   -1.331568    0.303804
     25          1           0        4.330043    1.083996   -0.168755
 ---------------------------------------------------------------------

 SCF Done:  E(RB3LYP) =  -610.918421126     A.U. after    1 cycles

 Excitation energies and oscillator strengths:

 Excited State   1:      Singlet-A      4.6593 eV  266.10 nm  f=0.1586  <S**2>=0.000
      50 -> 54         0.17339
      51 -> 52         0.67205
 This state for optimization and/or second-order correction.
 Total Energy, E(TD-HF/TD-KS) =  -610.747195701
 Copying the excited state density for this state as the 1-particle RhoCI density.

 Excited State   2:      Singlet-A      4.7716 eV  259.84 nm  f=0.0048  <S**2>=0.000
      48 -> 52         0.16540
      51 -> 53         0.67522

 Excited State   3:      Singlet-A      4.8797 eV  254.08 nm  f=0.0152  <S**2>=0.000
      50 -> 52         0.65808
      50 -> 54         0.16584
      51 -> 54        -0.17536

 Excited State   4:      Singlet-A      5.0316 eV  246.41 nm  f=0.0002  <S**2>=0.000
      50 -> 53         0.69714
      51 -> 53         0.10072

 Excited State   5:      Singlet-A      5.0988 eV  243.16 nm  f=0.0507  <S**2>=0.000
      50 -> 52         0.20714
      50 -> 54        -0.27158
      50 -> 55         0.16513
      51 -> 54         0.54844
      51 -> 55         0.19025

 Excited State   6:      Singlet-A      5.2558 eV  235.90 nm  f=0.1514  <S**2>=0.000
      49 -> 54        -0.10711
      50 -> 54         0.49664
      51 -> 52        -0.16204
      51 -> 54         0.33993
      51 -> 55        -0.26295

 Excited State   7:      Singlet-A      5.5715 eV  222.53 nm  f=0.0018  <S**2>=0.000
      47 -> 53        -0.13001
      48 -> 52        -0.43566
      48 -> 54        -0.10701
      49 -> 53         0.49194
      51 -> 53         0.14919

 Excited State   8:      Singlet-A      5.6023 eV  221.31 nm  f=0.0113  <S**2>=0.000
      47 -> 52         0.39256
      47 -> 54        -0.24721
      49 -> 52         0.44120
      49 -> 54        -0.24950

 Excited State   9:      Singlet-A      5.9970 eV  206.74 nm  f=0.0857  <S**2>=0.000
      47 -> 52        -0.34660
      47 -> 54         0.22402
      48 -> 53         0.21973
      49 -> 52         0.46391
      49 -> 54         0.13889
      51 -> 55         0.17163

 Excited State  10:      Singlet-A      6.0846 eV  203.77 nm  f=0.0235  <S**2>=0.000
      47 -> 52         0.38271
      47 -> 54         0.15697
      49 -> 54         0.51293
      50 -> 54         0.10386
      50 -> 55         0.18848

 The electronic state is 1-A.
 Alpha  occ. eigenvalues --  -14.39775 -14.31575 -10.25031 -10.24921 -10.22256
 Alpha  occ. eigenvalues --  -10.20816 -10.20763 -10.20737 -10.20707 -10.20524
 Alpha  occ. eigenvalues --  -10.20426 -10.19288 -10.18730 -10.18440 -10.18298
 Alpha  occ. eigenvalues --   -1.02105  -0.90629  -0.85639  -0.83934  -0.76589
 Alpha  occ. eigenvalues --   -0.76212  -0.73560  -0.73163  -0.64445  -0.63576
 Alpha  occ. eigenvalues --   -0.61981  -0.59336  -0.57853  -0.54532  -0.50845
 Alpha  occ. eigenvalues --   -0.50090  -0.47989  -0.47386  -0.45933  -0.44060
 Alpha  occ. eigenvalues --   -0.43906  -0.43447  -0.42608  -0.41107  -0.38290
 Alpha  occ. eigenvalues --   -0.37876  -0.36564  -0.36188  -0.35101  -0.33678
 Alpha  occ. eigenvalues --   -0.30922  -0.27346  -0.26763  -0.26050  -0.22571
 Alpha  occ. eigenvalues --   -0.21866
 Alpha virt. eigenvalues --   -0.02478  -0.01860  -0.01087   0.02667   0.05512
 Alpha virt. eigenvalues --    0.08138   0.10438   0.12308   0.13748   0.13972
 Alpha virt. eigenvalues --    0.14641   0.15156   0.16925   0.17237   0.18240

 Mulliken atomic charges:
              1
     1  C   -0.168761
     2  C   -0.143176
     3  C   -0.182415
     4  C    0.214827
     5  C   -0.169842
     6  C   -0.144581
     7  N   -0.555497
     8  C    0.205516
     9  N   -0.475862
    10  C    0.213024
    11  C    0.317543
    12  C   -0.110831
    13  C   -0.151432
    14  C   -0.127568
    15  C   -0.138487
    16  H    0.100240
    17  H    0.110077
    18  H    0.106499
    19  H    0.110031
    20  H    0.111297
    21  H    0.186190
    22  H    0.197896
    23  H    0.157629
    24  H    0.159139
    25  H    0.178546
 Sum of Mulliken atomic charges =  -0.00000

 Dipole moment (field-independent basis, Debye):
    X=              4.9655    Y=             -1.9265    Z=              0.4813  Tot=              5.3479
 Quadrupole moment (field-independent basis, Debye-Ang):
   XX=            -80.7325   YY=            -82.1913   ZZ=            -88.6146
   XY=             -8.1636   XZ=              0.7329   YZ=              1.2855

 Summary of Natural Population Analysis:

                                       Natural Population
                Natural  -----------------------------------------------
    Atom  No    Charge         Core      Valence    Rydberg      Total
 -----------------------------------------------------------------------
      C    1   -0.32779      1.99910     4.31118    0.01751     6.32779
      C    2   -0.23075      1.99911     4.21667    0.01497     6.23075
      C    3   -0.28498      1.99905     4.27110    0.01483     6.28498
      C    4    0.00685      1.99893     3.97383    0.02039     5.99315
      C    5   -0.26612      1.99905     4.25283    0.01425     6.26612
      C    6   -0.23766      1.99911     4.22331    0.01524     6.23766
      N    7   -0.28737      1.99928     5.27490    0.01319     7.28737
      C    8    0.19821      1.99937     3.77404    0.02838     5.80179
      N    9   -0.43229      1.99947     5.41078    0.02204     7.43229
      C   10    0.08403      1.99899     3.89453    0.02244     5.91597
      C   11    0.09961      1.99896     3.88364    0.01779     5.90039
      C   12   -0.12793      1.99902     4.11561    0.01330     6.12793
      C   13   -0.24591      1.99916     4.23172    0.01503     6.24591
      C   14   -0.21934      1.99915     4.20577    0.01442     6.21934
      C   15   -0.11549      1.99902     4.10214    0.01433     6.11549
      H   16    0.22373      0.00000     0.77547    0.00080     0.77627
      H   17    0.22767      0.00000     0.77150    0.00084     0.77233
      H   18    0.22211      0.00000     0.77698    0.00092     0.77789
      H   19    0.22525      0.00000     0.77349    0.00126     0.77475
      H   20    0.22841      0.00000     0.77076    0.00083     0.77159
      H   21    0.24049      0.00000     0.75884    0.00067     0.75951
      H   22    0.26521      0.00000     0.73376    0.00103     0.73479
      H   23    0.24946      0.00000     0.74989    0.00065     0.75054
      H   24    0.24885      0.00000     0.75050    0.00064     0.75115
      H   25    0.25578      0.00000     0.74304    0.00118     0.74422
 =======================================================================
   * Total *   -0.00000     29.98675    71.74630    0.26695   102.00000

 Normal termination of Gaussian 09 at Mon Oct  4 04:40:53 2021.
