 Gaussian 09, Revision A.02,

 -----------------------------------
 #p opt b3lyp/6-31G* scf=(xqc,tight)
 -----------------------------------

 -----------------------------------
 Cc1ccc(c(c1)OC(=O)C(C)(C)C)C_conf_0
 -----------------------------------
 Symbolic Z-matrix:
 Charge =  0 Multiplicity = 1

 SCF Done:  E(RB3LYP) =  -656.698433268     A.U. after   15 cycles
 SCF Done:  E(RB3LYP) =  -656.702139118     A.U. after   12 cycles
 SCF Done:  E(RB3LYP) =  -656.700208455     A.U. after   13 cycles
 SCF Done:  E(RB3LYP) =  -656.702339613     A.U. after   12 cycles
 SCF Done:  E(RB3LYP) =  -656.702726431     A.U. after   12 cycles
 SCF Done:  E(RB3LYP) =  -656.702991483     A.U. after   13 cycles
 SCF Done:  E(RB3LYP) =  -656.703203073     A.U. after   12 cycles
 SCF Done:  E(RB3LYP) =  -656.703365590     A.U. after   11 cycles
 SCF Done:  E(RB3LYP) =  -656.703380918     A.U. after   10 cycles
 SCF Done:  E(RB3LYP) =  -656.703381874     A.U. after    8 cycles
 SCF Done:  E(RB3LYP) =  -656.703392111     A.U. after   16 cycles
 SCF Done:  E(RB3LYP) =  -656.703397335     A.U. after   11 cycles
 SCF Done:  E(RB3LYP) =  -656.703396848     A.U. after   10 cycles
 SCF Done:  E(RB3LYP) =  -656.703398878     A.U. after    9 cycles
 SCF Done:  E(RB3LYP) =  -656.703397372     A.U. after    9 cycles
 SCF Done:  E(RB3LYP) =  -656.703398871     A.U. after    9 cycles
 SCF Done:  E(RB3LYP) =  -656.703399152     A.U. after    8 cycles
 SCF Done:  E(RB3LYP) =  -656.703399096     A.U. after    6 cycles
 Optimization completed.
    -- Stationary point found.
 Normal termination of Gaussian 09 at Wed Sep 29 09:08:54 2021.

 ----------------------------------------------------------------------
 #p freq b3lyp/6-31G* volume NMR pop=NPA density=current Geom=AllCheck
 Guess=Read
 ----------------------------------------------------------------------

 Cc1ccc(c(c1)OC(=O)C(C)(C)C)C_conf_0
 -----------------------------------
 Redundant internal coordinates taken from checkpoint file:
 C13H18O2_6664_conf_0.chk
 Charge =  0 Multiplicity = 1

 SCF Done:  E(RB3LYP) =  -656.703399096     A.U. after    1 cycles

  1  C    Isotropic =   167.8714   Anisotropy =    35.0008

  2  C    Isotropic =    59.5394   Anisotropy =   171.7841

  3  C    Isotropic =    70.4473   Anisotropy =   142.1975

  4  C    Isotropic =    65.5166   Anisotropy =   140.3140

  5  C    Isotropic =    68.9368   Anisotropy =   156.2148

  6  C    Isotropic =    45.8134   Anisotropy =   102.2037

  7  C    Isotropic =    72.0322   Anisotropy =   135.9616

  8  O    Isotropic =   106.9558   Anisotropy =   158.3487

  9  C    Isotropic =    22.5500   Anisotropy =    79.6998

 10  O    Isotropic =   -65.7274   Anisotropy =   575.9215

 11  C    Isotropic =   148.6787   Anisotropy =    24.3065

 12  C    Isotropic =   161.8935   Anisotropy =    37.4931

 13  C    Isotropic =   162.7078   Anisotropy =    31.3826

 14  C    Isotropic =   162.0447   Anisotropy =    37.2058

 15  C    Isotropic =   170.7946   Anisotropy =    24.1960

 16  H    Isotropic =    30.3166   Anisotropy =     7.7596

 17  H    Isotropic =    30.0016   Anisotropy =     7.2121

 18  H    Isotropic =    29.6681   Anisotropy =     8.1301

 19  H    Isotropic =    25.4118   Anisotropy =     5.7092

 20  H    Isotropic =    25.2417   Anisotropy =     6.3701

 21  H    Isotropic =    25.3824   Anisotropy =    10.7309

 22  H    Isotropic =    30.8087   Anisotropy =     8.2403

 23  H    Isotropic =    30.4021   Anisotropy =     5.8092

 24  H    Isotropic =    31.0720   Anisotropy =     7.9358

 25  H    Isotropic =    30.6156   Anisotropy =     8.1746

 26  H    Isotropic =    31.4773   Anisotropy =     7.9034

 27  H    Isotropic =    30.6908   Anisotropy =     7.8888

 28  H    Isotropic =    30.3293   Anisotropy =     7.1661

 29  H    Isotropic =    30.8527   Anisotropy =     7.7920

 30  H    Isotropic =    31.1011   Anisotropy =     7.8851

 31  H    Isotropic =    30.5105   Anisotropy =     8.2668

 32  H    Isotropic =    29.9919   Anisotropy =     6.6180

 33  H    Isotropic =    29.8064   Anisotropy =     7.0360

  Exact polarizability: 177.422   5.457 149.736   3.136  -2.004  92.305
 Approx polarizability: 236.581   5.599 229.191   9.447   1.171 143.418

                     1                      2                      3
                     A                      A                      A
 Frequencies --    18.6271                44.3558                45.3669
 Red. masses --     3.3115                 2.7215                 1.2464
 Frc consts  --     0.0007                 0.0032                 0.0015
 IR Inten    --     0.2860                 0.5554                 0.5178

                     4                      5                      6
                     A                      A                      A
 Frequencies --    50.7740                82.4916               128.6039
 Red. masses --     4.2233                 4.2692                 1.5441
 Frc consts  --     0.0064                 0.0171                 0.0150
 IR Inten    --     0.1790                 1.3050                 1.0532

                     7                      8                      9
                     A                      A                      A
 Frequencies --   141.9983               184.4348               201.8415
 Red. masses --     1.4866                 3.6966                 1.4853
 Frc consts  --     0.0177                 0.0741                 0.0357
 IR Inten    --     0.2936                 0.1528                 0.3697

                    10                     11                     12
                     A                      A                      A
 Frequencies --   226.8665               233.8073               266.1418
 Red. masses --     1.5148                 2.7985                 1.0772
 Frc consts  --     0.0459                 0.0901                 0.0450
 IR Inten    --     0.3295                 0.6378                 0.0436

                    13                     14                     15
                     A                      A                      A
 Frequencies --   277.2400               295.6369               311.4142
 Red. masses --     1.2267                 2.7709                 2.8511
 Frc consts  --     0.0556                 0.1427                 0.1629
 IR Inten    --     0.0025                 0.9877                 0.6858

                    16                     17                     18
                     A                      A                      A
 Frequencies --   325.5631               330.4404               355.6714
 Red. masses --     3.1581                 3.4042                 3.2160
 Frc consts  --     0.1972                 0.2190                 0.2397
 IR Inten    --     5.1348                 0.5078                 5.8970

                    19                     20                     21
                     A                      A                      A
 Frequencies --   377.5819               440.8646               463.7295
 Red. masses --     2.3487                 3.4644                 2.9275
 Frc consts  --     0.1973                 0.3967                 0.3709
 IR Inten    --     0.6183                 4.2426                 2.4351

                    22                     23                     24
                     A                      A                      A
 Frequencies --   467.8065               494.5791               574.6836
 Red. masses --     3.7453                 3.9004                 3.8220
 Frc consts  --     0.4829                 0.5621                 0.7437
 IR Inten    --     1.1590                 0.9642                 5.1499

                    25                     26                     27
                     A                      A                      A
 Frequencies --   587.1240               635.1428               716.2369
 Red. masses --     4.5664                 5.2133                 3.9176
 Frc consts  --     0.9274                 1.2391                 1.1841
 IR Inten    --     1.6740                 0.6397                 0.9100

                    28                     29                     30
                     A                      A                      A
 Frequencies --   735.7747               758.9785               777.8562
 Red. masses --     4.6171                 6.8564                 4.7945
 Frc consts  --     1.4727                 2.3270                 1.7092
 IR Inten    --     0.1834                 3.8478                 0.8877

                    31                     32                     33
                     A                      A                      A
 Frequencies --   816.4592               829.1996               873.0334
 Red. masses --     2.2388                 1.5878                 1.6516
 Frc consts  --     0.8793                 0.6432                 0.7417
 IR Inten    --     6.0099                13.2992                 1.7694

                    34                     35                     36
                     A                      A                      A
 Frequencies --   907.7079               949.6150               949.9947
 Red. masses --     2.8653                 2.1492                 1.8856
 Frc consts  --     1.3909                 1.1419                 1.0026
 IR Inten    --    16.2421                 2.4210                 1.2795

                    37                     38                     39
                     A                      A                      A
 Frequencies --   951.4980               956.9639               980.0299
 Red. masses --     1.3876                 1.7160                 1.1979
 Frc consts  --     0.7402                 0.9259                 0.6779
 IR Inten    --     0.7394                 1.9471                 0.0160

                    40                     41                     42
                     A                      A                      A
 Frequencies --  1024.6646              1042.2328              1058.9192
 Red. masses --     1.7437                 1.3545                 1.4679
 Frc consts  --     1.0787                 0.8669                 0.9698
 IR Inten    --     4.4898                 4.5437                29.5544

                    43                     44                     45
                     A                      A                      A
 Frequencies --  1061.0765              1072.7056              1078.2128
 Red. masses --     1.4313                 1.4906                 1.5001
 Frc consts  --     0.9494                 1.0106                 1.0275
 IR Inten    --     3.4498                 4.0933                 6.7968

                    46                     47                     48
                     A                      A                      A
 Frequencies --  1136.6073              1153.7475              1184.3291
 Red. masses --     2.7785                 4.3485                 1.4764
 Frc consts  --     2.1149                 3.4105                 1.2201
 IR Inten    --    30.2642               643.7015                12.2625

                    49                     50                     51
                     A                      A                      A
 Frequencies --  1237.7564              1242.9191              1262.8059
 Red. masses --     1.8704                 2.6740                 2.8960
 Frc consts  --     1.6883                 2.4339                 2.7210
 IR Inten    --     0.6542                 2.0677                 2.8523

                    52                     53                     54
                     A                      A                      A
 Frequencies --  1280.6028              1309.3244              1318.9291
 Red. masses --     4.9785                 3.1603                 1.4304
 Frc consts  --     4.8104                 3.1921                 1.4660
 IR Inten    --   115.8548                32.1789                 0.4481

                    55                     56                     57
                     A                      A                      A
 Frequencies --  1349.9833              1421.8039              1428.9840
 Red. masses --     6.9462                 1.2086                 1.2334
 Frc consts  --     7.4585                 1.4395                 1.4839
 IR Inten    --     0.8538                 3.7988                 4.5427

                    58                     59                     60
                     A                      A                      A
 Frequencies --  1442.6944              1444.9215              1455.3485
 Red. masses --     1.2781                 1.2927                 2.3322
 Frc consts  --     1.5673                 1.5902                 2.9104
 IR Inten    --     0.2368                 0.5517                29.0806

                    61                     62                     63
                     A                      A                      A
 Frequencies --  1458.1805              1507.7524              1512.7933
 Red. masses --     1.2664                 1.0491                 1.0470
 Frc consts  --     1.5865                 1.4052                 1.4117
 IR Inten    --     5.6193                 0.2464                 5.5140

                    64                     65                     66
                     A                      A                      A
 Frequencies --  1514.5607              1516.5247              1517.4774
 Red. masses --     1.0626                 1.0528                 1.0581
 Frc consts  --     1.4361                 1.4266                 1.4356
 IR Inten    --     0.8527                 1.9188                 4.4883

                    67                     68                     69
                     A                      A                      A
 Frequencies --  1521.4873              1529.1177              1530.8325
 Red. masses --     1.0565                 1.0804                 1.0772
 Frc consts  --     1.4409                 1.4884                 1.4873
 IR Inten    --     2.4931                22.2005                 9.5062

                    70                     71                     72
                     A                      A                      A
 Frequencies --  1532.7140              1550.4104              1556.8177
 Red. masses --     1.0597                 1.0962                 2.7351
 Frc consts  --     1.4667                 1.5524                 3.9056
 IR Inten    --     9.8550                37.2059                30.0346

                    73                     74                     75
                     A                      A                      A
 Frequencies --  1632.4542              1676.4620              1832.3180
 Red. masses --     5.4592                 6.6438                12.7029
 Frc consts  --     8.5715                11.0015                25.1278
 IR Inten    --    13.8897                13.3003               180.6518

                    76                     77                     78
                     A                      A                      A
 Frequencies --  3043.5404              3048.8907              3050.0498
 Red. masses --     1.0388                 1.0367                 1.0356
 Frc consts  --     5.6692                 5.6780                 5.6764
 IR Inten    --    32.9553                17.5662                36.2779

                    79                     80                     81
                     A                      A                      A
 Frequencies --  3051.6742              3061.1409              3098.3954
 Red. masses --     1.0363                 1.0366                 1.0984
 Frc consts  --     5.6859                 5.7229                 6.2126
 IR Inten    --    11.8809                26.6605                19.2125

                    82                     83                     84
                     A                      A                      A
 Frequencies --  3100.6994              3113.1927              3114.5051
 Red. masses --     1.1007                 1.1030                 1.1023
 Frc consts  --     6.2352                 6.2987                 6.2997
 IR Inten    --    16.5464                11.7501                26.7705

                    85                     86                     87
                     A                      A                      A
 Frequencies --  3124.9662              3128.9807              3130.3451
 Red. masses --     1.1020                 1.1017                 1.1018
 Frc consts  --     6.3406                 6.3553                 6.3609
 IR Inten    --    18.0725                40.5390                22.6153

                    88                     89                     90
                     A                      A                      A
 Frequencies --  3138.8149              3140.0216              3143.6422
 Red. masses --     1.1026                 1.1019                 1.1008
 Frc consts  --     6.4004                 6.4011                 6.4094
 IR Inten    --     9.3162                15.1047                40.9705

                    91                     92                     93
                     A                      A                      A
 Frequencies --  3177.3032              3194.6387              3214.1133
 Red. masses --     1.0869                 1.0943                 1.0913
 Frc consts  --     6.4648                 6.5801                 6.6421
 IR Inten    --    11.5256                29.0631                 4.7659

 - Thermochemistry -
 -------------------
 Temperature   298.150 Kelvin.  Pressure   1.00000 Atm.
 Atom     1 has atomic number  6 and mass  12.00000

 Molecular mass:   206.13068 amu.
 Principal axes and moments of inertia in atomic units:
                           1         2         3
     Eigenvalues --  1655.229465058.294636057.02702
           X            0.99994   0.01043   0.00386
           Y           -0.01037   0.99981  -0.01627
           Z           -0.00403   0.01623   0.99986
 This molecule is an asymmetric top.
 Rotational symmetry number  1.
 Warning -- assumption of classical behavior for rotation
           may cause significant error
 Rotational temperatures (Kelvin)      0.05233     0.01712     0.01430
 Rotational constants (GHZ):           1.09033     0.35679     0.29796
 Zero-point vibrational energy     743117.4 (Joules/Mol)
                                  177.60931 (Kcal/Mol)
 Warning -- explicit consideration of  25 degrees of freedom as
           vibrations may cause significant error
 Vibrational temperatures:     26.80    63.82    65.27    73.05   118.69
          (Kelvin)            185.03   204.30   265.36   290.40   326.41
                              336.40   382.92   398.89   425.35   448.05
                              468.41   475.43   511.73   543.26   634.30
                              667.20   673.07   711.59   826.84   844.74
                              913.83  1030.50  1058.61  1092.00  1119.16
                             1174.70  1193.03  1256.10  1305.99  1366.28
                             1366.83  1368.99  1376.86  1410.04  1474.26
                             1499.54  1523.55  1526.65  1543.38  1551.31
                             1635.32  1659.98  1703.98  1780.85  1788.28
                             1816.89  1842.50  1883.82  1897.64  1942.32
                             2045.66  2055.99  2075.71  2078.92  2093.92
                             2097.99  2169.32  2176.57  2179.11  2181.94
                             2183.31  2189.08  2200.06  2202.52  2205.23
                             2230.69  2239.91  2348.73  2412.05  2636.29
                             4378.97  4386.67  4388.34  4390.67  4404.29
                             4457.89  4461.21  4479.18  4481.07  4496.12
                             4501.90  4503.86  4516.05  4517.79  4522.99
                             4571.42  4596.37  4624.39

 Zero-point correction=                           0.283038 (Hartree/Particle)
 Thermal correction to Energy=                    0.299536
 Thermal correction to Enthalpy=                  0.300481
 Thermal correction to Gibbs Free Energy=         0.237836
 Sum of electronic and zero-point Energies=           -656.420361
 Sum of electronic and thermal Energies=              -656.403863
 Sum of electronic and thermal Enthalpies=            -656.402919
 Sum of electronic and thermal Free Energies=         -656.465563

                     E (Thermal)             CV                S
                      KCal/Mol        Cal/Mol-Kelvin    Cal/Mol-Kelvin
 Total                  187.962             60.956            131.847
 Electronic               0.000              0.000              0.000
 Translational            0.889              2.981             41.874
 Rotational               0.889              2.981             32.295
 Vibrational            186.184             54.995             57.678
 Vibration     1          0.593              1.986              6.775
 Vibration     2          0.595              1.980              5.054
 Vibration     3          0.595              1.979              5.010
 Vibration     4          0.595              1.977              4.787
 Vibration     5          0.600              1.961              3.831
 Vibration     6          0.611              1.925              2.967
 Vibration     7          0.615              1.911              2.777
 Vibration     8          0.631              1.861              2.283
 Vibration     9          0.639              1.837              2.116
 Vibration    10          0.651              1.800              1.904
 Vibration    11          0.654              1.789              1.850
 Vibration    12          0.672              1.735              1.621
 Vibration    13          0.678              1.716              1.551
 Vibration    14          0.690              1.682              1.441
 Vibration    15          0.700              1.652              1.355
 Vibration    16          0.710              1.624              1.282
 Vibration    17          0.713              1.615              1.258
 Vibration    18          0.731              1.564              1.141
 Vibration    19          0.748              1.518              1.049
 Vibration    20          0.801              1.381              0.824
 Vibration    21          0.821              1.331              0.755
 Vibration    22          0.825              1.321              0.744
 Vibration    23          0.850              1.262              0.672
 Vibration    24          0.931              1.086              0.495
 Vibration    25          0.944              1.059              0.472

 Normal termination of Gaussian 09 at Wed Sep 29 10:23:01 2021.
 Gaussian 09:  AM64L-G09RevA.02 11-Jun-2009

 ----------------------------------------------------------------------
 #p TD(NStates=10, Root=1) b3lyp/6-31G* volume pop=NPA density=current
 Geom=AllCheck Guess=Read
 ----------------------------------------------------------------------

 Cc1ccc(c(c1)OC(=O)C(C)(C)C)C_conf_0
 -----------------------------------
 Redundant internal coordinates taken from checkpoint file:
 C13H18O2_6664_conf_0.chk
 Charge =  0 Multiplicity = 1

                         Standard orientation:
 ---------------------------------------------------------------------
 Center     Atomic      Atomic             Coordinates (Angstroms)
 Number     Number       Type             X           Y           Z
 ---------------------------------------------------------------------
      1          6           0       -3.673105   -2.273931    0.154901
      2          6           0       -2.925157   -0.961738    0.110284
      3          6           0       -3.591361    0.250710   -0.096605
      4          6           0       -2.886868    1.453007   -0.160884
      5          6           0       -1.495637    1.497014   -0.024957
      6          6           0       -0.845780    0.274250    0.184703
      7          6           0       -1.533284   -0.932144    0.257617
      8          8           0        0.536102    0.322371    0.410945
      9          6           0        1.388592   -0.405409   -0.383440
     10          8           0        1.018863   -1.078529   -1.314257
     11          6           0        2.838374   -0.240897    0.086674
     12          6           0        2.954760   -0.771497    1.533720
     13          6           0        3.750590   -1.049298   -0.849326
     14          6           0        3.225903    1.253890    0.046792
     15          6           0       -0.726628    2.792879   -0.089875
     16          1           0       -4.742322   -2.117730    0.330629
     17          1           0       -3.292347   -2.927461    0.948015
     18          1           0       -3.570877   -2.821716   -0.791062
     19          1           0       -4.673085    0.256374   -0.206834
     20          1           0       -3.427289    2.383541   -0.318184
     21          1           0       -0.979878   -1.850596    0.424198
     22          1           0        2.678526   -1.830881    1.591208
     23          1           0        2.310990   -0.211065    2.217322
     24          1           0        3.990895   -0.676689    1.878406
     25          1           0        3.483254   -2.110167   -0.845070
     26          1           0        4.793002   -0.952287   -0.525541
     27          1           0        3.674350   -0.694299   -1.881565
     28          1           0        2.595428    1.848356    0.713496
     29          1           0        3.135208    1.660265   -0.967306
     30          1           0        4.269003    1.371928    0.362472
     31          1           0       -1.402675    3.634571   -0.267803
     32          1           0        0.017335    2.780689   -0.895412
     33          1           0       -0.181627    2.985419    0.841905
 ---------------------------------------------------------------------

 SCF Done:  E(RB3LYP) =  -656.703399096     A.U. after    2 cycles

 Excitation energies and oscillator strengths:

 Excited State   1:      Singlet-A      5.2091 eV  238.02 nm  f=0.0118  <S**2>=0.000
      55 -> 57        -0.24923
      55 -> 58         0.31006
      55 -> 59        -0.11902
      56 -> 57         0.47901
      56 -> 58         0.29743
 This state for optimization and/or second-order correction.
 Total Energy, E(TD-HF/TD-KS) =  -656.511968597
 Copying the excited state density for this state as the 1-particle RhoCI density.

 Excited State   2:      Singlet-A      5.5170 eV  224.73 nm  f=0.0274  <S**2>=0.000
      54 -> 57         0.40358
      54 -> 59        -0.27410
      55 -> 57         0.16254
      56 -> 57         0.25979
      56 -> 58        -0.26328
      56 -> 59        -0.27842

 Excited State   3:      Singlet-A      5.6777 eV  218.37 nm  f=0.0410  <S**2>=0.000
      54 -> 57        -0.36097
      54 -> 59         0.22302
      55 -> 57         0.37989
      55 -> 59        -0.12465
      56 -> 57         0.32587
      56 -> 58        -0.18436
      56 -> 59        -0.10233

 Excited State   4:      Singlet-A      6.0081 eV  206.36 nm  f=0.0017  <S**2>=0.000
      54 -> 57         0.21417
      54 -> 59        -0.11747
      55 -> 57         0.36823
      55 -> 58         0.18220
      55 -> 59        -0.25462
      56 -> 59         0.44222

 Excited State   5:      Singlet-A      6.0952 eV  203.41 nm  f=0.1085  <S**2>=0.000
      55 -> 57         0.14057
      55 -> 58        -0.28015
      55 -> 59        -0.39132
      56 -> 58         0.39506
      56 -> 59        -0.28185

 Excited State   6:      Singlet-A      6.6095 eV  187.58 nm  f=0.0997  <S**2>=0.000
      54 -> 57         0.24801
      54 -> 58         0.54357
      54 -> 59         0.26392
      55 -> 58        -0.18171
      56 -> 57         0.12766
      56 -> 59         0.12812

 Excited State   7:      Singlet-A      6.7063 eV  184.88 nm  f=0.0310  <S**2>=0.000
      54 -> 57         0.23462
      54 -> 58        -0.39001
      54 -> 59         0.45815
      55 -> 57        -0.12550
      55 -> 58        -0.12244
      55 -> 59        -0.16115
      56 -> 58        -0.10164

 Excited State   8:      Singlet-A      6.8259 eV  181.64 nm  f=0.5544  <S**2>=0.000
      53 -> 57        -0.25062
      54 -> 58         0.19270
      55 -> 57        -0.13873
      55 -> 58         0.33974
      55 -> 59        -0.32469
      56 -> 57        -0.19342
      56 -> 58        -0.24330
      56 -> 59        -0.22027

 Excited State   9:      Singlet-A      6.9152 eV  179.29 nm  f=0.3559  <S**2>=0.000
      53 -> 58         0.17055
      54 -> 57         0.17891
      54 -> 59         0.25218
      55 -> 57         0.23892
      55 -> 58         0.31435
      55 -> 59         0.28274
      56 -> 57        -0.12801
      56 -> 58         0.24819
      56 -> 59        -0.22656

 Excited State  10:      Singlet-A      7.4193 eV  167.11 nm  f=0.1059  <S**2>=0.000
      52 -> 57         0.12126
      53 -> 57         0.58698
      53 -> 59         0.20470
      55 -> 57        -0.10375
      55 -> 59        -0.15567
      56 -> 58        -0.11199

 The electronic state is 1-A.
 Alpha  occ. eigenvalues --  -19.19557 -19.13761 -10.31393 -10.24337 -10.21355
 Alpha  occ. eigenvalues --  -10.19562 -10.19559 -10.18665 -10.18506 -10.18365
 Alpha  occ. eigenvalues --  -10.18286 -10.18263 -10.18248 -10.18211 -10.17399
 Alpha  occ. eigenvalues --   -1.10249  -1.02019  -0.85705  -0.82288  -0.78518
 Alpha  occ. eigenvalues --   -0.74443  -0.71860  -0.69206  -0.68761  -0.66761
 Alpha  occ. eigenvalues --   -0.64574  -0.60112  -0.57302  -0.53993  -0.49069
 Alpha  occ. eigenvalues --   -0.48329  -0.48200  -0.47241  -0.45308  -0.43519
 Alpha  occ. eigenvalues --   -0.43311  -0.42342  -0.41636  -0.41286  -0.40687
 Alpha  occ. eigenvalues --   -0.40170  -0.39501  -0.38999  -0.38547  -0.37307
 Alpha  occ. eigenvalues --   -0.36813  -0.36272  -0.35008  -0.34440  -0.33770
 Alpha  occ. eigenvalues --   -0.33392  -0.33182  -0.30864  -0.26838  -0.24003
 Alpha  occ. eigenvalues --   -0.22882
 Alpha virt. eigenvalues --   -0.00361   0.00339   0.01870   0.07736   0.09934
 Alpha virt. eigenvalues --    0.11126   0.12206   0.12986   0.13320   0.13912
 Alpha virt. eigenvalues --    0.14814   0.15132   0.15608   0.15887   0.17065

 Mulliken atomic charges:
              1
     1  C   -0.530921
     2  C    0.165750
     3  C   -0.168865
     4  C   -0.208235
     5  C    0.158000
     6  C    0.293738
     7  C   -0.196487
     8  O   -0.529762
     9  C    0.600107
    10  O   -0.473698
    11  C    0.000063
    12  C   -0.449757
    13  C   -0.433174
    14  C   -0.450733
    15  C   -0.523919
    16  H    0.158584
    17  H    0.164152
    18  H    0.178801
    19  H    0.127934
    20  H    0.128973
    21  H    0.141465
    22  H    0.147134
    23  H    0.158758
    24  H    0.142359
    25  H    0.154191
    26  H    0.132950
    27  H    0.153553
    28  H    0.157534
    29  H    0.146871
    30  H    0.143278
    31  H    0.157472
    32  H    0.177046
    33  H    0.176838
 Sum of Mulliken atomic charges =  -0.00000

 Dipole moment (field-independent basis, Debye):
    X=             -0.9469    Y=              1.1196    Z=              1.3913  Tot=              2.0214
 Quadrupole moment (field-independent basis, Debye-Ang):
   XX=            -80.3759   YY=            -85.0255   ZZ=            -95.1268
   XY=              2.2444   XZ=              1.9598   YZ=             -3.6148

 Summary of Natural Population Analysis:

                                       Natural Population
                Natural  -----------------------------------------------
    Atom  No    Charge         Core      Valence    Rydberg      Total
 -----------------------------------------------------------------------
      C    1   -0.69528      1.99940     4.68816    0.00773     6.69528
      C    2    0.02011      1.99906     3.96496    0.01587     5.97989
      C    3   -0.22978      1.99906     4.21426    0.01646     6.22978
      C    4   -0.23908      1.99908     4.22288    0.01712     6.23908
      C    5   -0.00660      1.99897     3.99183    0.01580     6.00660
      C    6    0.30666      1.99867     3.67040    0.02427     5.69334
      C    7   -0.28200      1.99897     4.26495    0.01809     6.28200
      O    8   -0.54114      1.99970     6.53047    0.01097     8.54114
      C    9    0.78628      1.99928     3.16530    0.04914     5.21372
      O   10   -0.58275      1.99977     6.56282    0.02015     8.58275
      C   11   -0.14706      1.99906     4.13527    0.01274     6.14706
      C   12   -0.66900      1.99938     4.65987    0.00975     6.66900
      C   13   -0.66833      1.99939     4.65790    0.01103     6.66833
      C   14   -0.66895      1.99938     4.65975    0.00981     6.66895
      C   15   -0.69601      1.99940     4.68836    0.00825     6.69601
      H   16    0.23928      0.00000     0.75967    0.00105     0.76072
      H   17    0.24382      0.00000     0.75433    0.00185     0.75618
      H   18    0.25324      0.00000     0.74499    0.00177     0.74676
      H   19    0.23123      0.00000     0.76777    0.00100     0.76877
      H   20    0.23150      0.00000     0.76750    0.00100     0.76850
      H   21    0.24591      0.00000     0.75299    0.00109     0.75409
      H   22    0.23402      0.00000     0.76499    0.00098     0.76598
      H   23    0.24095      0.00000     0.75795    0.00110     0.75905
      H   24    0.23051      0.00000     0.76804    0.00145     0.76949
      H   25    0.24206      0.00000     0.75687    0.00107     0.75794
      H   26    0.22711      0.00000     0.77193    0.00097     0.77289
      H   27    0.24147      0.00000     0.75746    0.00107     0.75853
      H   28    0.23912      0.00000     0.75977    0.00111     0.76088
      H   29    0.23356      0.00000     0.76545    0.00099     0.76644
      H   30    0.23164      0.00000     0.76718    0.00118     0.76836
      H   31    0.23969      0.00000     0.75948    0.00082     0.76031
      H   32    0.25403      0.00000     0.74450    0.00146     0.74597
      H   33    0.25378      0.00000     0.74468    0.00153     0.74622
 =======================================================================
   * Total *    0.00000     29.98856    81.74276    0.26868   112.00000

 Normal termination of Gaussian 09 at Wed Sep 29 16:13:04 2021.
