 Gaussian 09, Revision A.02,

 -----------------------------------
 #p opt b3lyp/6-31G* scf=(xqc,tight)
 -----------------------------------

 --------------------------------
 CCN(C(=O)Oc1c(C)cccc1C)CC_conf_0
 --------------------------------
 Symbolic Z-matrix:
 Charge =  0 Multiplicity = 1

 SCF Done:  E(RB3LYP) =  -712.052905139     A.U. after   15 cycles
 SCF Done:  E(RB3LYP) =  -712.060409823     A.U. after   13 cycles
 SCF Done:  E(RB3LYP) =  -712.059843431     A.U. after   14 cycles
 SCF Done:  E(RB3LYP) =  -712.060943896     A.U. after   13 cycles
 SCF Done:  E(RB3LYP) =  -712.061483965     A.U. after   12 cycles
 SCF Done:  E(RB3LYP) =  -712.061794745     A.U. after   12 cycles
 SCF Done:  E(RB3LYP) =  -712.061940326     A.U. after   12 cycles
 SCF Done:  E(RB3LYP) =  -712.062106112     A.U. after   12 cycles
 SCF Done:  E(RB3LYP) =  -712.062263676     A.U. after   12 cycles
 SCF Done:  E(RB3LYP) =  -712.062283953     A.U. after   14 cycles
 SCF Done:  E(RB3LYP) =  -712.062429917     A.U. after   11 cycles
 SCF Done:  E(RB3LYP) =  -712.062439522     A.U. after   11 cycles
 SCF Done:  E(RB3LYP) =  -712.062439954     A.U. after    9 cycles
 SCF Done:  E(RB3LYP) =  -712.062439436     A.U. after   10 cycles
 SCF Done:  E(RB3LYP) =  -712.062437045     A.U. after    9 cycles
 SCF Done:  E(RB3LYP) =  -712.062438139     A.U. after    8 cycles
 SCF Done:  E(RB3LYP) =  -712.062438800     A.U. after    7 cycles
 SCF Done:  E(RB3LYP) =  -712.062438379     A.U. after    7 cycles
 Optimization completed.
    -- Stationary point found.
 Normal termination of Gaussian 09 at Thu Sep 30 03:25:10 2021.

 ----------------------------------------------------------------------
 #p freq b3lyp/6-31G* volume NMR pop=NPA density=current Geom=AllCheck
 Guess=Read
 ----------------------------------------------------------------------

 CCN(C(=O)Oc1c(C)cccc1C)CC_conf_0
 --------------------------------
 Redundant internal coordinates taken from checkpoint file:
 C13H19NO2_9fe9_conf_0.chk
 Charge =  0 Multiplicity = 1

 SCF Done:  E(RB3LYP) =  -712.062438379     A.U. after    1 cycles

  1  C    Isotropic =   172.0646   Anisotropy =    23.8098

  2  C    Isotropic =   142.7511   Anisotropy =    46.7963

  3  N    Isotropic =   158.8830   Anisotropy =    69.3050

  4  C    Isotropic =    47.1481   Anisotropy =    71.6885

  5  O    Isotropic =    54.6340   Anisotropy =   376.0214

  6  O    Isotropic =   142.9841   Anisotropy =   142.6844

  7  C    Isotropic =    45.5219   Anisotropy =    97.3305

  8  C    Isotropic =    63.9126   Anisotropy =   160.6206

  9  C    Isotropic =   170.8071   Anisotropy =    25.4651

 10  C    Isotropic =    67.3150   Anisotropy =   138.5788

 11  C    Isotropic =    71.2579   Anisotropy =   158.9660

 12  C    Isotropic =    67.3050   Anisotropy =   138.7243

 13  C    Isotropic =    63.5272   Anisotropy =   161.4489

 14  C    Isotropic =   171.1569   Anisotropy =    26.5145

 15  C    Isotropic =   141.6583   Anisotropy =    49.1959

 16  C    Isotropic =   173.1769   Anisotropy =    23.8048

 17  H    Isotropic =    31.2240   Anisotropy =    10.1898

 18  H    Isotropic =    30.7986   Anisotropy =     6.6147

 19  H    Isotropic =    30.5606   Anisotropy =     6.5959

 20  H    Isotropic =    29.4195   Anisotropy =     6.8950

 21  H    Isotropic =    28.0837   Anisotropy =     4.5321

 22  H    Isotropic =    29.8100   Anisotropy =     6.1577

 23  H    Isotropic =    30.4758   Anisotropy =     8.6219

 24  H    Isotropic =    29.7744   Anisotropy =     6.7209

 25  H    Isotropic =    25.2654   Anisotropy =     6.3255

 26  H    Isotropic =    25.2822   Anisotropy =     3.8498

 27  H    Isotropic =    25.2762   Anisotropy =     6.2300

 28  H    Isotropic =    30.5230   Anisotropy =     8.8495

 29  H    Isotropic =    29.8740   Anisotropy =     5.8972

 30  H    Isotropic =    29.8985   Anisotropy =     6.4221

 31  H    Isotropic =    29.6258   Anisotropy =     6.5657

 32  H    Isotropic =    28.1747   Anisotropy =     6.7145

 33  H    Isotropic =    31.0802   Anisotropy =     6.2809

 34  H    Isotropic =    31.3639   Anisotropy =    10.6372

 35  H    Isotropic =    30.2869   Anisotropy =     5.4390

  Exact polarizability: 186.053  -0.471 146.126  -9.258  -4.866 106.741
 Approx polarizability: 249.815   0.117 220.872 -21.751  -8.673 163.415

                     1                      2                      3
                     A                      A                      A
 Frequencies --     7.3731                39.3112                42.3079
 Red. masses --     3.6766                 3.0594                 3.2706
 Frc consts  --     0.0001                 0.0028                 0.0034
 IR Inten    --     0.4768                 0.3164                 0.5459

                     4                      5                      6
                     A                      A                      A
 Frequencies --    75.3745                80.7741               102.3132
 Red. masses --     3.4029                 3.2623                 4.0645
 Frc consts  --     0.0114                 0.0125                 0.0251
 IR Inten    --     0.4829                 0.4033                 1.6423

                     7                      8                      9
                     A                      A                      A
 Frequencies --   127.9846               134.7039               139.2905
 Red. masses --     1.5951                 1.8475                 2.3970
 Frc consts  --     0.0154                 0.0198                 0.0274
 IR Inten    --     1.1228                 0.0668                 2.2240

                    10                     11                     12
                     A                      A                      A
 Frequencies --   150.0503               205.9445               231.9669
 Red. masses --     1.0390                 2.1504                 2.6680
 Frc consts  --     0.0138                 0.0537                 0.0846
 IR Inten    --     0.3660                 1.0923                 0.1780

                    13                     14                     15
                     A                      A                      A
 Frequencies --   233.6250               248.8605               286.0514
 Red. masses --     1.2808                 1.4628                 2.0602
 Frc consts  --     0.0412                 0.0534                 0.0993
 IR Inten    --     2.0659                 1.0268                 1.9716

                    16                     17                     18
                     A                      A                      A
 Frequencies --   309.2380               325.5044               329.4964
 Red. masses --     3.7797                 3.4659                 3.4874
 Frc consts  --     0.2130                 0.2164                 0.2231
 IR Inten    --     2.5644                 1.0794                 3.6282

                    19                     20                     21
                     A                      A                      A
 Frequencies --   401.2234               439.6779               480.9418
 Red. masses --     2.8414                 3.1423                 3.2228
 Frc consts  --     0.2695                 0.3579                 0.4392
 IR Inten    --     8.4968                 3.0251                 3.7457

                    22                     23                     24
                     A                      A                      A
 Frequencies --   489.3710               521.0280               538.0204
 Red. masses --     3.6392                 3.2301                 4.1647
 Frc consts  --     0.5135                 0.5166                 0.7103
 IR Inten    --     0.6054                 0.0338                 2.3226

                    25                     26                     27
                     A                      A                      A
 Frequencies --   558.3215               565.5151               625.3573
 Red. masses --     5.4711                 4.4775                 3.6649
 Frc consts  --     1.0048                 0.8437                 0.8444
 IR Inten    --     0.2852                 3.8787                 3.7615

                    28                     29                     30
                     A                      A                      A
 Frequencies --   706.4443               733.2430               753.5002
 Red. masses --     5.0532                 4.3886                10.9031
 Frc consts  --     1.4858                 1.3902                 3.6473
 IR Inten    --     0.9963                 1.5440                20.6689

                    31                     32                     33
                     A                      A                      A
 Frequencies --   784.4380               787.9337               792.1632
 Red. masses --     1.2717                 1.1960                 1.2917
 Frc consts  --     0.4610                 0.4375                 0.4776
 IR Inten    --    25.8971                 1.6669                16.0750

                    34                     35                     36
                     A                      A                      A
 Frequencies --   838.7665               853.4243               900.0737
 Red. masses --     2.8589                 5.7656                 1.3012
 Frc consts  --     1.1851                 2.4742                 0.6211
 IR Inten    --     1.4678                 3.1822                 0.0146

                    37                     38                     39
                     A                      A                      A
 Frequencies --   937.6156               947.5227               965.1948
 Red. masses --     2.6250                 2.1962                 1.2857
 Frc consts  --     1.3597                 1.1617                 0.7057
 IR Inten    --     3.8104                 5.7323                 0.8630

                    40                     41                     42
                     A                      A                      A
 Frequencies --   976.0613              1019.1586              1062.3077
 Red. masses --     2.7295                 1.6018                 3.1736
 Frc consts  --     1.5321                 0.9803                 2.1101
 IR Inten    --    46.0778                 6.4364                11.5588

                    43                     44                     45
                     A                      A                      A
 Frequencies --  1068.4805              1074.9802              1077.2729
 Red. masses --     1.7780                 1.5195                 1.4905
 Frc consts  --     1.1959                 1.0346                 1.0191
 IR Inten    --     0.0094                 4.6736                 0.0974

                    46                     47                     48
                     A                      A                      A
 Frequencies --  1103.0722              1120.7140              1125.2636
 Red. masses --     1.9588                 1.7848                 1.6493
 Frc consts  --     1.4042                 1.3208                 1.2305
 IR Inten    --     9.8403                63.7777                19.9616

                    49                     50                     51
                     A                      A                      A
 Frequencies --  1126.0568              1191.7461              1199.2503
 Red. masses --     1.7102                 2.4815                 1.2064
 Frc consts  --     1.2776                 2.0765                 1.0222
 IR Inten    --    10.6667               192.9001                 0.4868

                    52                     53                     54
                     A                      A                      A
 Frequencies --  1206.3292              1264.4590              1292.8038
 Red. masses --     5.4401                 2.6566                 1.5972
 Frc consts  --     4.6643                 2.5026                 1.5728
 IR Inten    --   295.3507                26.1054                 0.0538

                    55                     56                     57
                     A                      A                      A
 Frequencies --  1299.8146              1318.8590              1349.5312
 Red. masses --     3.1841                 1.6164                 7.1072
 Frc consts  --     3.1695                 1.6565                 7.6263
 IR Inten    --    80.1893               193.3224                 1.4245

                    58                     59                     60
                     A                      A                      A
 Frequencies --  1367.0237              1403.5286              1420.5311
 Red. masses --     1.3676                 1.2332                 1.3245
 Frc consts  --     1.5058                 1.4312                 1.5747
 IR Inten    --    37.5495                15.0003                34.8394

                    61                     62                     63
                     A                      A                      A
 Frequencies --  1435.1742              1438.1358              1439.4777
 Red. masses --     1.2839                 1.2549                 1.2922
 Frc consts  --     1.5581                 1.5292                 1.5776
 IR Inten    --    32.4467                 7.1017                47.7971

                    64                     65                     66
                     A                      A                      A
 Frequencies --  1442.4052              1456.4792              1487.1945
 Red. masses --     1.2968                 1.7918                 2.0958
 Frc consts  --     1.5896                 2.2395                 2.7311
 IR Inten    --     4.9952               163.6212                 0.5538

                    67                     68                     69
                     A                      A                      A
 Frequencies --  1504.9985              1508.7420              1510.8988
 Red. masses --     1.0699                 1.2339                 1.0791
 Frc consts  --     1.4277                 1.6548                 1.4513
 IR Inten    --     4.9045                 1.4490                17.4473

                    70                     71                     72
                     A                      A                      A
 Frequencies --  1514.3849              1518.5488              1523.9715
 Red. masses --     1.3113                 1.0498                 1.1139
 Frc consts  --     1.7718                 1.4264                 1.5243
 IR Inten    --     0.4069                 1.7657                33.0602

                    73                     74                     75
                     A                      A                      A
 Frequencies --  1526.2263              1533.8923              1535.5553
 Red. masses --     1.0568                 1.0712                 1.3188
 Frc consts  --     1.4503                 1.4849                 1.8322
 IR Inten    --     1.2111                17.4131                16.1476

                    76                     77                     78
                     A                      A                      A
 Frequencies --  1539.2200              1542.3526              1648.8426
 Red. masses --     1.2156                 1.1636                 5.2507
 Frc consts  --     1.6969                 1.6309                 8.4106
 IR Inten    --    24.6113                 4.3363                 0.8945

                    79                     80                     81
                     A                      A                      A
 Frequencies --  1662.6678              1803.5417              3048.5544
 Red. masses --     7.6015                11.2377                 1.0365
 Frc consts  --    12.3812                21.5368                 5.6758
 IR Inten    --     0.4721               341.2081                31.8272

                    82                     83                     84
                     A                      A                      A
 Frequencies --  3049.5825              3054.7190              3058.1298
 Red. masses --     1.0365                 1.0361                 1.0369
 Frc consts  --     5.6792                 5.6965                 5.7136
 IR Inten    --    15.4090                13.0726                30.0806

                    85                     86                     87
                     A                      A                      A
 Frequencies --  3062.9203              3072.8178              3102.6878
 Red. masses --     1.0681                 1.0624                 1.1009
 Frc consts  --     5.9040                 5.9102                 6.2442
 IR Inten    --    10.0118                55.3823                13.3832

                    88                     89                     90
                     A                      A                      A
 Frequencies --  3104.7866              3112.8248              3119.2311
 Red. masses --     1.1010                 1.1037                 1.1022
 Frc consts  --     6.2533                 6.3008                 6.3182
 IR Inten    --    14.2597                11.0639                26.4269

                    91                     92                     93
                     A                      A                      A
 Frequencies --  3126.4782              3130.0962              3130.8754
 Red. masses --     1.1004                 1.1016                 1.1018
 Frc consts  --     6.3376                 6.3591                 6.3636
 IR Inten    --    35.8323                25.3955                23.7727

                    94                     95                     96
                     A                      A                      A
 Frequencies --  3131.7835              3147.8271              3151.4498
 Red. masses --     1.0981                 1.1010                 1.1033
 Frc consts  --     6.3455                 6.4276                 6.4558
 IR Inten    --    15.0330                15.3904                41.9056

                    97                     98                     99
                     A                      A                      A
 Frequencies --  3178.9498              3186.8962              3204.9156
 Red. masses --     1.0856                 1.0907                 1.0964
 Frc consts  --     6.4640                 6.5266                 6.6350
 IR Inten    --     0.1141                25.8954                31.3461

 - Thermochemistry -
 -------------------
 Temperature   298.150 Kelvin.  Pressure   1.00000 Atm.
 Atom     1 has atomic number  6 and mass  12.00000

 Molecular mass:   221.14158 amu.
 Principal axes and moments of inertia in atomic units:
                           1         2         3
     Eigenvalues --  1920.513995549.972485987.49510
           X            0.99996  -0.00924  -0.00159
           Y            0.00921   0.99977  -0.01942
           Z            0.00177   0.01941   0.99981
 This molecule is an asymmetric top.
 Rotational symmetry number  1.
 Warning -- assumption of classical behavior for rotation
           may cause significant error
 Rotational temperatures (Kelvin)      0.04510     0.01561     0.01447
 Rotational constants (GHZ):           0.93972     0.32518     0.30142
 Zero-point vibrational energy     792558.4 (Joules/Mol)
                                  189.42602 (Kcal/Mol)
 Warning -- explicit consideration of  26 degrees of freedom as
           vibrations may cause significant error
 Vibrational temperatures:     10.61    56.56    60.87   108.45   116.22
          (Kelvin)            147.21   184.14   193.81   200.41   215.89
                              296.31   333.75   336.13   358.05   411.56
                              444.92   468.33   474.07   577.27   632.60
                              691.97   704.09   749.64   774.09   803.30
                              813.65   899.75  1016.41  1054.97  1084.12
                             1128.63  1133.66  1139.74  1206.80  1227.89
                             1295.00  1349.02  1363.27  1388.70  1404.33
                             1466.34  1528.42  1537.30  1546.65  1549.95
                             1587.07  1612.46  1619.00  1620.14  1714.65
                             1725.45  1735.64  1819.27  1860.05  1870.14
                             1897.54  1941.67  1966.84  2019.36  2043.82
                             2064.89  2069.15  2071.08  2075.30  2095.55
                             2139.74  2165.35  2170.74  2173.84  2178.86
                             2184.85  2192.65  2195.90  2206.93  2209.32
                             2214.59  2219.10  2372.31  2392.21  2594.89
                             4386.18  4387.66  4395.05  4399.96  4406.85
                             4421.09  4464.07  4467.09  4478.66  4487.87
                             4498.30  4503.50  4504.63  4505.93  4529.02
                             4534.23  4573.79  4585.23  4611.15

 Zero-point correction=                           0.301870 (Hartree/Particle)
 Thermal correction to Energy=                    0.319301
 Thermal correction to Enthalpy=                  0.320245
 Thermal correction to Gibbs Free Energy=         0.254406
 Sum of electronic and zero-point Energies=           -711.760569
 Sum of electronic and thermal Energies=              -711.743137
 Sum of electronic and thermal Enthalpies=            -711.742193
 Sum of electronic and thermal Free Energies=         -711.808033

                     E (Thermal)             CV                S
                      KCal/Mol        Cal/Mol-Kelvin    Cal/Mol-Kelvin
 Total                  200.364             63.620            138.571
 Electronic               0.000              0.000              0.000
 Translational            0.889              2.981             42.084
 Rotational               0.889              2.981             32.523
 Vibrational            198.587             57.658             63.964
 Vibration     1          0.593              1.987              8.617
 Vibration     2          0.594              1.981              5.294
 Vibration     3          0.595              1.980              5.148
 Vibration     4          0.599              1.965              4.008
 Vibration     5          0.600              1.962              3.872
 Vibration     6          0.604              1.947              3.410
 Vibration     7          0.611              1.925              2.976
 Vibration     8          0.613              1.919              2.878
 Vibration     9          0.615              1.914              2.814
 Vibration    10          0.618              1.903              2.672
 Vibration    11          0.640              1.831              2.079
 Vibration    12          0.653              1.792              1.864
 Vibration    13          0.654              1.789              1.851
 Vibration    14          0.662              1.765              1.739
 Vibration    15          0.684              1.700              1.497
 Vibration    16          0.699              1.656              1.366
 Vibration    17          0.710              1.624              1.282
 Vibration    18          0.712              1.617              1.263
 Vibration    19          0.767              1.467              0.958
 Vibration    20          0.800              1.384              0.828
 Vibration    21          0.837              1.292              0.708
 Vibration    22          0.845              1.274              0.685
 Vibration    23          0.876              1.203              0.608
 Vibration    24          0.893              1.166              0.570
 Vibration    25          0.914              1.122              0.527
 Vibration    26          0.921              1.106              0.513

 Normal termination of Gaussian 09 at Thu Sep 30 04:44:04 2021.
 Gaussian 09:  AM64L-G09RevA.02 11-Jun-2009

 ----------------------------------------------------------------------
 #p TD(NStates=10, Root=1) b3lyp/6-31G* volume pop=NPA density=current
 Geom=AllCheck Guess=Read
 ----------------------------------------------------------------------

 CCN(C(=O)Oc1c(C)cccc1C)CC_conf_0
 --------------------------------
 Redundant internal coordinates taken from checkpoint file:
 C13H19NO2_9fe9_conf_0.chk
 Charge =  0 Multiplicity = 1

                         Standard orientation:
 ---------------------------------------------------------------------
 Center     Atomic      Atomic             Coordinates (Angstroms)
 Number     Number       Type             X           Y           Z
 ---------------------------------------------------------------------
      1          6           0       -2.859873    1.152472    1.871637
      2          6           0       -2.494363   -0.293843    1.521795
      3          7           0       -2.165471   -0.512069    0.109433
      4          6           0       -0.901282   -0.398255   -0.389290
      5          8           0       -0.588194   -0.567776   -1.553875
      6          8           0        0.001833   -0.066862    0.600322
      7          6           0        1.351845    0.029254    0.231275
      8          6           0        1.863935    1.296475   -0.065416
      9          6           0        0.962360    2.504890   -0.104429
     10          6           0        3.234543    1.392983   -0.331682
     11          6           0        4.050653    0.263360   -0.305089
     12          6           0        3.503898   -0.985031   -0.012434
     13          6           0        2.138720   -1.127117    0.260843
     14          6           0        1.527179   -2.471941    0.563658
     15          6           0       -3.228190   -0.814471   -0.858905
     16          6           0       -3.681370    0.387020   -1.693334
     17          1           0       -3.079556    1.236514    2.942615
     18          1           0       -3.742269    1.491164    1.318621
     19          1           0       -2.028600    1.825750    1.640056
     20          1           0       -3.329858   -0.960839    1.764303
     21          1           0       -1.641454   -0.614555    2.122337
     22          1           0        0.198823    2.401932   -0.884951
     23          1           0        1.537645    3.411705   -0.313832
     24          1           0        0.436253    2.646905    0.846925
     25          1           0        3.659140    2.366524   -0.564208
     26          1           0        5.113218    0.355772   -0.512939
     27          1           0        4.139222   -1.867219    0.004940
     28          1           0        2.299149   -3.244734    0.625192
     29          1           0        0.818105   -2.763717   -0.220459
     30          1           0        0.977518   -2.461591    1.512028
     31          1           0       -4.069058   -1.227210   -0.291531
     32          1           0       -2.858941   -1.599110   -1.525623
     33          1           0       -4.090811    1.185994   -1.066034
     34          1           0       -4.459144    0.078451   -2.401838
     35          1           0       -2.838523    0.785072   -2.264990
 ---------------------------------------------------------------------

 SCF Done:  E(RB3LYP) =  -712.062438379     A.U. after    1 cycles

 Excitation energies and oscillator strengths:

 Excited State   1:      Singlet-A      5.3356 eV  232.37 nm  f=0.0002  <S**2>=0.000
      59 -> 61         0.50248
      60 -> 62         0.49349
 This state for optimization and/or second-order correction.
 Total Energy, E(TD-HF/TD-KS) =  -711.866357264
 Copying the excited state density for this state as the 1-particle RhoCI density.

 Excited State   2:      Singlet-A      6.0055 eV  206.45 nm  f=0.0136  <S**2>=0.000
      58 -> 61        -0.20719
      59 -> 62        -0.40120
      60 -> 61         0.53327

 Excited State   3:      Singlet-A      6.0221 eV  205.88 nm  f=0.0002  <S**2>=0.000
      58 -> 61         0.67413
      59 -> 62        -0.12922
      60 -> 61         0.16228

 Excited State   4:      Singlet-A      6.1669 eV  201.05 nm  f=0.0001  <S**2>=0.000
      58 -> 62         0.70628

 Excited State   5:      Singlet-A      6.5629 eV  188.92 nm  f=0.0633  <S**2>=0.000
      57 -> 61         0.64839
      57 -> 63         0.10619
      59 -> 62        -0.22525

 Excited State   6:      Singlet-A      6.6813 eV  185.57 nm  f=0.0721  <S**2>=0.000
      57 -> 62         0.53819
      57 -> 63         0.25530
      59 -> 61         0.19277
      60 -> 62        -0.21946
      60 -> 63        -0.21008

 Excited State   7:      Singlet-A      6.7610 eV  183.38 nm  f=0.0195  <S**2>=0.000
      57 -> 61         0.10886
      57 -> 62         0.32092
      57 -> 63        -0.38561
      60 -> 63         0.45137

 Excited State   8:      Singlet-A      6.9124 eV  179.36 nm  f=0.6178  <S**2>=0.000
      56 -> 61         0.14276
      57 -> 61         0.19333
      57 -> 63         0.23129
      58 -> 63        -0.10193
      59 -> 61        -0.11029
      59 -> 62         0.44455
      60 -> 61         0.34668
      60 -> 62         0.11900
      60 -> 63         0.12865

 Excited State   9:      Singlet-A      6.9456 eV  178.51 nm  f=0.5084  <S**2>=0.000
      57 -> 62        -0.28779
      57 -> 63        -0.13156
      59 -> 61         0.39170
      59 -> 62         0.16986
      60 -> 61         0.14080
      60 -> 62        -0.38668
      60 -> 63        -0.10565

 Excited State  10:      Singlet-A      6.9755 eV  177.74 nm  f=0.1048  <S**2>=0.000
      57 -> 62        -0.13861
      57 -> 63         0.40427
      58 -> 63         0.13742
      59 -> 61         0.13250
      59 -> 62        -0.11264
      60 -> 62        -0.12617
      60 -> 63         0.45963

 The electronic state is 1-A.
 Alpha  occ. eigenvalues --  -19.18662 -19.11205 -14.36204 -10.32578 -10.23560
 Alpha  occ. eigenvalues --  -10.22602 -10.22128 -10.19280 -10.19266 -10.18343
 Alpha  occ. eigenvalues --  -10.18214 -10.18145 -10.18121 -10.17996 -10.17859
 Alpha  occ. eigenvalues --  -10.17611  -1.09849  -1.00725  -0.93669  -0.85066
 Alpha  occ. eigenvalues --   -0.77888  -0.77184  -0.75783  -0.73800  -0.69477
 Alpha  occ. eigenvalues --   -0.67491  -0.65231  -0.63832  -0.59972  -0.57747
 Alpha  occ. eigenvalues --   -0.54930  -0.52783  -0.48765  -0.48402  -0.47665
 Alpha  occ. eigenvalues --   -0.45337  -0.44492  -0.44202  -0.43244  -0.42067
 Alpha  occ. eigenvalues --   -0.41745  -0.40954  -0.40450  -0.40017  -0.39851
 Alpha  occ. eigenvalues --   -0.39252  -0.38578  -0.38095  -0.37170  -0.36556
 Alpha  occ. eigenvalues --   -0.36064  -0.34575  -0.34175  -0.33981  -0.33445
 Alpha  occ. eigenvalues --   -0.29495  -0.26712  -0.23959  -0.23332  -0.23139
 Alpha virt. eigenvalues --    0.00634   0.00946   0.05262   0.07949   0.09769
 Alpha virt. eigenvalues --    0.10215   0.10822   0.11784   0.12692   0.14173
 Alpha virt. eigenvalues --    0.14452   0.14747   0.15239   0.15738   0.16665

 Mulliken atomic charges:
              1
     1  C   -0.447361
     2  C   -0.137469
     3  N   -0.447069
     4  C    0.799354
     5  O   -0.522881
     6  O   -0.564568
     7  C    0.224199
     8  C    0.175957
     9  C   -0.536120
    10  C   -0.212921
    11  C   -0.115931
    12  C   -0.213321
    13  C    0.183710
    14  C   -0.538611
    15  C   -0.131629
    16  C   -0.449321
    17  H    0.146710
    18  H    0.151940
    19  H    0.165365
    20  H    0.144743
    21  H    0.176086
    22  H    0.174521
    23  H    0.153255
    24  H    0.164708
    25  H    0.125779
    26  H    0.128437
    27  H    0.125858
    28  H    0.153318
    29  H    0.180078
    30  H    0.160590
    31  H    0.138280
    32  H    0.174950
    33  H    0.145155
    34  H    0.144889
    35  H    0.179318
 Sum of Mulliken atomic charges =  -0.00000

 Dipole moment (field-independent basis, Debye):
    X=             -1.8205    Y=              0.1631    Z=              2.0213  Tot=              2.7251
 Quadrupole moment (field-independent basis, Debye-Ang):
   XX=            -84.5134   YY=            -91.2073   ZZ=           -100.5086
   XY=              0.9295   XZ=             -2.1650   YZ=             -2.2024

 Summary of Natural Population Analysis:

                                       Natural Population
                Natural  -----------------------------------------------
    Atom  No    Charge         Core      Valence    Rydberg      Total
 -----------------------------------------------------------------------
      C    1   -0.68607      1.99945     4.67928    0.00734     6.68607
      C    2   -0.25645      1.99934     4.24186    0.01525     6.25645
      N    3   -0.50300      1.99929     5.49060    0.01312     7.50300
      C    4    0.93909      1.99937     3.01524    0.04630     5.06091
      O    5   -0.64711      1.99977     6.62842    0.01892     8.64711
      O    6   -0.56659      1.99970     6.55681    0.01008     8.56659
      C    7    0.30596      1.99858     3.67123    0.02422     5.69404
      C    8   -0.04442      1.99897     4.02848    0.01697     6.04442
      C    9   -0.69254      1.99940     4.68491    0.00823     6.69254
      C   10   -0.21945      1.99908     4.20352    0.01685     6.21945
      C   11   -0.23237      1.99914     4.21491    0.01831     6.23237
      C   12   -0.22026      1.99908     4.20430    0.01688     6.22026
      C   13   -0.04255      1.99897     4.02662    0.01696     6.04255
      C   14   -0.69479      1.99940     4.68726    0.00813     6.69479
      C   15   -0.25239      1.99935     4.23757    0.01547     6.25239
      C   16   -0.68758      1.99945     4.68078    0.00735     6.68758
      H   17    0.23457      0.00000     0.76446    0.00096     0.76543
      H   18    0.22595      0.00000     0.77308    0.00097     0.77405
      H   19    0.23535      0.00000     0.76331    0.00134     0.76465
      H   20    0.22860      0.00000     0.76979    0.00161     0.77140
      H   21    0.25235      0.00000     0.74608    0.00157     0.74765
      H   22    0.24850      0.00000     0.74941    0.00209     0.75150
      H   23    0.23792      0.00000     0.76128    0.00080     0.76208
      H   24    0.24092      0.00000     0.75712    0.00196     0.75908
      H   25    0.22733      0.00000     0.77167    0.00100     0.77267
      H   26    0.23092      0.00000     0.76823    0.00085     0.76908
      H   27    0.22742      0.00000     0.77158    0.00100     0.77258
      H   28    0.23801      0.00000     0.76117    0.00082     0.76199
      H   29    0.25165      0.00000     0.74618    0.00217     0.74835
      H   30    0.24193      0.00000     0.75614    0.00193     0.75807
      H   31    0.22631      0.00000     0.77231    0.00138     0.77369
      H   32    0.25091      0.00000     0.74700    0.00209     0.74909
      H   33    0.22197      0.00000     0.77700    0.00104     0.77803
      H   34    0.23373      0.00000     0.76538    0.00089     0.76627
      H   35    0.24616      0.00000     0.75245    0.00139     0.75384
 =======================================================================
   * Total *    0.00000     31.98834    87.72543    0.28623   120.00000

 Normal termination of Gaussian 09 at Thu Sep 30 10:27:30 2021.
