 Gaussian 09, Revision A.02,

 -----------------------------------
 #p opt b3lyp/6-31G* scf=(xqc,tight)
 -----------------------------------

 ------------------------------
 CCCCc1ccc(cc1)OC(=O)COC_conf_0
 ------------------------------
 Symbolic Z-matrix:
 Charge =  0 Multiplicity = 1

 SCF Done:  E(RB3LYP) =  -731.884324702     A.U. after   15 cycles
 SCF Done:  E(RB3LYP) =  -731.889657850     A.U. after   14 cycles
 SCF Done:  E(RB3LYP) =  -731.890036086     A.U. after   12 cycles
 SCF Done:  E(RB3LYP) =  -731.889668820     A.U. after   12 cycles
 SCF Done:  E(RB3LYP) =  -731.890169424     A.U. after   11 cycles
 SCF Done:  E(RB3LYP) =  -731.890227722     A.U. after   11 cycles
 SCF Done:  E(RB3LYP) =  -731.890258649     A.U. after   11 cycles
 SCF Done:  E(RB3LYP) =  -731.890308371     A.U. after   11 cycles
 SCF Done:  E(RB3LYP) =  -731.890341432     A.U. after   11 cycles
 SCF Done:  E(RB3LYP) =  -731.890374312     A.U. after   11 cycles
 SCF Done:  E(RB3LYP) =  -731.890389508     A.U. after   10 cycles
 SCF Done:  E(RB3LYP) =  -731.890397694     A.U. after   12 cycles
 SCF Done:  E(RB3LYP) =  -731.890398934     A.U. after   11 cycles
 SCF Done:  E(RB3LYP) =  -731.890399497     A.U. after   10 cycles
 SCF Done:  E(RB3LYP) =  -731.890397290     A.U. after   10 cycles
 SCF Done:  E(RB3LYP) =  -731.890396005     A.U. after    8 cycles
 SCF Done:  E(RB3LYP) =  -731.890394395     A.U. after    9 cycles
 SCF Done:  E(RB3LYP) =  -731.890393648     A.U. after    8 cycles
 Optimization completed on the basis of negligible forces.
    -- Stationary point found.
 Normal termination of Gaussian 09 at Thu Sep 30 14:13:14 2021.

 ----------------------------------------------------------------------
 #p freq b3lyp/6-31G* volume NMR pop=NPA density=current Geom=AllCheck
 Guess=Read
 ----------------------------------------------------------------------

 CCCCc1ccc(cc1)OC(=O)COC_conf_0
 ------------------------------
 Redundant internal coordinates taken from checkpoint file:
 C13H18O3_94d6_conf_0.chk
 Charge =  0 Multiplicity = 1

 SCF Done:  E(RB3LYP) =  -731.890393648     A.U. after    1 cycles

  1  C    Isotropic =   173.6167   Anisotropy =    24.0671

  2  C    Isotropic =   163.0971   Anisotropy =    20.8052

  3  C    Isotropic =   150.8860   Anisotropy =    41.8962

  4  C    Isotropic =   150.6325   Anisotropy =    32.2062

  5  C    Isotropic =    56.5616   Anisotropy =   182.7032

  6  C    Isotropic =    67.3306   Anisotropy =   147.2615

  7  C    Isotropic =    73.6762   Anisotropy =   152.4600

  8  C    Isotropic =    47.0375   Anisotropy =   106.5415

  9  C    Isotropic =    75.6566   Anisotropy =   140.5778

 10  C    Isotropic =    67.1436   Anisotropy =   149.5815

 11  O    Isotropic =   102.9130   Anisotropy =   179.8478

 12  C    Isotropic =    31.3494   Anisotropy =    73.1034

 13  O    Isotropic =   -46.9195   Anisotropy =   554.2544

 14  C    Isotropic =   119.8738   Anisotropy =    69.0915

 15  O    Isotropic =   314.4652   Anisotropy =    28.2094

 16  C    Isotropic =   132.9420   Anisotropy =    79.3725

 17  H    Isotropic =    31.0319   Anisotropy =    10.0764

 18  H    Isotropic =    31.2410   Anisotropy =     7.8097

 19  H    Isotropic =    31.2447   Anisotropy =     7.7804

 20  H    Isotropic =    30.6164   Anisotropy =     6.1070

 21  H    Isotropic =    30.6203   Anisotropy =     6.1719

 22  H    Isotropic =    30.6238   Anisotropy =     4.0264

 23  H    Isotropic =    30.6109   Anisotropy =     4.1049

 24  H    Isotropic =    29.6447   Anisotropy =     4.6394

 25  H    Isotropic =    29.6698   Anisotropy =     4.7223

 26  H    Isotropic =    25.1370   Anisotropy =     7.4453

 27  H    Isotropic =    24.8541   Anisotropy =     8.3378

 28  H    Isotropic =    25.3820   Anisotropy =     6.4294

 29  H    Isotropic =    25.1163   Anisotropy =     7.4379

 30  H    Isotropic =    28.3278   Anisotropy =     5.4382

 31  H    Isotropic =    28.1877   Anisotropy =     5.2821

 32  H    Isotropic =    28.5193   Anisotropy =     8.7803

 33  H    Isotropic =    29.0758   Anisotropy =     8.5439

 34  H    Isotropic =    29.0940   Anisotropy =     8.3502

  Exact polarizability: 211.903  -2.378 126.481  -6.448 -16.972 105.781
 Approx polarizability: 248.290  -6.218 208.044 -14.198 -38.863 164.856

                     1                      2                      3
                     A                      A                      A
 Frequencies --     8.9565                22.6972                27.5499
 Red. masses --     3.0327                 4.7525                 4.4335
 Frc consts  --     0.0001                 0.0014                 0.0020
 IR Inten    --     0.5673                 1.4226                 0.7257

                     4                      5                      6
                     A                      A                      A
 Frequencies --    38.2445                65.8025                75.9987
 Red. masses --     2.4108                 2.7458                 2.4145
 Frc consts  --     0.0021                 0.0070                 0.0082
 IR Inten    --     6.9043                 0.4167                 0.6307

                     7                      8                      9
                     A                      A                      A
 Frequencies --    89.7972               107.2626               119.9174
 Red. masses --     3.0915                 3.7572                 2.2698
 Frc consts  --     0.0147                 0.0255                 0.0192
 IR Inten    --     0.6635                 0.2077                 0.0131

                    10                     11                     12
                     A                      A                      A
 Frequencies --   152.4465               196.4480               237.5852
 Red. masses --     4.8629                 4.0826                 1.1669
 Frc consts  --     0.0666                 0.0928                 0.0388
 IR Inten    --     1.1893                 1.0195                 3.0416

                    13                     14                     15
                     A                      A                      A
 Frequencies --   248.7889               264.0598               310.9411
 Red. masses --     1.1574                 3.5933                 3.8305
 Frc consts  --     0.0422                 0.1476                 0.2182
 IR Inten    --     0.0378                 2.3536                 3.9936

                    16                     17                     18
                     A                      A                      A
 Frequencies --   316.0796               342.5536               401.5124
 Red. masses --     3.3570                 3.9099                 3.7295
 Frc consts  --     0.1976                 0.2703                 0.3542
 IR Inten    --     0.6417                 0.2428                 3.1928

                    19                     20                     21
                     A                      A                      A
 Frequencies --   423.2647               434.6884               469.0037
 Red. masses --     3.0957                 3.6197                 7.1354
 Frc consts  --     0.3268                 0.4030                 0.9247
 IR Inten    --     0.0155                 0.2837                 0.4139

                    22                     23                     24
                     A                      A                      A
 Frequencies --   520.0331               556.2039               596.0175
 Red. masses --     4.6706                 2.8704                 3.4326
 Frc consts  --     0.7442                 0.5232                 0.7184
 IR Inten    --     7.7927                16.2379                 7.5919

                    25                     26                     27
                     A                      A                      A
 Frequencies --   650.8795               681.8465               738.9432
 Red. masses --     6.7034                 4.2493                 4.3494
 Frc consts  --     1.6732                 1.1640                 1.3993
 IR Inten    --     0.1605                13.3826                 1.2920

                    28                     29                     30
                     A                      A                      A
 Frequencies --   741.6741               791.4929               802.4686
 Red. masses --     1.0772                 3.3887                 1.1936
 Frc consts  --     0.3491                 1.2508                 0.4528
 IR Inten    --     1.9951                13.4350                 1.0032

                    31                     32                     33
                     A                      A                      A
 Frequencies --   836.7985               848.4833               861.7630
 Red. masses --     1.2753                 2.5897                 3.3077
 Frc consts  --     0.5262                 1.0985                 1.4473
 IR Inten    --     1.2969                12.0870                27.3867

                    34                     35                     36
                     A                      A                      A
 Frequencies --   918.0151               938.9795               945.4611
 Red. masses --     1.7804                 3.6436                 1.3227
 Frc consts  --     0.8840                 1.8928                 0.6966
 IR Inten    --     2.9225                25.0692                 1.5737

                    37                     38                     39
                     A                      A                      A
 Frequencies --   957.2680               960.0754              1016.1406
 Red. masses --     1.3487                 1.4104                 3.7620
 Frc consts  --     0.7282                 0.7660                 2.2886
 IR Inten    --     0.1809                 2.9204                 0.9175

                    40                     41                     42
                     A                      A                      A
 Frequencies --  1026.4547              1039.5617              1042.6670
 Red. masses --     4.3310                 2.4561                 2.1530
 Frc consts  --     2.6885                 1.5638                 1.3790
 IR Inten    --    22.5692                 1.3305                24.4135

                    43                     44                     45
                     A                      A                      A
 Frequencies --  1065.6750              1101.7933              1131.5594
 Red. masses --     2.4677                 1.3715                 2.1753
 Frc consts  --     1.6512                 0.9809                 1.6410
 IR Inten    --     0.7370                 2.1789                14.2108

                    46                     47                     48
                     A                      A                      A
 Frequencies --  1150.6657              1163.6133              1192.6752
 Red. masses --     1.2694                 3.4329                 1.2807
 Frc consts  --     0.9903                 2.7386                 1.0734
 IR Inten    --     6.9666               270.9436                 2.9822

                    49                     50                     51
                     A                      A                      A
 Frequencies --  1200.0014              1231.5713              1235.7304
 Red. masses --     1.3430                 1.9011                 3.9964
 Frc consts  --     1.1394                 1.6989                 3.5956
 IR Inten    --    38.8095                97.4212                24.6167

                    52                     53                     54
                     A                      A                      A
 Frequencies --  1245.9534              1248.5674              1269.6840
 Red. masses --     2.1309                 1.5326                 1.2163
 Frc consts  --     1.9490                 1.4077                 1.1553
 IR Inten    --    41.1465                 0.5491                79.7868

                    55                     56                     57
                     A                      A                      A
 Frequencies --  1294.8824              1296.8443              1320.9169
 Red. masses --     3.8817                 1.3557                 1.3295
 Frc consts  --     3.8347                 1.3434                 1.3667
 IR Inten    --   578.7792                 0.3124                 8.7440

                    58                     59                     60
                     A                      A                      A
 Frequencies --  1342.8329              1347.8970              1367.3279
 Red. masses --     1.3577                 1.2517                 2.4191
 Frc consts  --     1.4424                 1.3399                 2.6647
 IR Inten    --     3.0913                 3.0924                12.7883

                    61                     62                     63
                     A                      A                      A
 Frequencies --  1379.7333              1416.6148              1419.2436
 Red. masses --     1.4289                 1.5555                 1.4682
 Frc consts  --     1.6027                 1.8392                 1.7424
 IR Inten    --     1.3552                 0.7517                27.0160

                    64                     65                     66
                     A                      A                      A
 Frequencies --  1441.8182              1464.5054              1498.3876
 Red. masses --     1.2428                 2.8128                 1.1247
 Frc consts  --     1.5222                 3.5545                 1.4877
 IR Inten    --     1.5245                 2.5789                 8.6839

                    67                     68                     69
                     A                      A                      A
 Frequencies --  1513.7278              1515.9373              1517.7864
 Red. masses --     1.0810                 1.0476                 1.0717
 Frc consts  --     1.4593                 1.4184                 1.4546
 IR Inten    --     0.1911                 5.7176                 0.5795

                    70                     71                     72
                     A                      A                      A
 Frequencies --  1519.9816              1530.4140              1530.7533
 Red. masses --     1.0866                 1.0410                 1.0757
 Frc consts  --     1.4791                 1.4365                 1.4851
 IR Inten    --     9.1550                 5.9763                 1.0069

                    73                     74                     75
                     A                      A                      A
 Frequencies --  1541.9174              1543.5573              1556.7710
 Red. masses --     1.0881                 1.0857                 2.4709
 Frc consts  --     1.5242                 1.5240                 3.5282
 IR Inten    --     2.8790                 3.2188                92.5792

                    76                     77                     78
                     A                      A                      A
 Frequencies --  1642.5478              1667.1822              1833.5045
 Red. masses --     6.7493                 5.9200                12.5052
 Frc consts  --    10.7287                 9.6948                24.7687
 IR Inten    --     1.8953                 5.7189               218.2544

                    79                     80                     81
                     A                      A                      A
 Frequencies --  2973.6536              2993.8254              3018.5181
 Red. masses --     1.0628                 1.0404                 1.0925
 Frc consts  --     5.5370                 5.4942                 5.8651
 IR Inten    --    33.3643                74.2486                45.2116

                    82                     83                     84
                     A                      A                      A
 Frequencies --  3022.5049              3027.4152              3037.9815
 Red. masses --     1.0590                 1.0589                 1.0591
 Frc consts  --     5.6999                 5.7182                 5.7589
 IR Inten    --     5.9222                 5.8004                66.9987

                    85                     86                     87
                     A                      A                      A
 Frequencies --  3038.4384              3043.1560              3045.5619
 Red. masses --     1.1054                 1.0371                 1.1010
 Frc consts  --     6.0127                 5.6586                 6.0171
 IR Inten    --    58.7590                48.4531                 2.5432

                    88                     89                     90
                     A                      A                      A
 Frequencies --  3061.1829              3083.0293              3108.1868
 Red. masses --     1.1039                 1.1058                 1.1029
 Frc consts  --     6.0949                 6.1929                 6.2774
 IR Inten    --     2.8030                44.1683                62.8501

                    91                     92                     93
                     A                      A                      A
 Frequencies --  3112.1317              3146.3476              3181.4600
 Red. masses --     1.1020                 1.0967                 1.0895
 Frc consts  --     6.2886                 6.3967                 6.4971
 IR Inten    --    46.1891                26.2664                17.1242

                    94                     95                     96
                     A                      A                      A
 Frequencies --  3182.3802              3218.3642              3251.4464
 Red. masses --     1.0892                 1.0933                 1.0928
 Frc consts  --     6.4993                 6.6723                 6.8065
 IR Inten    --    14.9385                 5.3926                 2.2930

 - Thermochemistry -
 -------------------
 Temperature   298.150 Kelvin.  Pressure   1.00000 Atm.
 Atom     1 has atomic number  6 and mass  12.00000

 Molecular mass:   222.12559 amu.
 Principal axes and moments of inertia in atomic units:
                           1         2         3
     Eigenvalues --  1100.46576********************
           X            1.00000  -0.00142   0.00149
           Y            0.00144   0.99996  -0.00901
           Z           -0.00148   0.00901   0.99996
 This molecule is an asymmetric top.
 Rotational symmetry number  1.
 Warning -- assumption of classical behavior for rotation
           may cause significant error
 Rotational temperatures (Kelvin)      0.07871     0.00753     0.00722
 Rotational constants (GHZ):           1.63998     0.15686     0.15054
 Zero-point vibrational energy     760304.5 (Joules/Mol)
                                  181.71713 (Kcal/Mol)
 Warning -- explicit consideration of  24 degrees of freedom as
           vibrations may cause significant error
 Vibrational temperatures:     12.89    32.66    39.64    55.03    94.68
          (Kelvin)            109.35   129.20   154.33   172.53   219.34
                              282.64   341.83   357.95   379.92   447.37
                              454.77   492.86   577.69   608.98   625.42
                              674.79   748.21   800.25   857.54   936.47
                              981.02  1063.17  1067.10  1138.78  1154.57
                             1203.96  1220.78  1239.88  1320.82  1350.98
                             1360.31  1377.29  1381.33  1462.00  1476.84
                             1495.70  1500.16  1533.27  1585.23  1628.06
                             1655.55  1674.18  1715.99  1726.53  1771.95
                             1777.94  1792.65  1796.41  1826.79  1863.04
                             1865.87  1900.50  1932.03  1939.32  1967.28
                             1985.13  2038.19  2041.97  2074.45  2107.09
                             2155.84  2177.91  2181.09  2183.75  2186.91
                             2201.92  2202.41  2218.47  2220.83  2239.84
                             2363.26  2398.70  2638.00  4278.42  4307.44
                             4342.97  4348.70  4355.77  4370.97  4371.63
                             4378.42  4381.88  4404.35  4435.79  4471.98
                             4477.66  4526.89  4577.41  4578.73  4630.50
                             4678.10

 Zero-point correction=                           0.289585 (Hartree/Particle)
 Thermal correction to Energy=                    0.306780
 Thermal correction to Enthalpy=                  0.307724
 Thermal correction to Gibbs Free Energy=         0.239940
 Sum of electronic and zero-point Energies=           -731.600809
 Sum of electronic and thermal Energies=              -731.583614
 Sum of electronic and thermal Enthalpies=            -731.582670
 Sum of electronic and thermal Free Energies=         -731.650454

                     E (Thermal)             CV                S
                      KCal/Mol        Cal/Mol-Kelvin    Cal/Mol-Kelvin
 Total                  192.507             61.185            142.663
 Electronic               0.000              0.000              0.000
 Translational            0.889              2.981             42.097
 Rotational               0.889              2.981             33.384
 Vibrational            190.730             55.224             67.183
 Vibration     1          0.593              1.987              8.230
 Vibration     2          0.593              1.985              6.383
 Vibration     3          0.593              1.984              5.998
 Vibration     4          0.594              1.982              5.348
 Vibration     5          0.597              1.971              4.275
 Vibration     6          0.599              1.965              3.992
 Vibration     7          0.602              1.956              3.664
 Vibration     8          0.606              1.943              3.318
 Vibration     9          0.609              1.933              3.102
 Vibration    10          0.619              1.900              2.641
 Vibration    11          0.636              1.845              2.166
 Vibration    12          0.656              1.783              1.821
 Vibration    13          0.662              1.765              1.739
 Vibration    14          0.671              1.739              1.635
 Vibration    15          0.700              1.653              1.357
 Vibration    16          0.703              1.643              1.330
 Vibration    17          0.722              1.590              1.200
 Vibration    18          0.767              1.467              0.957
 Vibration    19          0.785              1.420              0.881
 Vibration    20          0.795              1.395              0.843
 Vibration    21          0.826              1.319              0.740
 Vibration    22          0.875              1.206              0.610
 Vibration    23          0.912              1.126              0.531
 Vibration    24          0.954              1.040              0.457

 Optimization completed on the basis of negligible forces.
    -- Stationary point found.
 Normal termination of Gaussian 09 at Thu Sep 30 15:13:28 2021.
 Gaussian 09:  AM64L-G09RevA.02 11-Jun-2009

 ----------------------------------------------------------------------
 #p TD(NStates=10, Root=1) b3lyp/6-31G* volume pop=NPA density=current
 Geom=AllCheck Guess=Read
 ----------------------------------------------------------------------

 CCCCc1ccc(cc1)OC(=O)COC_conf_0
 ------------------------------
 Redundant internal coordinates taken from checkpoint file:
 C13H18O3_94d6_conf_0.chk
 Charge =  0 Multiplicity = 1

                         Standard orientation:
 ---------------------------------------------------------------------
 Center     Atomic      Atomic             Coordinates (Angstroms)
 Number     Number       Type             X           Y           Z
 ---------------------------------------------------------------------
      1          6           0       -6.548566   -1.027160   -1.059630
      2          6           0       -5.741232   -0.176537   -0.073656
      3          6           0       -4.225359   -0.322523   -0.253653
      4          6           0       -3.410338    0.531747    0.738357
      5          6           0       -1.914439    0.392732    0.553809
      6          6           0       -1.210517    1.247586   -0.304476
      7          6           0        0.161415    1.110265   -0.516643
      8          6           0        0.843364    0.094931    0.151341
      9          6           0        0.173756   -0.774054    1.009242
     10          6           0       -1.197170   -0.619750    1.205335
     11          8           0        2.202289   -0.176473   -0.048406
     12          6           0        3.120772    0.816241   -0.061064
     13          8           0        2.892454    1.996460    0.060980
     14          6           0        4.530659    0.291213   -0.291186
     15          8           0        4.620331   -1.101044   -0.151384
     16          6           0        5.927145   -1.580569   -0.398204
     17          1           0       -7.626506   -0.900492   -0.907447
     18          1           0       -6.318642   -2.093481   -0.944216
     19          1           0       -6.323885   -0.751636   -2.097330
     20          1           0       -6.012642   -0.451473    0.955665
     21          1           0       -6.019698    0.880828   -0.188514
     22          1           0       -3.947093   -0.044312   -1.279945
     23          1           0       -3.939792   -1.377690   -0.137953
     24          1           0       -3.683948    0.246369    1.763008
     25          1           0       -3.698867    1.584970    0.622817
     26          1           0       -1.743652    2.044467   -0.818226
     27          1           0        0.690175    1.787965   -1.174433
     28          1           0        0.733252   -1.557424    1.510601
     29          1           0       -1.716522   -1.296993    1.879732
     30          1           0        5.185267    0.823342    0.417879
     31          1           0        4.831187    0.618116   -1.303106
     32          1           0        5.897080   -2.664982   -0.269226
     33          1           0        6.658560   -1.154621    0.307210
     34          1           0        6.258194   -1.349229   -1.423457
 ---------------------------------------------------------------------

 SCF Done:  E(RB3LYP) =  -731.890393648     A.U. after    1 cycles

 Excitation energies and oscillator strengths:

 Excited State   1:      Singlet-A      5.2486 eV  236.22 nm  f=0.0036  <S**2>=0.000
      59 -> 61        -0.43838
      59 -> 63         0.13384
      60 -> 62         0.52981
 This state for optimization and/or second-order correction.
 Total Energy, E(TD-HF/TD-KS) =  -731.697511871
 Copying the excited state density for this state as the 1-particle RhoCI density.

 Excited State   2:      Singlet-A      5.4372 eV  228.03 nm  f=0.2421  <S**2>=0.000
      59 -> 62         0.12288
      60 -> 61         0.66397
      60 -> 63         0.15624

 Excited State   3:      Singlet-A      5.6210 eV  220.57 nm  f=0.0095  <S**2>=0.000
      57 -> 61         0.55750
      57 -> 63         0.25368
      58 -> 61         0.13690
      59 -> 61        -0.18014
      59 -> 63        -0.17139
      60 -> 61         0.10139
      60 -> 62        -0.15568

 Excited State   4:      Singlet-A      6.1871 eV  200.39 nm  f=0.0105  <S**2>=0.000
      57 -> 61        -0.12426
      58 -> 61         0.66853
      58 -> 63         0.15055

 Excited State   5:      Singlet-A      6.2346 eV  198.86 nm  f=0.0144  <S**2>=0.000
      57 -> 61        -0.11168
      59 -> 61        -0.21144
      59 -> 62        -0.34465
      59 -> 63        -0.16874
      60 -> 62        -0.12974
      60 -> 63         0.50801

 Excited State   6:      Singlet-A      6.2646 eV  197.91 nm  f=0.0341  <S**2>=0.000
      57 -> 61         0.24933
      59 -> 61         0.40278
      59 -> 62        -0.16688
      59 -> 63         0.32583
      60 -> 62         0.22319
      60 -> 63         0.27563

 Excited State   7:      Singlet-A      6.6528 eV  186.36 nm  f=0.0857  <S**2>=0.000
      57 -> 62         0.37569
      58 -> 62         0.54757
      59 -> 62        -0.16952
      60 -> 63        -0.12354

 Excited State   8:      Singlet-A      6.7532 eV  183.59 nm  f=0.1062  <S**2>=0.000
      57 -> 62         0.49754
      58 -> 62        -0.43284
      59 -> 62        -0.18224
      60 -> 63        -0.12665

 Excited State   9:      Singlet-A      6.9210 eV  179.14 nm  f=0.0402  <S**2>=0.000
      56 -> 61         0.17268
      57 -> 61        -0.21835
      57 -> 63         0.43895
      58 -> 63         0.22441
      59 -> 61         0.15423
      59 -> 63        -0.30928
      60 -> 62         0.16822

 Excited State  10:      Singlet-A      7.0044 eV  177.01 nm  f=0.6689  <S**2>=0.000
      56 -> 61         0.16768
      57 -> 62         0.29795
      57 -> 63        -0.16133
      58 -> 63         0.13048
      59 -> 62         0.46668
      60 -> 61        -0.13611
      60 -> 63         0.25497

 The electronic state is 1-A.
 Alpha  occ. eigenvalues --  -19.20295 -19.15986 -19.13998 -10.32392 -10.25215
 Alpha  occ. eigenvalues --  -10.24836 -10.23585 -10.19312 -10.19013 -10.18984
 Alpha  occ. eigenvalues --  -10.18920 -10.18860 -10.18569 -10.18078 -10.18054
 Alpha  occ. eigenvalues --  -10.17316  -1.11157  -1.04549  -1.02608  -0.85737
 Alpha  occ. eigenvalues --   -0.80143  -0.77249  -0.74905  -0.74713  -0.70953
 Alpha  occ. eigenvalues --   -0.66888  -0.64889  -0.61870  -0.60595  -0.57829
 Alpha  occ. eigenvalues --   -0.56207  -0.51358  -0.50150  -0.49632  -0.48357
 Alpha  occ. eigenvalues --   -0.47604  -0.46508  -0.45886  -0.44326  -0.43571
 Alpha  occ. eigenvalues --   -0.42830  -0.42456  -0.42147  -0.40686  -0.39795
 Alpha  occ. eigenvalues --   -0.39091  -0.38034  -0.36578  -0.35811  -0.35113
 Alpha  occ. eigenvalues --   -0.34130  -0.33493  -0.33167  -0.32400  -0.32218
 Alpha  occ. eigenvalues --   -0.31269  -0.27759  -0.26603  -0.24932  -0.23046
 Alpha virt. eigenvalues --   -0.01012  -0.00078   0.02180   0.07759   0.08897
 Alpha virt. eigenvalues --    0.10132   0.12079   0.12294   0.13217   0.13690
 Alpha virt. eigenvalues --    0.13967   0.14992   0.15750   0.16035   0.16293

 Mulliken atomic charges:
              1
     1  C   -0.442356
     2  C   -0.246551
     3  C   -0.242257
     4  C   -0.351665
     5  C    0.184677
     6  C   -0.202313
     7  C   -0.145377
     8  C    0.335303
     9  C   -0.162675
    10  C   -0.201287
    11  O   -0.476498
    12  C    0.571572
    13  O   -0.457610
    14  C   -0.095299
    15  O   -0.448101
    16  C   -0.194453
    17  H    0.144460
    18  H    0.143788
    19  H    0.143979
    20  H    0.132569
    21  H    0.132822
    22  H    0.137784
    23  H    0.137632
    24  H    0.142830
    25  H    0.143327
    26  H    0.132503
    27  H    0.158382
    28  H    0.151068
    29  H    0.129550
    30  H    0.157899
    31  H    0.151655
    32  H    0.165310
    33  H    0.134967
    34  H    0.134365
 Sum of Mulliken atomic charges =  -0.00000

 Dipole moment (field-independent basis, Debye):
    X=             -0.2308    Y=             -1.3534    Z=             -0.4779  Tot=              1.4538
 Quadrupole moment (field-independent basis, Debye-Ang):
   XX=            -73.9488   YY=            -99.5390   ZZ=            -94.1612
   XY=             -6.0813   XZ=             -3.6096   YZ=             -3.6541

 Summary of Natural Population Analysis:

                                       Natural Population
                Natural  -----------------------------------------------
    Atom  No    Charge         Core      Valence    Rydberg      Total
 -----------------------------------------------------------------------
      C    1   -0.67286      1.99946     4.66589    0.00751     6.67286
      C    2   -0.45446      1.99935     4.44514    0.00997     6.45446
      C    3   -0.44309      1.99931     4.43287    0.01091     6.44309
      C    4   -0.47210      1.99928     4.45963    0.01319     6.47210
      C    5   -0.00540      1.99906     3.98846    0.01787     6.00540
      C    6   -0.21740      1.99907     4.20125    0.01708     6.21740
      C    7   -0.27691      1.99904     4.25963    0.01824     6.27691
      C    8    0.31066      1.99872     3.66751    0.02310     5.68934
      C    9   -0.24932      1.99904     4.23158    0.01871     6.24932
      C   10   -0.23902      1.99906     4.22273    0.01723     6.23902
      O   11   -0.49921      1.99969     6.48732    0.01220     8.49921
      C   12    0.77871      1.99944     3.17823    0.04362     5.22129
      O   13   -0.58166      1.99979     6.56147    0.02041     8.58166
      C   14   -0.19242      1.99921     4.17525    0.01796     6.19242
      O   15   -0.55928      1.99979     6.54624    0.01325     8.55928
      C   16   -0.31041      1.99946     4.29657    0.01439     6.31041
      H   17    0.23323      0.00000     0.76595    0.00083     0.76677
      H   18    0.22548      0.00000     0.77345    0.00107     0.77452
      H   19    0.22559      0.00000     0.77334    0.00107     0.77441
      H   20    0.22691      0.00000     0.77142    0.00167     0.77309
      H   21    0.22703      0.00000     0.77130    0.00167     0.77297
      H   22    0.23117      0.00000     0.76695    0.00188     0.76883
      H   23    0.23093      0.00000     0.76722    0.00185     0.76907
      H   24    0.23964      0.00000     0.75819    0.00217     0.76036
      H   25    0.23964      0.00000     0.75837    0.00199     0.76036
      H   26    0.23076      0.00000     0.76819    0.00104     0.76924
      H   27    0.25340      0.00000     0.74540    0.00120     0.74660
      H   28    0.24599      0.00000     0.75288    0.00113     0.75401
      H   29    0.23051      0.00000     0.76845    0.00104     0.76949
      H   30    0.22233      0.00000     0.77499    0.00268     0.77767
      H   31    0.21676      0.00000     0.78020    0.00304     0.78324
      H   32    0.22382      0.00000     0.77559    0.00060     0.77618
      H   33    0.19065      0.00000     0.80737    0.00198     0.80935
      H   34    0.19032      0.00000     0.80766    0.00202     0.80968
 =======================================================================
   * Total *    0.00000     31.98877    87.70669    0.30455   120.00000

 Normal termination of Gaussian 09 at Thu Sep 30 20:18:22 2021.
