 Gaussian 09, Revision A.02,

 -----------------------------------
 #p opt b3lyp/6-31G* scf=(xqc,tight)
 -----------------------------------

 ----------------------------------
 COc1ccc2c(c1)ccc(c2)OC(=O)C_conf_0
 ----------------------------------
 Symbolic Z-matrix:
 Charge =  0 Multiplicity = 1

 SCF Done:  E(RB3LYP) =  -728.284109455     A.U. after   15 cycles
 SCF Done:  E(RB3LYP) =  -728.289646840     A.U. after   12 cycles
 SCF Done:  E(RB3LYP) =  -728.289497319     A.U. after   13 cycles
 SCF Done:  E(RB3LYP) =  -728.289980899     A.U. after   12 cycles
 SCF Done:  E(RB3LYP) =  -728.290072498     A.U. after   11 cycles
 SCF Done:  E(RB3LYP) =  -728.290241440     A.U. after   11 cycles
 SCF Done:  E(RB3LYP) =  -728.290356943     A.U. after   11 cycles
 SCF Done:  E(RB3LYP) =  -728.290529625     A.U. after   13 cycles
 SCF Done:  E(RB3LYP) =  -728.290557309     A.U. after   11 cycles
 SCF Done:  E(RB3LYP) =  -728.290567973     A.U. after   10 cycles
 SCF Done:  E(RB3LYP) =  -728.290579888     A.U. after   10 cycles
 SCF Done:  E(RB3LYP) =  -728.290594451     A.U. after   10 cycles
 SCF Done:  E(RB3LYP) =  -728.290612695     A.U. after   10 cycles
 SCF Done:  E(RB3LYP) =  -728.290616795     A.U. after   10 cycles
 SCF Done:  E(RB3LYP) =  -728.290617410     A.U. after    8 cycles
 SCF Done:  E(RB3LYP) =  -728.290617392     A.U. after    6 cycles
 Optimization completed.
    -- Stationary point found.
 Normal termination of Gaussian 09 at Wed Sep 29 03:42:50 2021.

 ----------------------------------------------------------------------
 #p freq b3lyp/6-31G* volume NMR pop=NPA density=current Geom=AllCheck
 Guess=Read
 ----------------------------------------------------------------------

 COc1ccc2c(c1)ccc(c2)OC(=O)C_conf_0
 ----------------------------------
 Redundant internal coordinates taken from checkpoint file:
 C13H12O3_94e5_conf_0.chk
 Charge =  0 Multiplicity = 1

 SCF Done:  E(RB3LYP) =  -728.290617392     A.U. after    1 cycles

  1  C    Isotropic =   137.3415   Anisotropy =    65.1704

  2  O    Isotropic =   240.4586   Anisotropy =    70.6838

  3  C    Isotropic =    41.3082   Anisotropy =   122.4636

  4  C    Isotropic =    84.2833   Anisotropy =   146.0615

  5  C    Isotropic =    66.6156   Anisotropy =   144.1183

  6  C    Isotropic =    68.0909   Anisotropy =   187.2952

  7  C    Isotropic =    64.3786   Anisotropy =   192.9521

  8  C    Isotropic =    81.9513   Anisotropy =   114.2385

  9  C    Isotropic =    68.2271   Anisotropy =   140.0208

 10  C    Isotropic =    72.6577   Anisotropy =   149.2748

 11  C    Isotropic =    48.4462   Anisotropy =   103.0816

 12  C    Isotropic =    77.9605   Anisotropy =   120.5549

 13  O    Isotropic =   103.8143   Anisotropy =   155.6514

 14  C    Isotropic =    30.4537   Anisotropy =    74.7258

 15  O    Isotropic =   -79.8463   Anisotropy =   565.5325

 16  C    Isotropic =   169.0410   Anisotropy =    39.6705

 17  H    Isotropic =    28.2089   Anisotropy =     8.2744

 18  H    Isotropic =    28.5180   Anisotropy =     8.3160

 19  H    Isotropic =    28.5192   Anisotropy =     8.3161

 20  H    Isotropic =    25.3601   Anisotropy =     7.9912

 21  H    Isotropic =    24.6373   Anisotropy =     7.6109

 22  H    Isotropic =    25.1744   Anisotropy =     8.0709

 23  H    Isotropic =    24.7203   Anisotropy =     7.1718

 24  H    Isotropic =    24.8429   Anisotropy =     7.9907

 25  H    Isotropic =    25.1591   Anisotropy =     8.2045

 26  H    Isotropic =    29.9631   Anisotropy =     5.5284

 27  H    Isotropic =    29.9786   Anisotropy =     6.1215

 28  H    Isotropic =    30.5281   Anisotropy =     7.6009

  Exact polarizability: 251.587   8.005 138.848  -6.951  -1.599  67.737
 Approx polarizability: 351.974  13.954 253.022 -14.587   0.334 108.418

                     1                      2                      3
                     A                      A                      A
 Frequencies --    29.4812                47.3094                63.5604
 Red. masses --     5.6413                 2.6882                 2.4513
 Frc consts  --     0.0029                 0.0035                 0.0058
 IR Inten    --     0.7875                 3.4716                 0.8610

                     4                      5                      6
                     A                      A                      A
 Frequencies --    80.2322                86.8979               138.2841
 Red. masses --     2.2588                 2.1391                 5.9877
 Frc consts  --     0.0086                 0.0095                 0.0675
 IR Inten    --     0.9780                 1.2858                 4.2371

                     7                      8                      9
                     A                      A                      A
 Frequencies --   184.7795               197.4455               233.5213
 Red. masses --     3.1460                 4.0998                 2.4618
 Frc consts  --     0.0633                 0.0942                 0.0791
 IR Inten    --     0.5830                 3.5316                 1.4650

                    10                     11                     12
                     A                      A                      A
 Frequencies --   265.8870               277.1059               310.3735
 Red. masses --     2.3602                 2.4276                 4.4382
 Frc consts  --     0.0983                 0.1098                 0.2519
 IR Inten    --     1.0276                 0.2341                 0.5419

                    13                     14                     15
                     A                      A                      A
 Frequencies --   381.5952               404.9938               416.9816
 Red. masses --     4.1864                 5.3383                 3.4532
 Frc consts  --     0.3592                 0.5159                 0.3538
 IR Inten    --     0.4891                 2.2719                 0.1188

                    16                     17                     18
                     A                      A                      A
 Frequencies --   455.4865               487.1013               525.8656
 Red. masses --     4.8514                 2.7002                 4.6932
 Frc consts  --     0.5930                 0.3775                 0.7647
 IR Inten    --     2.8186                 8.4756                15.0911

                    19                     20                     21
                     A                      A                      A
 Frequencies --   535.3592               569.6870               590.4716
 Red. masses --     5.9962                 3.1202                 4.4881
 Frc consts  --     1.0126                 0.5966                 0.9220
 IR Inten    --     4.5406                 3.3566                 3.3897

                    22                     23                     24
                     A                      A                      A
 Frequencies --   595.7657               649.8324               674.6225
 Red. masses --     3.0770                 4.7275                 4.5684
 Frc consts  --     0.6435                 1.1762                 1.2250
 IR Inten    --     5.3605                 3.4238                 1.9784

                    25                     26                     27
                     A                      A                      A
 Frequencies --   727.3605               753.8684               775.7154
 Red. masses --     5.3268                 3.4023                 5.2807
 Frc consts  --     1.6604                 1.1392                 1.8722
 IR Inten    --    18.2020                 1.4664                 1.4175

                    28                     29                     30
                     A                      A                      A
 Frequencies --   809.2578               815.0175               833.4323
 Red. masses --     1.4963                 1.9225                 2.6545
 Frc consts  --     0.5774                 0.7524                 1.0864
 IR Inten    --    17.5563                12.1078                 0.8198

                    31                     32                     33
                     A                      A                      A
 Frequencies --   883.4649               890.5033               915.6215
 Red. masses --     1.5266                 1.8153                 3.4216
 Frc consts  --     0.7020                 0.8481                 1.6901
 IR Inten    --    10.1195                25.0584                29.5465

                    34                     35                     36
                     A                      A                      A
 Frequencies --   948.6771               956.1001               965.0746
 Red. masses --     1.3128                 1.3527                 4.2689
 Frc consts  --     0.6961                 0.7285                 2.3426
 IR Inten    --     1.2426                 5.0804                10.4949

                    37                     38                     39
                     A                      A                      A
 Frequencies --   991.8607              1031.8474              1074.0595
 Red. masses --     3.3254                 1.7850                 1.7349
 Frc consts  --     1.9275                 1.1197                 1.1792
 IR Inten    --    10.0839               105.5347                 7.4076

                    40                     41                     42
                     A                      A                      A
 Frequencies --  1081.1919              1162.2298              1183.3954
 Red. masses --     3.5322                 1.6748                 1.2676
 Frc consts  --     2.4328                 1.3329                 1.0459
 IR Inten    --    49.6561                97.7223                 0.7292

                    43                     44                     45
                     A                      A                      A
 Frequencies --  1185.6039              1191.8685              1203.7992
 Red. masses --     1.5531                 1.3520                 1.5880
 Frc consts  --     1.2862                 1.1316                 1.3559
 IR Inten    --    25.7059                35.7393                72.7763

                    46                     47                     48
                     A                      A                      A
 Frequencies --  1219.9445              1249.3757              1275.4437
 Red. masses --     1.7051                 4.3541                 2.2973
 Frc consts  --     1.4951                 4.0044                 2.2018
 IR Inten    --     0.1775               831.9257                97.2216

                    49                     50                     51
                     A                      A                      A
 Frequencies --  1292.5591              1316.6802              1385.1038
 Red. masses --     1.8014                 3.1274                 2.1471
 Frc consts  --     1.7732                 3.1945                 2.4270
 IR Inten    --     7.4083               292.4072                21.3792

                    52                     53                     54
                     A                      A                      A
 Frequencies --  1409.8662              1421.8698              1426.7760
 Red. masses --     4.0240                 1.6094                 2.9989
 Frc consts  --     4.7126                 1.9171                 3.5968
 IR Inten    --    23.5605                62.4379                 1.0364

                    55                     56                     57
                     A                      A                      A
 Frequencies --  1462.8682              1500.1518              1500.8843
 Red. masses --     4.2647                 1.0635                 1.2256
 Frc consts  --     5.3771                 1.4101                 1.6266
 IR Inten    --     0.1603                 9.8008                11.0420

                    58                     59                     60
                     A                      A                      A
 Frequencies --  1504.0906              1523.0741              1532.0578
 Red. masses --     1.0468                 1.0487                 1.6955
 Frc consts  --     1.3952                 1.4334                 2.3448
 IR Inten    --     8.1695                 5.1212                12.5290

                    61                     62                     63
                     A                      A                      A
 Frequencies --  1537.5103              1563.5454              1624.0299
 Red. masses --     1.3050                 3.4637                 7.4033
 Frc consts  --     1.8176                 4.9889                11.5043
 IR Inten    --    35.4117                86.0875                 0.1573

                    64                     65                     66
                     A                      A                      A
 Frequencies --  1667.5590              1693.5084              1850.1088
 Red. masses --     5.8655                 6.5273                11.5238
 Frc consts  --     9.6099                11.0295                23.2402
 IR Inten    --   156.2226                21.1630               217.5537

                    67                     68                     69
                     A                      A                      A
 Frequencies --  3024.6460              3072.5603              3083.5204
 Red. masses --     1.0349                 1.0371                 1.1068
 Frc consts  --     5.5781                 5.7684                 6.2002
 IR Inten    --    73.2690                 2.0889                45.2216

                    70                     71                     72
                     A                      A                      A
 Frequencies --  3134.6724              3156.0893              3184.9087
 Red. masses --     1.1006                 1.0995                 1.1034
 Frc consts  --     6.3716                 6.4525                 6.5943
 IR Inten    --     5.1395                29.6561                 8.6964

                    73                     74                     75
                     A                      A                      A
 Frequencies --  3185.7128              3191.6406              3204.7176
 Red. masses --     1.0891                 1.0896                 1.0912
 Frc consts  --     6.5124                 6.5393                 6.6030
 IR Inten    --     9.7107                 9.5399                12.8311

                    76                     77                     78
                     A                      A                      A
 Frequencies --  3205.6457              3227.6272              3240.7363
 Red. masses --     1.0904                 1.0915                 1.0933
 Frc consts  --     6.6022                 6.6995                 6.7653
 IR Inten    --     2.6933                13.8254                 4.9822

 - Thermochemistry -
 -------------------
 Temperature   298.150 Kelvin.  Pressure   1.00000 Atm.
 Atom     1 has atomic number  6 and mass  12.00000

 Molecular mass:   216.07864 amu.
 Principal axes and moments of inertia in atomic units:
                           1         2         3
     Eigenvalues --   870.564448354.658418967.92217
           X            0.99999   0.00061  -0.00403
           Y           -0.00068   0.99987  -0.01612
           Z            0.00402   0.01612   0.99986
 This molecule is an asymmetric top.
 Rotational symmetry number  1.
 Warning -- assumption of classical behavior for rotation
           may cause significant error
 Rotational temperatures (Kelvin)      0.09949     0.01037     0.00966
 Rotational constants (GHZ):           2.07307     0.21602     0.20124
 Zero-point vibrational energy     582892.8 (Joules/Mol)
                                  139.31473 (Kcal/Mol)
 Warning -- explicit consideration of  22 degrees of freedom as
           vibrations may cause significant error
 Vibrational temperatures:     42.42    68.07    91.45   115.44   125.03
          (Kelvin)            198.96   265.86   284.08   335.98   382.55
                              398.69   446.56   549.03   582.69   599.94
                              655.34   700.83   756.60   770.26   819.65
                              849.56   857.17   934.96   970.63  1046.51
                             1084.65  1116.08  1164.34  1172.63  1199.12
                             1271.11  1281.23  1317.37  1364.93  1375.61
                             1388.53  1427.06  1484.60  1545.33  1555.59
                             1672.19  1702.64  1705.82  1714.83  1732.00
                             1755.23  1797.57  1835.08  1859.70  1894.41
                             1992.85  2028.48  2045.75  2052.81  2104.74
                             2158.38  2159.43  2164.05  2191.36  2204.29
                             2212.13  2249.59  2336.61  2399.24  2436.58
                             2661.89  4351.79  4420.72  4436.49  4510.09
                             4540.90  4582.37  4583.52  4592.05  4610.87
                             4612.20  4643.83  4662.69

 Zero-point correction=                           0.222012 (Hartree/Particle)
 Thermal correction to Energy=                    0.236282
 Thermal correction to Enthalpy=                  0.237226
 Thermal correction to Gibbs Free Energy=         0.179462
 Sum of electronic and zero-point Energies=           -728.068605
 Sum of electronic and thermal Energies=              -728.054336
 Sum of electronic and thermal Enthalpies=            -728.053391
 Sum of electronic and thermal Free Energies=         -728.111155

                     E (Thermal)             CV                S
                      KCal/Mol        Cal/Mol-Kelvin    Cal/Mol-Kelvin
 Total                  148.269             53.927            121.575
 Electronic               0.000              0.000              0.000
 Translational            0.889              2.981             42.015
 Rotational               0.889              2.981             32.545
 Vibrational            146.492             47.965             47.015
 Vibration     1          0.593              1.984              5.864
 Vibration     2          0.595              1.979              4.927
 Vibration     3          0.597              1.972              4.343
 Vibration     4          0.600              1.963              3.885
 Vibration     5          0.601              1.958              3.729
 Vibration     6          0.614              1.915              2.827
 Vibration     7          0.631              1.861              2.280
 Vibration     8          0.637              1.843              2.157
 Vibration     9          0.654              1.790              1.852
 Vibration    10          0.672              1.736              1.623
 Vibration    11          0.678              1.716              1.551
 Vibration    12          0.699              1.654              1.360
 Vibration    13          0.751              1.509              1.033
 Vibration    14          0.770              1.459              0.944
 Vibration    15          0.780              1.433              0.902
 Vibration    16          0.814              1.349              0.779
 Vibration    17          0.843              1.279              0.691
 Vibration    18          0.881              1.193              0.597
 Vibration    19          0.890              1.172              0.575
 Vibration    20          0.926              1.097              0.505
 Vibration    21          0.948              1.052              0.466
 Vibration    22          0.954              1.041              0.457

 Optimization completed.
    -- Stationary point found.
 Normal termination of Gaussian 09 at Wed Sep 29 04:44:47 2021.
 Gaussian 09:  AM64L-G09RevA.02 11-Jun-2009

 ----------------------------------------------------------------------
 #p TD(NStates=10, Root=1) b3lyp/6-31G* volume pop=NPA density=current
 Geom=AllCheck Guess=Read
 ----------------------------------------------------------------------

 COc1ccc2c(c1)ccc(c2)OC(=O)C_conf_0
 ----------------------------------
 Redundant internal coordinates taken from checkpoint file:
 C13H12O3_94e5_conf_0.chk
 Charge =  0 Multiplicity = 1

                         Standard orientation:
 ---------------------------------------------------------------------
 Center     Atomic      Atomic             Coordinates (Angstroms)
 Number     Number       Type             X           Y           Z
 ---------------------------------------------------------------------
      1          6           0       -5.558406   -0.275720    0.245766
      2          8           0       -4.492564    0.648529    0.100968
      3          6           0       -3.213022    0.172055    0.038314
      4          6           0       -2.880665   -1.206310    0.106806
      5          6           0       -1.561808   -1.600964    0.035020
      6          6           0       -0.513633   -0.658521   -0.106107
      7          6           0       -0.854770    0.732755   -0.175457
      8          6           0       -2.212498    1.117607   -0.100524
      9          6           0        0.197244    1.681090   -0.322816
     10          6           0        1.511529    1.287413   -0.395967
     11          6           0        1.829307   -0.091042   -0.317834
     12          6           0        0.851386   -1.043222   -0.179502
     13          8           0        3.143374   -0.544918   -0.476523
     14          6           0        4.147159   -0.027949    0.299954
     15          8           0        3.987654    0.816860    1.145703
     16          6           0        5.458490   -0.678569   -0.069151
     17          1           0       -6.470150    0.324064    0.272153
     18          1           0       -5.477573   -0.848054    1.179540
     19          1           0       -5.611002   -0.972827   -0.601183
     20          1           0       -3.656595   -1.955370    0.215322
     21          1           0       -1.314424   -2.658441    0.088536
     22          1           0       -2.487500    2.167081   -0.151189
     23          1           0       -0.054226    2.737050   -0.378917
     24          1           0        2.305589    2.016214   -0.504162
     25          1           0        1.126407   -2.092940   -0.132896
     26          1           0        5.678584   -0.507547   -1.128029
     27          1           0        5.396345   -1.761532    0.079745
     28          1           0        6.254948   -0.263204    0.548884
 ---------------------------------------------------------------------

 SCF Done:  E(RB3LYP) =  -728.290617392     A.U. after    2 cycles

 Excitation energies and oscillator strengths:

 Excited State   1:      Singlet-A      3.9968 eV  310.21 nm  f=0.0647  <S**2>=0.000
      56 -> 58         0.11772
      56 -> 59         0.13720
      57 -> 58         0.66057
      57 -> 59        -0.13259
 This state for optimization and/or second-order correction.
 Total Energy, E(TD-HF/TD-KS) =  -728.143737817
 Copying the excited state density for this state as the 1-particle RhoCI density.

 Excited State   2:      Singlet-A      4.4619 eV  277.87 nm  f=0.0196  <S**2>=0.000
      56 -> 58        -0.46359
      57 -> 58         0.19240
      57 -> 59         0.48436

 Excited State   3:      Singlet-A      5.0602 eV  245.02 nm  f=0.1988  <S**2>=0.000
      56 -> 58        -0.29697
      57 -> 59        -0.37757
      57 -> 60         0.50219

 Excited State   4:      Singlet-A      5.4913 eV  225.78 nm  f=0.0473  <S**2>=0.000
      54 -> 59         0.14234
      54 -> 60        -0.13763
      55 -> 58         0.51253
      55 -> 59         0.11589
      56 -> 58         0.12543
      57 -> 60         0.10150
      57 -> 61        -0.36646

 Excited State   5:      Singlet-A      5.5676 eV  222.69 nm  f=0.1473  <S**2>=0.000
      54 -> 58         0.26191
      54 -> 59         0.21569
      54 -> 60        -0.19718
      55 -> 58        -0.15874
      55 -> 59         0.16648
      56 -> 58         0.10762
      56 -> 59         0.40962
      56 -> 60        -0.14939
      57 -> 59         0.15479
      57 -> 60         0.10868
      57 -> 61         0.19580

 Excited State   6:      Singlet-A      5.7118 eV  217.07 nm  f=0.2287  <S**2>=0.000
      54 -> 58        -0.29819
      54 -> 59        -0.21664
      54 -> 60         0.13997
      55 -> 58        -0.14902
      55 -> 59        -0.10459
      55 -> 60         0.14522
      56 -> 58         0.16965
      56 -> 59         0.29972
      57 -> 59         0.12477
      57 -> 60         0.27207
      57 -> 61        -0.23362

 Excited State   7:      Singlet-A      5.7869 eV  214.25 nm  f=0.6364  <S**2>=0.000
      53 -> 58         0.10664
      55 -> 58         0.18139
      55 -> 59        -0.16318
      56 -> 58         0.28597
      56 -> 59        -0.18909
      57 -> 59         0.17778
      57 -> 60         0.33548
      57 -> 61         0.34402

 Excited State   8:      Singlet-A      5.9399 eV  208.73 nm  f=0.0006  <S**2>=0.000
      54 -> 58         0.54812
      54 -> 59        -0.27305
      54 -> 60         0.17550
      55 -> 60         0.15781
      56 -> 61        -0.10432
      57 -> 61        -0.16263

 Excited State   9:      Singlet-A      6.0126 eV  206.21 nm  f=0.3526  <S**2>=0.000
      54 -> 60         0.14252
      55 -> 58         0.32336
      55 -> 59        -0.22048
      56 -> 58        -0.17697
      56 -> 59         0.33412
      56 -> 60        -0.19736
      56 -> 61         0.13692
      57 -> 59        -0.14511
      57 -> 60        -0.14118
      57 -> 61         0.21793

 Excited State  10:      Singlet-A      6.2636 eV  197.94 nm  f=0.1053  <S**2>=0.000
      53 -> 58        -0.13243
      56 -> 59         0.22128
      56 -> 60         0.60164
      56 -> 61         0.14204

 The electronic state is 1-A.
 Alpha  occ. eigenvalues --  -19.19826 -19.17825 -19.13981 -10.32257 -10.24875
 Alpha  occ. eigenvalues --  -10.24789 -10.24325 -10.19932 -10.19835 -10.19701
 Alpha  occ. eigenvalues --  -10.19528 -10.19401 -10.19230 -10.19085 -10.19079
 Alpha  occ. eigenvalues --  -10.18255  -1.10543  -1.06396  -1.02315  -0.87208
 Alpha  occ. eigenvalues --   -0.82213  -0.77732  -0.76613  -0.73583  -0.73327
 Alpha  occ. eigenvalues --   -0.69176  -0.63519  -0.62769  -0.60005  -0.57175
 Alpha  occ. eigenvalues --   -0.53318  -0.51553  -0.49530  -0.48357  -0.47694
 Alpha  occ. eigenvalues --   -0.46973  -0.46949  -0.46185  -0.44593  -0.43900
 Alpha  occ. eigenvalues --   -0.42037  -0.41383  -0.41022  -0.40027  -0.39680
 Alpha  occ. eigenvalues --   -0.38687  -0.37692  -0.36072  -0.35255  -0.34500
 Alpha  occ. eigenvalues --   -0.32627  -0.31783  -0.29809  -0.27718  -0.26947
 Alpha  occ. eigenvalues --   -0.23272  -0.20053
 Alpha virt. eigenvalues --   -0.03752  -0.00599   0.01486   0.03443   0.08954
 Alpha virt. eigenvalues --    0.10345   0.10849   0.10977   0.11675   0.12256
 Alpha virt. eigenvalues --    0.14191   0.15183   0.15363   0.16492   0.16812

 Mulliken atomic charges:
              1
     1  C   -0.225497
     2  O   -0.466226
     3  C    0.388514
     4  C   -0.218207
     5  C   -0.215519
     6  C    0.148874
     7  C    0.158087
     8  C   -0.259772
     9  C   -0.229606
    10  C   -0.161365
    11  C    0.370527
    12  C   -0.267330
    13  O   -0.510820
    14  C    0.591167
    15  O   -0.437410
    16  C   -0.525865
    17  H    0.179483
    18  H    0.172099
    19  H    0.171566
    20  H    0.120710
    21  H    0.128172
    22  H    0.144218
    23  H    0.124376
    24  H    0.134868
    25  H    0.130418
    26  H    0.185056
    27  H    0.184447
    28  H    0.185033
 Sum of Mulliken atomic charges =  -0.00000

 Dipole moment (field-independent basis, Debye):
    X=             -2.7692    Y=             -2.0757    Z=             -0.9363  Tot=              3.5852
 Quadrupole moment (field-independent basis, Debye-Ang):
   XX=            -60.8486   YY=            -87.3061   ZZ=            -97.2248
   XY=             -1.9798   XZ=             -6.9383   YZ=             -3.2923

 Summary of Natural Population Analysis:

                                       Natural Population
                Natural  -----------------------------------------------
    Atom  No    Charge         Core      Valence    Rydberg      Total
 -----------------------------------------------------------------------
      C    1   -0.32309      1.99942     4.30975    0.01393     6.32309
      O    2   -0.45193      1.99975     6.44060    0.01159     8.45193
      C    3    0.36432      1.99879     3.61445    0.02244     5.63568
      C    4   -0.37969      1.99905     4.36594    0.01471     6.37969
      C    5   -0.20835      1.99907     4.19312    0.01615     6.20835
      C    6   -0.04117      1.99903     4.02711    0.01503     6.04117
      C    7   -0.05544      1.99903     4.04138    0.01503     6.05544
      C    8   -0.23820      1.99900     4.22319    0.01601     6.23820
      C    9   -0.23140      1.99907     4.21665    0.01567     6.23140
      C   10   -0.31757      1.99901     4.30297    0.01558     6.31757
      C   11    0.35072      1.99870     3.62832    0.02226     5.64928
      C   12   -0.28366      1.99896     4.26891    0.01579     6.28366
      O   13   -0.53782      1.99970     6.52674    0.01138     8.53782
      C   14    0.82426      1.99945     3.13302    0.04327     5.17574
      O   15   -0.56743      1.99978     6.54760    0.02005     8.56743
      C   16   -0.77518      1.99933     4.76917    0.00668     6.77518
      H   17    0.23295      0.00000     0.76653    0.00052     0.76705
      H   18    0.21701      0.00000     0.78113    0.00186     0.78299
      H   19    0.21666      0.00000     0.78147    0.00187     0.78334
      H   20    0.23298      0.00000     0.76618    0.00084     0.76702
      H   21    0.23301      0.00000     0.76590    0.00110     0.76699
      H   22    0.24429      0.00000     0.75414    0.00157     0.75571
      H   23    0.23136      0.00000     0.76758    0.00106     0.76864
      H   24    0.24789      0.00000     0.75122    0.00089     0.75211
      H   25    0.24045      0.00000     0.75809    0.00145     0.75955
      H   26    0.25881      0.00000     0.74033    0.00086     0.74119
      H   27    0.25836      0.00000     0.74076    0.00087     0.74164
      H   28    0.25785      0.00000     0.74122    0.00093     0.74215
 =======================================================================
   * Total *   -0.00000     31.98714    81.72347    0.28939   114.00000

 Normal termination of Gaussian 09 at Wed Sep 29 09:20:38 2021.
