 Gaussian 09, Revision A.02,

 -----------------------------------
 #p opt b3lyp/6-31G* scf=(xqc,tight)
 -----------------------------------

 ----------------------------------------
 COc1nc(Oc2ccc(cc2)C(=O)C)nc(n1)OC_conf_0
 ----------------------------------------
 Symbolic Z-matrix:
 Charge =  0 Multiplicity = 1

 SCF Done:  E(RB3LYP) =  -968.359914751     A.U. after   15 cycles
 SCF Done:  E(RB3LYP) =  -968.369496550     A.U. after   13 cycles
 SCF Done:  E(RB3LYP) =  -968.372730218     A.U. after   15 cycles
 SCF Done:  E(RB3LYP) =  -968.373458634     A.U. after   13 cycles
 SCF Done:  E(RB3LYP) =  -968.373772703     A.U. after   12 cycles
 SCF Done:  E(RB3LYP) =  -968.373831339     A.U. after   12 cycles
 SCF Done:  E(RB3LYP) =  -968.373859925     A.U. after   12 cycles
 SCF Done:  E(RB3LYP) =  -968.373947187     A.U. after   11 cycles
 SCF Done:  E(RB3LYP) =  -968.373971893     A.U. after   11 cycles
 SCF Done:  E(RB3LYP) =  -968.373992190     A.U. after   12 cycles
 SCF Done:  E(RB3LYP) =  -968.374009179     A.U. after   12 cycles
 SCF Done:  E(RB3LYP) =  -968.374023655     A.U. after   12 cycles
 SCF Done:  E(RB3LYP) =  -968.374031053     A.U. after    9 cycles
 SCF Done:  E(RB3LYP) =  -968.374033048     A.U. after   10 cycles
 SCF Done:  E(RB3LYP) =  -968.374033456     A.U. after    7 cycles
 SCF Done:  E(RB3LYP) =  -968.374033663     A.U. after    8 cycles
 SCF Done:  E(RB3LYP) =  -968.374033770     A.U. after    7 cycles
 Optimization completed.
    -- Stationary point found.
 Normal termination of Gaussian 09 at Tue Sep 28 17:46:49 2021.

 ----------------------------------------------------------------------
 #p freq b3lyp/6-31G* volume NMR pop=NPA density=current Geom=AllCheck
 Guess=Read
 ----------------------------------------------------------------------

 COc1nc(Oc2ccc(cc2)C(=O)C)nc(n1)OC_conf_0
 ----------------------------------------
 Redundant internal coordinates taken from checkpoint file:
 C13H13N3O4_1ad7_conf_0.chk
 Charge =  0 Multiplicity = 1

 SCF Done:  E(RB3LYP) =  -968.374033770     A.U. after    1 cycles

  1  C    Isotropic =   136.2774   Anisotropy =    65.6541

  2  O    Isotropic =   190.2317   Anisotropy =    91.4886

  3  C    Isotropic =    23.6654   Anisotropy =    99.5190

  4  N    Isotropic =    63.3088   Anisotropy =   277.8293

  5  C    Isotropic =    24.0483   Anisotropy =    91.5251

  6  O    Isotropic =   136.9201   Anisotropy =   108.9777

  7  C    Isotropic =    40.6910   Anisotropy =   113.0551

  8  C    Isotropic =    72.0565   Anisotropy =   151.7037

  9  C    Isotropic =    65.4628   Anisotropy =   178.4897

 10  C    Isotropic =    63.5324   Anisotropy =   158.4920

 11  C    Isotropic =    65.8634   Anisotropy =   164.2724

 12  C    Isotropic =    75.7163   Anisotropy =   139.8652

 13  C    Isotropic =     4.3502   Anisotropy =   150.9851

 14  O    Isotropic =  -266.2962   Anisotropy =   933.3540

 15  C    Isotropic =   163.8754   Anisotropy =    39.1396

 16  N    Isotropic =    63.0856   Anisotropy =   281.0711

 17  C    Isotropic =    23.0184   Anisotropy =   101.0502

 18  N    Isotropic =    60.8415   Anisotropy =   285.1663

 19  O    Isotropic =   190.1866   Anisotropy =    91.6305

 20  C    Isotropic =   136.2071   Anisotropy =    64.8455

 21  H    Isotropic =    28.5679   Anisotropy =     7.8615

 22  H    Isotropic =    28.3180   Anisotropy =     8.2103

 23  H    Isotropic =    28.3509   Anisotropy =     8.3269

 24  H    Isotropic =    25.0050   Anisotropy =     8.4923

 25  H    Isotropic =    23.9476   Anisotropy =     6.6304

 26  H    Isotropic =    24.5261   Anisotropy =     7.7113

 27  H    Isotropic =    25.2849   Anisotropy =     6.8682

 28  H    Isotropic =    29.6671   Anisotropy =     4.4762

 29  H    Isotropic =    30.2616   Anisotropy =     6.5343

 30  H    Isotropic =    29.6609   Anisotropy =     4.2060

 31  H    Isotropic =    28.4616   Anisotropy =     7.6224

 32  H    Isotropic =    28.2136   Anisotropy =     7.6128

 33  H    Isotropic =    28.2226   Anisotropy =     7.9286

  Exact polarizability: 250.023  14.618 154.795  -7.003  16.506 110.972
 Approx polarizability: 325.722  32.140 246.454  -5.316  40.587 185.935

                     1                      2                      3
                     A                      A                      A
 Frequencies --    17.9289                26.9567                44.7436
 Red. masses --     3.9425                 6.5246                 6.7935
 Frc consts  --     0.0007                 0.0028                 0.0080
 IR Inten    --     1.2298                 0.1348                 0.8854

                     4                      5                      6
                     A                      A                      A
 Frequencies --    70.1508               101.1610               112.3476
 Red. masses --     3.6834                 3.4351                 3.7201
 Frc consts  --     0.0107                 0.0207                 0.0277
 IR Inten    --     2.0025                 6.5480                 0.2971

                     7                      8                      9
                     A                      A                      A
 Frequencies --   115.6635               151.4831               161.3766
 Red. masses --     4.9596                 1.3570                 1.0380
 Frc consts  --     0.0391                 0.0183                 0.0159
 IR Inten    --     1.6963                 0.1802                 0.2423

                    10                     11                     12
                     A                      A                      A
 Frequencies --   162.5724               167.6142               181.6212
 Red. masses --     1.2318                 3.7157                 3.0514
 Frc consts  --     0.0192                 0.0615                 0.0593
 IR Inten    --     0.1256                 1.3029                 2.5218

                    13                     14                     15
                     A                      A                      A
 Frequencies --   210.0946               218.5462               233.6471
 Red. masses --     4.2810                 4.8519                 6.5834
 Frc consts  --     0.1113                 0.1365                 0.2117
 IR Inten    --     2.2598                 7.3873                 0.7778

                    16                     17                     18
                     A                      A                      A
 Frequencies --   254.5452               278.4280               312.8576
 Red. masses --     5.4180                 6.1612                 4.4605
 Frc consts  --     0.2068                 0.2814                 0.2572
 IR Inten    --     5.8303                 0.4781                 2.8053

                    19                     20                     21
                     A                      A                      A
 Frequencies --   376.4420               407.3132               423.3115
 Red. masses --     5.5658                 4.4120                 3.0821
 Frc consts  --     0.4647                 0.4313                 0.3254
 IR Inten    --     3.1425                 9.4294                 1.1214

                    22                     23                     24
                     A                      A                      A
 Frequencies --   456.4306               484.9704               499.7492
 Red. masses --     5.3567                 4.0074                 4.5152
 Frc consts  --     0.6575                 0.5553                 0.6644
 IR Inten    --    18.3450                 3.8923                 2.0418

                    25                     26                     27
                     A                      A                      A
 Frequencies --   547.2770               596.5610               602.2269
 Red. masses --     6.8939                 3.0316                 4.6568
 Frc consts  --     1.2166                 0.6357                 0.9951
 IR Inten    --     0.0343                 7.3269                18.8950

                    28                     29                     30
                     A                      A                      A
 Frequencies --   608.2959               630.1560               651.3429
 Red. masses --     6.3666                 4.7202                 6.9928
 Frc consts  --     1.3880                 1.1043                 1.7479
 IR Inten    --     4.8627                 6.3825                 0.5119

                    31                     32                     33
                     A                      A                      A
 Frequencies --   719.0457               732.1380               736.0237
 Red. masses --     5.5955                 4.4553                11.8601
 Frc consts  --     1.7045                 1.4071                 3.7855
 IR Inten    --     8.1060                 1.0036                 4.1441

                    34                     35                     36
                     A                      A                      A
 Frequencies --   750.2221               780.4601               827.4715
 Red. masses --    11.9251                 4.3875                11.7147
 Frc consts  --     3.9545                 1.5746                 4.7259
 IR Inten    --     0.0054                 3.5018                39.9968

                    37                     38                     39
                     A                      A                      A
 Frequencies --   839.9416               851.7988               869.8767
 Red. masses --     1.3007                 3.2108                 2.3630
 Frc consts  --     0.5407                 1.3726                 1.0535
 IR Inten    --     3.8245                15.8592                26.5084

                    40                     41                     42
                     A                      A                      A
 Frequencies --   959.5516               967.8387               978.9202
 Red. masses --     1.3150                 2.2391                 7.3267
 Frc consts  --     0.7134                 1.2357                 4.1367
 IR Inten    --     0.1338                60.2009                11.4200

                    43                     44                     45
                     A                      A                      A
 Frequencies --   990.6145               998.0033              1032.4527
 Red. masses --     1.3182                13.3592                 4.7813
 Frc consts  --     0.7622                 7.8396                 3.0029
 IR Inten    --     1.7478                 0.2386                 8.9083

                    46                     47                     48
                     A                      A                      A
 Frequencies --  1039.6299              1056.9305              1098.1215
 Red. masses --     3.7340                 1.8544                 2.4134
 Frc consts  --     2.3778                 1.2205                 1.7147
 IR Inten    --     9.3713                 1.5790                 8.2070

                    49                     50                     51
                     A                      A                      A
 Frequencies --  1131.4342              1140.1689              1159.9135
 Red. masses --     4.8539                 1.2964                 3.5788
 Frc consts  --     3.6610                 0.9929                 2.8368
 IR Inten    --   100.6450                 5.5927               147.7348

                    52                     53                     54
                     A                      A                      A
 Frequencies --  1184.7069              1185.0743              1198.0044
 Red. masses --     1.2655                 1.2663                 1.1988
 Frc consts  --     1.0465                 1.0478                 1.0137
 IR Inten    --     0.1742                 1.2929               117.2697

                    55                     56                     57
                     A                      A                      A
 Frequencies --  1221.0456              1237.3791              1264.4869
 Red. masses --     1.5739                 2.0478                 4.2336
 Frc consts  --     1.3826                 1.8473                 3.9883
 IR Inten    --    11.2041               124.8917               646.9209

                    58                     59                     60
                     A                      A                      A
 Frequencies --  1291.0799              1317.1874              1336.2245
 Red. masses --     3.5704                 9.7319                 1.3127
 Frc consts  --     3.5065                 9.9482                 1.3809
 IR Inten    --   290.4474                 0.7128                13.5318

                    61                     62                     63
                     A                      A                      A
 Frequencies --  1361.0859              1407.3568              1410.6500
 Red. masses --    10.9805                 3.8505                 1.4955
 Frc consts  --    11.9851                 4.4934                 1.7534
 IR Inten    --     6.8489               962.4075                46.6985

                    64                     65                     66
                     A                      A                      A
 Frequencies --  1418.6846              1456.4337              1471.0141
 Red. masses --     3.1395                 2.9346                 1.7109
 Frc consts  --     3.7229                 3.6676                 2.1813
 IR Inten    --   698.9643                 8.3245                46.7679

                    67                     68                     69
                     A                      A                      A
 Frequencies --  1499.6397              1507.8234              1512.2053
 Red. masses --     1.0571                 1.0483                 1.0484
 Frc consts  --     1.4007                 1.4042                 1.4125
 IR Inten    --     9.3405                 9.4727                 6.2100

                    70                     71                     72
                     A                      A                      A
 Frequencies --  1512.6432              1518.5903              1521.4373
 Red. masses --     1.0480                 1.2354                 1.0868
 Frc consts  --     1.4128                 1.6786                 1.4822
 IR Inten    --     6.5660               116.3512                14.3704

                    73                     74                     75
                     A                      A                      A
 Frequencies --  1524.9872              1550.1096              1567.6533
 Red. masses --     1.3371                 2.5137                 3.5586
 Frc consts  --     1.8321                 3.5586                 5.1526
 IR Inten    --    32.7691                70.4541                 1.8246

                    76                     77                     78
                     A                      A                      A
 Frequencies --  1606.4642              1624.1246              1638.5774
 Red. masses --     8.5102                 8.9638                 7.5172
 Frc consts  --    12.9399                13.9310                11.8916
 IR Inten    --   916.4677               597.5195                98.4965

                    79                     80                     81
                     A                      A                      A
 Frequencies --  1662.2831              1777.9050              3053.3945
 Red. masses --     5.9940                10.7071                 1.0383
 Frc consts  --     9.7583                19.9407                 5.7037
 IR Inten    --    42.0655               167.4025                 2.8591

                    82                     83                     84
                     A                      A                      A
 Frequencies --  3077.4512              3077.7438              3112.6523
 Red. masses --     1.0292                 1.0293                 1.1000
 Frc consts  --     5.7431                 5.7443                 6.2792
 IR Inten    --    44.5230                27.6800                 9.7510

                    85                     86                     87
                     A                      A                      A
 Frequencies --  3154.4046              3154.9255              3170.1018
 Red. masses --     1.1078                 1.1078                 1.1011
 Frc consts  --     6.4944                 6.4967                 6.5197
 IR Inten    --    16.1936                20.5422                13.0606

                    88                     89                     90
                     A                      A                      A
 Frequencies --  3182.5515              3183.0559              3208.8557
 Red. masses --     1.1075                 1.1075                 1.0875
 Frc consts  --     6.6091                 6.6110                 6.5977
 IR Inten    --    23.9582                18.8029                 8.1049

                    91                     92                     93
                     A                      A                      A
 Frequencies --  3224.5007              3225.2282              3238.4917
 Red. masses --     1.0898                 1.0930                 1.0948
 Frc consts  --     6.6760                 6.6987                 6.7649
 IR Inten    --     2.0454                 4.4245                 6.9379

 - Thermochemistry -
 -------------------
 Temperature   298.150 Kelvin.  Pressure   1.00000 Atm.
 Atom     1 has atomic number  6 and mass  12.00000

 Molecular mass:   275.09061 amu.
 Principal axes and moments of inertia in atomic units:
                           1         2         3
     Eigenvalues --  2477.22946********************
           X            0.99997  -0.00292  -0.00710
           Y            0.00294   0.99999   0.00303
           Z            0.00709  -0.00306   0.99997
 This molecule is an asymmetric top.
 Rotational symmetry number  1.
 Warning -- assumption of classical behavior for rotation
           may cause significant error
 Rotational temperatures (Kelvin)      0.03496     0.00697     0.00611
 Rotational constants (GHZ):           0.72853     0.14522     0.12724
 Zero-point vibrational energy     667603.5 (Joules/Mol)
                                  159.56106 (Kcal/Mol)
 Warning -- explicit consideration of  28 degrees of freedom as
           vibrations may cause significant error
 Vibrational temperatures:     25.80    38.78    64.38   100.93   145.55
          (Kelvin)            161.64   166.41   217.95   232.18   233.91
                              241.16   261.31   302.28   314.44   336.17
                              366.23   400.60   450.13   541.62   586.03
                              609.05   656.70   697.76   719.03   787.41
                              858.32   866.47   875.20   906.65   937.14
                             1034.55  1053.38  1058.97  1079.40  1122.91
                             1190.55  1208.49  1225.55  1251.56  1380.58
                             1392.50  1408.45  1425.27  1435.90  1485.47
                             1495.79  1520.69  1579.95  1627.88  1640.45
                             1668.85  1704.53  1705.06  1723.66  1756.81
                             1780.31  1819.31  1857.57  1895.14  1922.53
                             1958.30  2024.87  2029.61  2041.17  2095.48
                             2116.46  2157.64  2169.42  2175.72  2176.35
                             2184.91  2189.01  2194.11  2230.26  2255.50
                             2311.34  2336.75  2357.54  2391.65  2558.01
                             4393.15  4427.76  4428.18  4478.41  4538.48
                             4539.23  4561.06  4578.98  4579.70  4616.82
                             4639.33  4640.38  4659.46

 Zero-point correction=                           0.254277 (Hartree/Particle)
 Thermal correction to Energy=                    0.272630
 Thermal correction to Enthalpy=                  0.273574
 Thermal correction to Gibbs Free Energy=         0.205553
 Sum of electronic and zero-point Energies=           -968.119757
 Sum of electronic and thermal Energies=              -968.101403
 Sum of electronic and thermal Enthalpies=            -968.100459
 Sum of electronic and thermal Free Energies=         -968.168480

                     E (Thermal)             CV                S
                      KCal/Mol        Cal/Mol-Kelvin    Cal/Mol-Kelvin
 Total                  171.078             67.170            143.162
 Electronic               0.000              0.000              0.000
 Translational            0.889              2.981             42.734
 Rotational               0.889              2.981             34.434
 Vibrational            169.301             61.208             65.994
 Vibration     1          0.593              1.986              6.851
 Vibration     2          0.593              1.984              6.042
 Vibration     3          0.595              1.980              5.037
 Vibration     4          0.598              1.968              4.149
 Vibration     5          0.604              1.948              3.432
 Vibration     6          0.607              1.939              3.228
 Vibration     7          0.608              1.936              3.172
 Vibration     8          0.619              1.901              2.654
 Vibration     9          0.622              1.890              2.534
 Vibration    10          0.623              1.888              2.520
 Vibration    11          0.624              1.882              2.462
 Vibration    12          0.630              1.865              2.312
 Vibration    13          0.642              1.825              2.043
 Vibration    14          0.646              1.813              1.971
 Vibration    15          0.654              1.789              1.851
 Vibration    16          0.665              1.755              1.699
 Vibration    17          0.679              1.713              1.543
 Vibration    18          0.701              1.649              1.347
 Vibration    19          0.747              1.520              1.053
 Vibration    20          0.772              1.454              0.936
 Vibration    21          0.785              1.420              0.881
 Vibration    22          0.815              1.347              0.777
 Vibration    23          0.841              1.283              0.697
 Vibration    24          0.855              1.251              0.659
 Vibration    25          0.902              1.146              0.550
 Vibration    26          0.954              1.039              0.456
 Vibration    27          0.961              1.027              0.446
 Vibration    28          0.967              1.014              0.436

 Optimization completed.
    -- Stationary point found.
 Normal termination of Gaussian 09 at Tue Sep 28 19:46:15 2021.
 Gaussian 09:  AM64L-G09RevA.02 11-Jun-2009

 ----------------------------------------------------------------------
 #p TD(NStates=10, Root=1) b3lyp/6-31G* volume pop=NPA density=current
 Geom=AllCheck Guess=Read
 ----------------------------------------------------------------------

 COc1nc(Oc2ccc(cc2)C(=O)C)nc(n1)OC_conf_0
 ----------------------------------------
 Redundant internal coordinates taken from checkpoint file:
 C13H13N3O4_1ad7_conf_0.chk
 Charge =  0 Multiplicity = 1

                         Standard orientation:
 ---------------------------------------------------------------------
 Center     Atomic      Atomic             Coordinates (Angstroms)
 Number     Number       Type             X           Y           Z
 ---------------------------------------------------------------------
      1          6           0       -3.402763    3.438440   -0.413141
      2          8           0       -2.201733    2.654028   -0.343711
      3          6           0       -2.335456    1.338761   -0.189646
      4          7           0       -1.168622    0.673041   -0.138254
      5          6           0       -1.321297   -0.632272    0.016098
      6          8           0       -0.236221   -1.433154    0.063955
      7          6           0        1.055417   -0.913338    0.066296
      8          6           0        1.498418   -0.037607    1.059911
      9          6           0        2.830121    0.354560    1.062378
     10          6           0        3.728180   -0.119081    0.091099
     11          6           0        3.258881   -1.004063   -0.889987
     12          6           0        1.924317   -1.404247   -0.904614
     13          6           0        5.151119    0.344071    0.156682
     14          8           0        5.517670    1.107561    1.037550
     15          6           0        6.134083   -0.151839   -0.892221
     16          7           0       -2.472622   -1.306626    0.119104
     17          6           0       -3.547181   -0.521908    0.049503
     18          7           0       -3.553193    0.810618   -0.103944
     19          8           0       -4.758731   -1.067071    0.137230
     20          6           0       -4.834613   -2.491613    0.304201
     21          1           0       -3.059751    4.465806   -0.539195
     22          1           0       -3.986175    3.336393    0.505379
     23          1           0       -4.018543    3.130517   -1.261984
     24          1           0        0.806505    0.330544    1.808343
     25          1           0        3.206241    1.034826    1.819158
     26          1           0        3.929882   -1.389180   -1.651235
     27          1           0        1.547778   -2.092833   -1.653864
     28          1           0        6.219989   -1.244874   -0.868200
     29          1           0        7.111023    0.290621   -0.690753
     30          1           0        5.809992    0.128757   -1.901566
     31          1           0       -5.901557   -2.712255    0.349555
     32          1           0       -4.337508   -2.801194    1.226966
     33          1           0       -4.370054   -3.006460   -0.540505
 ---------------------------------------------------------------------

 SCF Done:  E(RB3LYP) =  -968.374033770     A.U. after    1 cycles

 Excitation energies and oscillator strengths:

 Excited State   1:      Singlet-A      3.7513 eV  330.51 nm  f=0.0001  <S**2>=0.000
      71 -> 73         0.19531
      72 -> 73         0.65942
      72 -> 77         0.11552
 This state for optimization and/or second-order correction.
 Total Energy, E(TD-HF/TD-KS) =  -968.236175998
 Copying the excited state density for this state as the 1-particle RhoCI density.

 Excited State   2:      Singlet-A      4.8349 eV  256.44 nm  f=0.0264  <S**2>=0.000
      70 -> 73         0.60601
      71 -> 73         0.16278
      71 -> 75        -0.15306
      71 -> 76         0.24889

 Excited State   3:      Singlet-A      4.9182 eV  252.09 nm  f=0.4409  <S**2>=0.000
      70 -> 73        -0.15410
      71 -> 73         0.63125
      72 -> 73        -0.18703

 Excited State   4:      Singlet-A      5.4468 eV  227.63 nm  f=0.0036  <S**2>=0.000
      66 -> 73        -0.23038
      66 -> 74        -0.20275
      67 -> 73        -0.27766
      67 -> 74        -0.17470
      68 -> 73        -0.24418
      68 -> 74        -0.12397
      69 -> 73         0.22011
      70 -> 74         0.14788
      71 -> 74         0.31492
      72 -> 74        -0.12509

 Excited State   5:      Singlet-A      5.4991 eV  225.46 nm  f=0.0024  <S**2>=0.000
      66 -> 75        -0.15666
      67 -> 73         0.11225
      67 -> 74         0.10649
      69 -> 73         0.39510
      69 -> 74         0.11147
      70 -> 75         0.10357
      71 -> 75         0.28693
      71 -> 76         0.21102
      72 -> 75        -0.31072
      72 -> 76         0.16631

 Excited State   6:      Singlet-A      5.5147 eV  224.82 nm  f=0.0016  <S**2>=0.000
      69 -> 73        -0.23213
      71 -> 75        -0.23436
      72 -> 75        -0.30911
      72 -> 76         0.51697

 Excited State   7:      Singlet-A      5.5634 eV  222.86 nm  f=0.0065  <S**2>=0.000
      67 -> 73        -0.28257
      67 -> 74        -0.20819
      68 -> 73         0.45256
      68 -> 74         0.29445
      69 -> 73         0.19369
      71 -> 75        -0.14035

 Excited State   8:      Singlet-A      5.5927 eV  221.69 nm  f=0.0191  <S**2>=0.000
      66 -> 75         0.11480
      67 -> 73         0.15565
      67 -> 74         0.12316
      68 -> 73        -0.16135
      68 -> 75         0.13822
      69 -> 73         0.40772
      70 -> 75        -0.10450
      71 -> 74        -0.16158
      71 -> 75        -0.36965
      72 -> 75         0.10973

 Excited State   9:      Singlet-A      5.6054 eV  221.19 nm  f=0.0211  <S**2>=0.000
      66 -> 73         0.30087
      67 -> 73         0.24103
      68 -> 73         0.16853
      71 -> 74         0.50035
      71 -> 75        -0.12338
      72 -> 74        -0.19192

 Excited State  10:      Singlet-A      5.7399 eV  216.00 nm  f=0.0044  <S**2>=0.000
      66 -> 73         0.29470
      67 -> 73        -0.31240
      68 -> 73        -0.18536
      68 -> 75        -0.22617
      70 -> 75         0.12192
      71 -> 74         0.16290
      72 -> 74         0.34267

 The electronic state is 1-A.
 Alpha  occ. eigenvalues --  -19.21298 -19.20260 -19.20124 -19.13350 -14.34083
 Alpha  occ. eigenvalues --  -14.33975 -14.33916 -10.33518 -10.33046 -10.32966
 Alpha  occ. eigenvalues --  -10.27536 -10.26678 -10.24667 -10.24514 -10.20930
 Alpha  occ. eigenvalues --  -10.20363 -10.20229 -10.20214 -10.20087 -10.18926
 Alpha  occ. eigenvalues --   -1.12121  -1.10612  -1.09962  -1.03303  -1.00295
 Alpha  occ. eigenvalues --   -0.90637  -0.90363  -0.86667  -0.78026  -0.76308
 Alpha  occ. eigenvalues --   -0.74694  -0.73986  -0.73277  -0.68607  -0.63847
 Alpha  occ. eigenvalues --   -0.62454  -0.61833  -0.58838  -0.57228  -0.55716
 Alpha  occ. eigenvalues --   -0.53041  -0.51472  -0.50916  -0.49150  -0.48053
 Alpha  occ. eigenvalues --   -0.47891  -0.46005  -0.44982  -0.44921  -0.44289
 Alpha  occ. eigenvalues --   -0.44108  -0.43567  -0.42866  -0.41893  -0.40631
 Alpha  occ. eigenvalues --   -0.39599  -0.39339  -0.37855  -0.37777  -0.37418
 Alpha  occ. eigenvalues --   -0.36444  -0.36084  -0.35704  -0.34774  -0.31328
 Alpha  occ. eigenvalues --   -0.28685  -0.28363  -0.28323  -0.27820  -0.26268
 Alpha  occ. eigenvalues --   -0.24884  -0.24695
 Alpha virt. eigenvalues --   -0.05504  -0.01891  -0.01845  -0.01057   0.04178
 Alpha virt. eigenvalues --    0.08521   0.10901   0.11360   0.11507   0.12226
 Alpha virt. eigenvalues --    0.12368   0.13498   0.14275   0.15033   0.15301

 Mulliken atomic charges:
              1
     1  C   -0.210660
     2  O   -0.457487
     3  C    0.677995
     4  N   -0.496585
     5  C    0.661205
     6  O   -0.528864
     7  C    0.328048
     8  C   -0.123229
     9  C   -0.208904
    10  C    0.118303
    11  C   -0.218995
    12  C   -0.160151
    13  C    0.313697
    14  O   -0.302068
    15  C   -0.515476
    16  N   -0.523778
    17  C    0.680753
    18  N   -0.522975
    19  O   -0.459919
    20  C   -0.210684
    21  H    0.167887
    22  H    0.172649
    23  H    0.173025
    24  H    0.144000
    25  H    0.143117
    26  H    0.120258
    27  H    0.140951
    28  H    0.198003
    29  H    0.186000
    30  H    0.199249
    31  H    0.167352
    32  H    0.173725
    33  H    0.173556
 Sum of Mulliken atomic charges =  -0.00000

 Dipole moment (field-independent basis, Debye):
    X=              1.2870    Y=             -0.5200    Z=             -1.2450  Tot=              1.8647
 Quadrupole moment (field-independent basis, Debye-Ang):
   XX=            -87.9200   YY=           -106.4961   ZZ=           -109.4709
   XY=             -3.1064   XZ=             -9.5886   YZ=              1.6230

 Summary of Natural Population Analysis:

                                       Natural Population
                Natural  -----------------------------------------------
    Atom  No    Charge         Core      Valence    Rydberg      Total
 -----------------------------------------------------------------------
      C    1   -0.32074      1.99941     4.30772    0.01362     6.32074
      O    2   -0.50000      1.99972     6.48809    0.01220     8.50000
      C    3    0.76853      1.99921     3.19585    0.03641     5.23147
      N    4   -0.59210      1.99925     5.57212    0.02073     7.59210
      C    5    0.76755      1.99916     3.19712    0.03617     5.23245
      O    6   -0.49620      1.99968     6.48422    0.01231     8.49620
      C    7    0.26457      1.99870     3.71457    0.02216     5.73543
      C    8   -0.24815      1.99899     4.23575    0.01341     6.24815
      C    9   -0.22057      1.99906     4.20706    0.01445     6.22057
      C   10   -0.16339      1.99889     4.14984    0.01466     6.16339
      C   11   -0.23766      1.99905     4.22559    0.01303     6.23766
      C   12   -0.25241      1.99900     4.23909    0.01432     6.25241
      C   13    0.37678      1.99928     3.59148    0.03246     5.62322
      O   14   -0.25136      1.99981     6.23346    0.01809     8.25136
      C   15   -0.70899      1.99932     4.70290    0.00677     6.70899
      N   16   -0.61157      1.99926     5.59136    0.02096     7.61157
      C   17    0.77042      1.99922     3.19404    0.03632     5.22958
      N   18   -0.61290      1.99926     5.59278    0.02086     7.61290
      O   19   -0.50184      1.99972     6.49001    0.01211     8.50184
      C   20   -0.32073      1.99941     4.30772    0.01360     6.32073
      H   21    0.22438      0.00000     0.77502    0.00061     0.77562
      H   22    0.22089      0.00000     0.77776    0.00135     0.77911
      H   23    0.22113      0.00000     0.77752    0.00135     0.77887
      H   24    0.25201      0.00000     0.74710    0.00089     0.74799
      H   25    0.24192      0.00000     0.75729    0.00079     0.75808
      H   26    0.23099      0.00000     0.76807    0.00094     0.76901
      H   27    0.24931      0.00000     0.74961    0.00108     0.75069
      H   28    0.26173      0.00000     0.73705    0.00122     0.73827
      H   29    0.25885      0.00000     0.74004    0.00112     0.74115
      H   30    0.26252      0.00000     0.73630    0.00118     0.73748
      H   31    0.22406      0.00000     0.77533    0.00061     0.77594
      H   32    0.22153      0.00000     0.77713    0.00134     0.77847
      H   33    0.22147      0.00000     0.77718    0.00135     0.77853
 =======================================================================
   * Total *    0.00000     39.98539   103.61616    0.39845   144.00000

 Normal termination of Gaussian 09 at Wed Sep 29 01:16:15 2021.
