 Gaussian 09, Revision A.02,

 -----------------------------------
 #p opt b3lyp/6-31G* scf=(xqc,tight)
 -----------------------------------

 ----------------------------
 COCCOc1ccc2c(c1)CCCC2_conf_0
 ----------------------------
 Symbolic Z-matrix:
 Charge =  0 Multiplicity = 1

 SCF Done:  E(RB3LYP) =  -656.656050353     A.U. after   14 cycles
 SCF Done:  E(RB3LYP) =  -656.658931932     A.U. after   12 cycles
 SCF Done:  E(RB3LYP) =  -656.659214219     A.U. after   11 cycles
 SCF Done:  E(RB3LYP) =  -656.659249724     A.U. after    9 cycles
 SCF Done:  E(RB3LYP) =  -656.659254535     A.U. after    9 cycles
 SCF Done:  E(RB3LYP) =  -656.659256097     A.U. after    8 cycles
 SCF Done:  E(RB3LYP) =  -656.659256870     A.U. after    8 cycles
 SCF Done:  E(RB3LYP) =  -656.659257305     A.U. after    8 cycles
 SCF Done:  E(RB3LYP) =  -656.659257422     A.U. after    7 cycles
 Optimization completed.
    -- Stationary point found.
 Normal termination of Gaussian 09 at Thu Sep 30 09:44:58 2021.

 ----------------------------------------------------------------------
 #p freq b3lyp/6-31G* volume NMR pop=NPA density=current Geom=AllCheck
 Guess=Read
 ----------------------------------------------------------------------

 COCCOc1ccc2c(c1)CCCC2_conf_0
 ----------------------------
 Redundant internal coordinates taken from checkpoint file:
 C13H18O2_3651_conf_0.chk
 Charge =  0 Multiplicity = 1

 SCF Done:  E(RB3LYP) =  -656.659257422     A.U. after    1 cycles

  1  C    Isotropic =   132.2796   Anisotropy =    80.6323

  2  O    Isotropic =   315.0109   Anisotropy =    26.1565

  3  C    Isotropic =   120.0350   Anisotropy =    75.6084

  4  C    Isotropic =   125.9070   Anisotropy =    57.9891

  5  O    Isotropic =   232.2132   Anisotropy =    59.7959

  6  C    Isotropic =    41.3844   Anisotropy =   120.5439

  7  C    Isotropic =    87.7626   Anisotropy =   137.7803

  8  C    Isotropic =    66.2147   Anisotropy =   145.9877

  9  C    Isotropic =    67.4607   Anisotropy =   165.0775

 10  C    Isotropic =    58.3166   Anisotropy =   174.3501

 11  C    Isotropic =    78.5139   Anisotropy =   117.6843

 12  C    Isotropic =   158.1597   Anisotropy =    18.9378

 13  C    Isotropic =   164.5856   Anisotropy =     6.4748

 14  C    Isotropic =   164.3913   Anisotropy =     6.1704

 15  C    Isotropic =   159.1000   Anisotropy =    16.9664

 16  H    Isotropic =    28.5520   Anisotropy =     9.0537

 17  H    Isotropic =    28.9533   Anisotropy =     8.3031

 18  H    Isotropic =    28.9521   Anisotropy =     8.3056

 19  H    Isotropic =    28.5446   Anisotropy =     4.3510

 20  H    Isotropic =    28.5474   Anisotropy =     4.3539

 21  H    Isotropic =    28.3150   Anisotropy =     5.3079

 22  H    Isotropic =    28.3165   Anisotropy =     5.3160

 23  H    Isotropic =    25.9393   Anisotropy =     7.5934

 24  H    Isotropic =    25.3642   Anisotropy =     7.2227

 25  H    Isotropic =    25.8432   Anisotropy =     8.8444

 26  H    Isotropic =    29.5704   Anisotropy =     7.5971

 27  H    Isotropic =    29.4056   Anisotropy =     7.0548

 28  H    Isotropic =    30.4839   Anisotropy =     7.5287

 29  H    Isotropic =    30.4715   Anisotropy =     9.2754

 30  H    Isotropic =    30.4530   Anisotropy =     9.3533

 31  H    Isotropic =    30.4817   Anisotropy =     7.5305

 32  H    Isotropic =    29.4421   Anisotropy =     7.4453

 33  H    Isotropic =    29.6011   Anisotropy =     7.8156

  Exact polarizability: 204.874  -1.493 137.526  -0.070  -1.091  88.127
 Approx polarizability: 247.828   0.813 225.153  -0.375  -2.941 133.819

                     1                      2                      3
                     A                      A                      A
 Frequencies --    26.4888                67.2192                69.1463
 Red. masses --     4.5846                 4.1383                 2.3063
 Frc consts  --     0.0019                 0.0110                 0.0065
 IR Inten    --     0.4216                 0.4473                 2.0887

                     4                      5                      6
                     A                      A                      A
 Frequencies --    81.9445               107.9451               135.3849
 Red. masses --     2.5467                 2.5441                 2.6997
 Frc consts  --     0.0101                 0.0175                 0.0292
 IR Inten    --     0.6009                 0.1298                 4.0809

                     7                      8                      9
                     A                      A                      A
 Frequencies --   148.5566               203.5285               218.8171
 Red. masses --     2.3313                 3.8285                 3.2235
 Frc consts  --     0.0303                 0.0934                 0.0909
 IR Inten    --     2.2775                 2.3019                 0.2321

                    10                     11                     12
                     A                      A                      A
 Frequencies --   231.6038               240.9340               306.6276
 Red. masses --     4.8975                 1.2557                 1.8958
 Frc consts  --     0.1548                 0.0429                 0.1050
 IR Inten    --     0.0721                 4.1590                 0.8207

                    13                     14                     15
                     A                      A                      A
 Frequencies --   335.7255               349.6253               438.4368
 Red. masses --     4.0512                 3.0065                 3.5545
 Frc consts  --     0.2690                 0.2165                 0.4026
 IR Inten    --     1.6952                 2.5859                 0.5407

                    16                     17                     18
                     A                      A                      A
 Frequencies --   438.9017               451.0440               458.9655
 Red. masses --     3.1164                 3.1303                 3.5055
 Frc consts  --     0.3537                 0.3752                 0.4351
 IR Inten    --     1.2062                 1.4348                 0.8174

                    19                     20                     21
                     A                      A                      A
 Frequencies --   520.9289               571.1322               602.6895
 Red. masses --     3.4123                 3.5000                 3.7777
 Frc consts  --     0.5456                 0.6726                 0.8085
 IR Inten    --     2.4216                 1.5167                 3.2834

                    22                     23                     24
                     A                      A                      A
 Frequencies --   628.0597               710.4582               741.6655
 Red. masses --     2.7763                 3.1317                 3.9953
 Frc consts  --     0.6452                 0.9313                 1.2948
 IR Inten    --     2.1920                 0.1715                 6.4383

                    25                     26                     27
                     A                      A                      A
 Frequencies --   749.8430               810.8534               842.7493
 Red. masses --     5.6959                 1.3761                 1.4821
 Frc consts  --     1.8869                 0.5331                 0.6202
 IR Inten    --     6.4448                18.3237                 5.6941

                    28                     29                     30
                     A                      A                      A
 Frequencies --   860.8313               875.5670               884.7998
 Red. masses --     1.1315                 2.5979                 1.4134
 Frc consts  --     0.4940                 1.1734                 0.6519
 IR Inten    --     4.1982                 0.9674                 8.8187

                    31                     32                     33
                     A                      A                      A
 Frequencies --   923.7564               930.4089               947.4161
 Red. masses --     1.8366                 2.0393                 1.3759
 Frc consts  --     0.9234                 1.0401                 0.7277
 IR Inten    --     7.0159                 3.8145                 1.1138

                    34                     35                     36
                     A                      A                      A
 Frequencies --   959.7458              1001.7107              1010.8586
 Red. masses --     2.6573                 3.1693                 2.8052
 Frc consts  --     1.4421                 1.8737                 1.6889
 IR Inten    --     2.1503                22.4826                 6.1005

                    37                     38                     39
                     A                      A                      A
 Frequencies --  1078.9731              1088.6272              1104.1574
 Red. masses --     2.1917                 2.3169                 3.2333
 Frc consts  --     1.5033                 1.6178                 2.3225
 IR Inten    --     8.3557                37.1471                 2.2364

                    40                     41                     42
                     A                      A                      A
 Frequencies --  1113.3333              1154.2201              1168.3296
 Red. masses --     1.8505                 2.2026                 1.1751
 Frc consts  --     1.3514                 1.7289                 0.9451
 IR Inten    --     1.6974                43.4400                 1.9793

                    43                     44                     45
                     A                      A                      A
 Frequencies --  1170.0910              1178.6599              1196.0807
 Red. masses --     1.3953                 4.5831                 1.3665
 Frc consts  --     1.1256                 3.7514                 1.1518
 IR Inten    --     0.2372               223.2264                25.3386

                    46                     47                     48
                     A                      A                      A
 Frequencies --  1198.6842              1199.3309              1226.4460
 Red. masses --     1.3552                 1.6247                 2.2437
 Frc consts  --     1.1472                 1.3769                 1.9884
 IR Inten    --     1.3103                25.9644                14.4417

                    49                     50                     51
                     A                      A                      A
 Frequencies --  1242.2420              1247.3196              1269.2024
 Red. masses --     1.7833                 1.1624                 1.5549
 Frc consts  --     1.6214                 1.0655                 1.4757
 IR Inten    --    52.3899                 7.6722                24.8232

                    52                     53                     54
                     A                      A                      A
 Frequencies --  1288.4908              1309.2573              1315.4023
 Red. masses --     1.2853                 2.5750                 1.1020
 Frc consts  --     1.2572                 2.6006                 1.1234
 IR Inten    --    31.5524               192.4234                 0.0149

                    55                     56                     57
                     A                      A                      A
 Frequencies --  1325.9318              1343.3906              1375.5469
 Red. masses --     1.3986                 4.2002                 1.4281
 Frc consts  --     1.4487                 4.4660                 1.5920
 IR Inten    --    89.5696                16.2013                 6.7881

                    58                     59                     60
                     A                      A                      A
 Frequencies --  1380.1630              1388.2811              1393.9257
 Red. masses --     1.3638                 1.4606                 1.5044
 Frc consts  --     1.5306                 1.6585                 1.7222
 IR Inten    --    28.9194                 1.0850                14.9012

                    61                     62                     63
                     A                      A                      A
 Frequencies --  1406.3826              1464.4709              1478.4815
 Red. masses --     1.5872                 1.5861                 3.0858
 Frc consts  --     1.8496                 2.0042                 3.9742
 IR Inten    --    24.9172                 1.1441                11.1952

                    64                     65                     66
                     A                      A                      A
 Frequencies --  1503.9852              1506.4326              1512.8620
 Red. masses --     1.1383                 1.1907                 1.0903
 Frc consts  --     1.5170                 1.5920                 1.4703
 IR Inten    --     4.4164                 2.8983                 3.1982

                    67                     68                     69
                     A                      A                      A
 Frequencies --  1515.3190              1520.1384              1531.4617
 Red. masses --     1.0481                 1.0874                 1.1078
 Frc consts  --     1.4179                 1.4804                 1.5308
 IR Inten    --     5.1176                 3.9812                 2.6507

                    70                     71                     72
                     A                      A                      A
 Frequencies --  1534.1105              1545.6461              1557.9335
 Red. masses --     1.0629                 1.6066                 1.4332
 Frc consts  --     1.4738                 2.2615                 2.0495
 IR Inten    --     9.3634               126.7833                23.8011

                    73                     74                     75
                     A                      A                      A
 Frequencies --  1565.6168              1629.6806              1673.6802
 Red. masses --     1.1077                 6.3925                 6.2504
 Frc consts  --     1.5997                10.0029                10.3158
 IR Inten    --     0.8522                28.5951                84.7272

                    76                     77                     78
                     A                      A                      A
 Frequencies --  2985.6506              2997.7879              3006.6124
 Red. masses --     1.0451                 1.0462                 1.0704
 Frc consts  --     5.4892                 5.5397                 5.7010
 IR Inten    --    36.4911                72.8854                30.5702

                    79                     80                     81
                     A                      A                      A
 Frequencies --  3012.8845              3021.8339              3028.6251
 Red. masses --     1.0700                 1.1072                 1.0552
 Frc consts  --     5.7225                 5.9571                 5.7029
 IR Inten    --    19.1680                44.4364                43.2411

                    82                     83                     84
                     A                      A                      A
 Frequencies --  3028.9851              3034.3516              3036.5109
 Red. masses --     1.0672                 1.0613                 1.1054
 Frc consts  --     5.7690                 5.7575                 6.0051
 IR Inten    --    13.1465                29.4357                60.8163

                    85                     86                     87
                     A                      A                      A
 Frequencies --  3060.7710              3065.6002              3075.9241
 Red. masses --     1.0910                 1.0920                 1.1105
 Frc consts  --     6.0220                 6.0465                 6.1905
 IR Inten    --    45.8901                32.5601                58.8391

                    88                     89                     90
                     A                      A                      A
 Frequencies --  3078.8993              3082.2253              3138.6309
 Red. masses --     1.0958                 1.1052                 1.0968
 Frc consts  --     6.1201                 6.1864                 6.3661
 IR Inten    --    75.8340                59.5879                34.6265

                    91                     92                     93
                     A                      A                      A
 Frequencies --  3170.6815              3191.2429              3227.5237
 Red. masses --     1.0890                 1.0901                 1.0910
 Frc consts  --     6.4503                 6.5411                 6.6960
 IR Inten    --    21.9256                 7.7092                13.6685

 - Thermochemistry -
 -------------------
 Temperature   298.150 Kelvin.  Pressure   1.00000 Atm.
 Atom     1 has atomic number  6 and mass  12.00000

 Molecular mass:   206.13068 amu.
 Principal axes and moments of inertia in atomic units:
                           1         2         3
     Eigenvalues --   786.505478985.803979664.00514
           X            1.00000   0.00194  -0.00004
           Y           -0.00194   1.00000  -0.00101
           Z            0.00004   0.00101   1.00000
 This molecule is an asymmetric top.
 Rotational symmetry number  1.
 Warning -- assumption of classical behavior for rotation
           may cause significant error
 Rotational temperatures (Kelvin)      0.11012     0.00964     0.00896
 Rotational constants (GHZ):           2.29463     0.20084     0.18675
 Zero-point vibrational energy     758620.2 (Joules/Mol)
                                  181.31459 (Kcal/Mol)
 Warning -- explicit consideration of  21 degrees of freedom as
           vibrations may cause significant error
 Vibrational temperatures:     38.11    96.71    99.49   117.90   155.31
          (Kelvin)            194.79   213.74   292.83   314.83   333.23
                              346.65   441.17   483.03   503.03   630.81
                              631.48   648.95   660.35   749.50   821.73
                              867.13   903.64  1022.19  1067.09  1078.86
                             1166.64  1212.53  1238.54  1259.74  1273.03
                             1329.08  1338.65  1363.12  1380.86  1441.24
                             1454.40  1552.40  1566.29  1588.63  1601.84
                             1660.66  1680.96  1683.50  1695.83  1720.89
                             1724.64  1725.57  1764.58  1787.31  1794.61
                             1826.10  1853.85  1883.73  1892.57  1907.72
                             1932.84  1979.10  1985.74  1997.42  2005.55
                             2023.47  2107.04  2127.20  2163.90  2167.42
                             2176.67  2180.20  2187.14  2203.43  2207.24
                             2223.84  2241.52  2252.57  2344.74  2408.05
                             4295.68  4313.14  4325.84  4334.86  4347.74
                             4357.51  4358.03  4365.75  4368.86  4403.76
                             4410.71  4425.56  4429.84  4434.63  4515.78
                             4561.90  4591.48  4643.68

 Zero-point correction=                           0.288943 (Hartree/Particle)
 Thermal correction to Energy=                    0.303380
 Thermal correction to Enthalpy=                  0.304324
 Thermal correction to Gibbs Free Energy=         0.246486
 Sum of electronic and zero-point Energies=           -656.370314
 Sum of electronic and thermal Energies=              -656.355878
 Sum of electronic and thermal Enthalpies=            -656.354934
 Sum of electronic and thermal Free Energies=         -656.412771

                     E (Thermal)             CV                S
                      KCal/Mol        Cal/Mol-Kelvin    Cal/Mol-Kelvin
 Total                  190.374             54.646            121.729
 Electronic               0.000              0.000              0.000
 Translational            0.889              2.981             41.874
 Rotational               0.889              2.981             32.590
 Vibrational            188.596             48.684             47.265
 Vibration     1          0.593              1.985              6.076
 Vibration     2          0.598              1.970              4.233
 Vibration     3          0.598              1.969              4.178
 Vibration     4          0.600              1.962              3.844
 Vibration     5          0.606              1.943              3.306
 Vibration     6          0.613              1.918              2.868
 Vibration     7          0.618              1.904              2.691
 Vibration     8          0.639              1.835              2.101
 Vibration     9          0.647              1.812              1.969
 Vibration    10          0.653              1.793              1.866
 Vibration    11          0.658              1.778              1.796
 Vibration    12          0.697              1.661              1.380
 Vibration    13          0.717              1.604              1.232
 Vibration    14          0.727              1.576              1.168
 Vibration    15          0.799              1.386              0.832
 Vibration    16          0.799              1.385              0.830
 Vibration    17          0.810              1.359              0.793
 Vibration    18          0.817              1.341              0.769
 Vibration    19          0.876              1.204              0.608
 Vibration    20          0.927              1.094              0.502
 Vibration    21          0.961              1.026              0.445

 Optimization completed.
    -- Stationary point found.
 Normal termination of Gaussian 09 at Thu Sep 30 10:45:49 2021.
 Gaussian 09:  AM64L-G09RevA.02 11-Jun-2009

 ----------------------------------------------------------------------
 #p TD(NStates=10, Root=1) b3lyp/6-31G* volume pop=NPA density=current
 Geom=AllCheck Guess=Read
 ----------------------------------------------------------------------

 COCCOc1ccc2c(c1)CCCC2_conf_0
 ----------------------------
 Redundant internal coordinates taken from checkpoint file:
 C13H18O2_3651_conf_0.chk
 Charge =  0 Multiplicity = 1

                         Standard orientation:
 ---------------------------------------------------------------------
 Center     Atomic      Atomic             Coordinates (Angstroms)
 Number     Number       Type             X           Y           Z
 ---------------------------------------------------------------------
      1          6           0       -6.350152   -0.280359    0.014438
      2          8           0       -5.106663    0.387735   -0.004553
      3          6           0       -4.008473   -0.500172    0.011940
      4          6           0       -2.744922    0.347440   -0.008728
      5          8           0       -1.647801   -0.554326    0.009979
      6          6           0       -0.378483   -0.040063   -0.001734
      7          6           0       -0.073740    1.325182   -0.031945
      8          6           0        1.265462    1.715610   -0.042896
      9          6           0        2.315053    0.792310   -0.024455
     10          6           0        1.997654   -0.580646    0.011643
     11          6           0        0.658879   -0.976582    0.019912
     12          6           0        3.084863   -1.641498    0.081028
     13          6           0        4.468188   -1.122665   -0.332469
     14          6           0        4.766554    0.210772    0.361697
     15          6           0        3.754706    1.276659   -0.078468
     16          1           0       -7.128354    0.487095   -0.000165
     17          1           0       -6.469084   -0.893970    0.921923
     18          1           0       -6.475024   -0.933943   -0.863868
     19          1           0       -4.022686   -1.170356   -0.863113
     20          1           0       -4.018676   -1.132292    0.914959
     21          1           0       -2.725815    1.010459    0.866862
     22          1           0       -2.727904    0.971235   -0.912762
     23          1           0       -0.854290    2.077381   -0.045357
     24          1           0        1.498962    2.778509   -0.067555
     25          1           0        0.396603   -2.031281    0.045767
     26          1           0        2.798350   -2.503583   -0.534724
     27          1           0        3.142353   -2.018027    1.113993
     28          1           0        4.501229   -0.978853   -1.421855
     29          1           0        5.232967   -1.870211   -0.088969
     30          1           0        5.785594    0.548577    0.137035
     31          1           0        4.710790    0.072038    1.450867
     32          1           0        3.993024    1.582321   -1.109343
     33          1           0        3.864144    2.181691    0.533111
 ---------------------------------------------------------------------

 SCF Done:  E(RB3LYP) =  -656.659257422     A.U. after    1 cycles

 Excitation energies and oscillator strengths:

 Excited State   1:      Singlet-A      4.9789 eV  249.02 nm  f=0.0368  <S**2>=0.000
      55 -> 58        -0.29856
      56 -> 57         0.62767
 This state for optimization and/or second-order correction.
 Total Energy, E(TD-HF/TD-KS) =  -656.476286275
 Copying the excited state density for this state as the 1-particle RhoCI density.

 Excited State   2:      Singlet-A      5.7485 eV  215.68 nm  f=0.1052  <S**2>=0.000
      55 -> 57         0.37616
      56 -> 57        -0.12953
      56 -> 58         0.58065

 Excited State   3:      Singlet-A      6.5750 eV  188.57 nm  f=0.5776  <S**2>=0.000
      53 -> 57        -0.11477
      55 -> 57         0.53731
      55 -> 58        -0.17429
      56 -> 57        -0.10067
      56 -> 58        -0.36810

 Excited State   4:      Singlet-A      6.6832 eV  185.52 nm  f=0.3094  <S**2>=0.000
      54 -> 57         0.48754
      55 -> 57         0.18706
      55 -> 58         0.41336
      56 -> 57         0.18434

 Excited State   5:      Singlet-A      6.7584 eV  183.45 nm  f=0.2495  <S**2>=0.000
      53 -> 57        -0.10619
      54 -> 57         0.50762
      55 -> 57        -0.10691
      55 -> 58        -0.41894
      56 -> 57        -0.18279

 Excited State   6:      Singlet-A      7.1764 eV  172.77 nm  f=0.0007  <S**2>=0.000
      54 -> 58         0.70540

 Excited State   7:      Singlet-A      7.1930 eV  172.37 nm  f=0.0002  <S**2>=0.000
      56 -> 59         0.64132
      56 -> 60         0.17411
      56 -> 61        -0.22096

 Excited State   8:      Singlet-A      7.2906 eV  170.06 nm  f=0.0019  <S**2>=0.000
      52 -> 57         0.68966

 Excited State   9:      Singlet-A      7.4539 eV  166.33 nm  f=0.0044  <S**2>=0.000
      51 -> 57        -0.14684
      53 -> 57         0.24878
      56 -> 59        -0.21047
      56 -> 60         0.56219
      56 -> 61        -0.18107
      56 -> 62         0.10064

 Excited State  10:      Singlet-A      7.4770 eV  165.82 nm  f=0.0047  <S**2>=0.000
      51 -> 57         0.61688
      53 -> 57        -0.20012
      56 -> 60         0.18471
      56 -> 61        -0.10859

 The electronic state is 1-A.
 Alpha  occ. eigenvalues --  -19.17110 -19.15231 -10.23775 -10.23762 -10.23374
 Alpha  occ. eigenvalues --  -10.23005 -10.18642 -10.18133 -10.18029 -10.17990
 Alpha  occ. eigenvalues --  -10.17900 -10.17827 -10.17826 -10.17783 -10.17227
 Alpha  occ. eigenvalues --   -1.05836  -1.03566  -0.85302  -0.80433  -0.77144
 Alpha  occ. eigenvalues --   -0.75565  -0.72494  -0.70883  -0.67165  -0.62771
 Alpha  occ. eigenvalues --   -0.61896  -0.59126  -0.58958  -0.54568  -0.51785
 Alpha  occ. eigenvalues --   -0.49836  -0.48508  -0.47710  -0.46468  -0.45292
 Alpha  occ. eigenvalues --   -0.44938  -0.43976  -0.43343  -0.42256  -0.40640
 Alpha  occ. eigenvalues --   -0.39647  -0.38931  -0.38106  -0.37736  -0.37037
 Alpha  occ. eigenvalues --   -0.35538  -0.34733  -0.32807  -0.32687  -0.32047
 Alpha  occ. eigenvalues --   -0.30894  -0.30405  -0.29746  -0.25933  -0.23328
 Alpha  occ. eigenvalues --   -0.20524
 Alpha virt. eigenvalues --    0.00478   0.02212   0.08539   0.09687   0.10906
 Alpha virt. eigenvalues --    0.11045   0.12692   0.13204   0.13474   0.14474
 Alpha virt. eigenvalues --    0.14587   0.15244   0.16064   0.16497   0.17064

 Mulliken atomic charges:
              1
     1  C   -0.193174
     2  O   -0.467052
     3  C   -0.027367
     4  C   -0.057135
     5  O   -0.478541
     6  C    0.368216
     7  C   -0.194643
     8  C   -0.233468
     9  C    0.150416
    10  C    0.107352
    11  C   -0.268844
    12  C   -0.331883
    13  C   -0.264200
    14  C   -0.264700
    15  C   -0.346547
    16  H    0.163390
    17  H    0.135430
    18  H    0.135418
    19  H    0.137510
    20  H    0.137501
    21  H    0.168585
    22  H    0.168570
    23  H    0.126543
    24  H    0.110670
    25  H    0.115375
    26  H    0.134654
    27  H    0.136405
    28  H    0.132687
    29  H    0.127758
    30  H    0.129729
    31  H    0.137055
    32  H    0.157980
    33  H    0.146309
 Sum of Mulliken atomic charges =  -0.00000

 Dipole moment (field-independent basis, Debye):
    X=             -1.8047    Y=             -0.2197    Z=             -0.0308  Tot=              1.8182
 Quadrupole moment (field-independent basis, Debye-Ang):
   XX=            -73.2640   YY=            -89.3094   ZZ=            -92.0480
   XY=              4.9164   XZ=             -0.3468   YZ=             -0.1695

 Summary of Natural Population Analysis:

                                       Natural Population
                Natural  -----------------------------------------------
    Atom  No    Charge         Core      Valence    Rydberg      Total
 -----------------------------------------------------------------------
      C    1   -0.30759      1.99946     4.29383    0.01429     6.30759
      O    2   -0.57367      1.99979     6.56150    0.01238     8.57367
      C    3   -0.11429      1.99930     4.09698    0.01802     6.11429
      C    4   -0.12613      1.99925     4.10942    0.01747     6.12613
      O    5   -0.45139      1.99974     6.43953    0.01213     8.45139
      C    6    0.34034      1.99879     3.63788    0.02300     5.65966
      C    7   -0.32658      1.99904     4.31076    0.01677     6.32658
      C    8   -0.28553      1.99908     4.26670    0.01975     6.28553
      C    9    0.04377      1.99899     3.94176    0.01547     5.95623
      C   10   -0.06347      1.99901     4.04775    0.01671     6.06347
      C   11   -0.32250      1.99900     4.30287    0.02063     6.32250
      C   12   -0.46742      1.99929     4.45651    0.01163     6.46742
      C   13   -0.45443      1.99934     4.44287    0.01222     6.45443
      C   14   -0.45509      1.99933     4.44345    0.01231     6.45509
      C   15   -0.47774      1.99927     4.46661    0.01186     6.47774
      H   16    0.22232      0.00000     0.77706    0.00062     0.77768
      H   17    0.19118      0.00000     0.80688    0.00195     0.80882
      H   18    0.19118      0.00000     0.80688    0.00195     0.80882
      H   19    0.20316      0.00000     0.79398    0.00286     0.79684
      H   20    0.20316      0.00000     0.79398    0.00287     0.79684
      H   21    0.22571      0.00000     0.77120    0.00309     0.77429
      H   22    0.22575      0.00000     0.77113    0.00312     0.77425
      H   23    0.22939      0.00000     0.76969    0.00092     0.77061
      H   24    0.22504      0.00000     0.77388    0.00108     0.77496
      H   25    0.23279      0.00000     0.76573    0.00149     0.76721
      H   26    0.23699      0.00000     0.76024    0.00277     0.76301
      H   27    0.22891      0.00000     0.76691    0.00418     0.77109
      H   28    0.22656      0.00000     0.77144    0.00200     0.77344
      H   29    0.23650      0.00000     0.76177    0.00173     0.76350
      H   30    0.23735      0.00000     0.76129    0.00136     0.76265
      H   31    0.22880      0.00000     0.76919    0.00200     0.77120
      H   32    0.25014      0.00000     0.74771    0.00215     0.74986
      H   33    0.24681      0.00000     0.75081    0.00238     0.75319
 =======================================================================
   * Total *   -0.00000     29.98869    81.73816    0.27315   112.00000

 Normal termination of Gaussian 09 at Thu Sep 30 15:29:23 2021.
