 Gaussian 09, Revision A.02,

 -----------------------------------
 #p opt b3lyp/6-31G* scf=(xqc,tight)
 -----------------------------------

 -------------------------------
 CCC(=O)Oc1ccc2c(c1)cccc2_conf_0
 -------------------------------
 Symbolic Z-matrix:
 Charge =  0 Multiplicity = 1

 SCF Done:  E(RB3LYP) =  -653.077407537     A.U. after   15 cycles
 SCF Done:  E(RB3LYP) =  -653.083143249     A.U. after   12 cycles
 SCF Done:  E(RB3LYP) =  -653.083371817     A.U. after   12 cycles
 SCF Done:  E(RB3LYP) =  -653.083047973     A.U. after   12 cycles
 SCF Done:  E(RB3LYP) =  -653.083647968     A.U. after   12 cycles
 SCF Done:  E(RB3LYP) =  -653.083818015     A.U. after   11 cycles
 SCF Done:  E(RB3LYP) =  -653.083958909     A.U. after   11 cycles
 SCF Done:  E(RB3LYP) =  -653.084062085     A.U. after   11 cycles
 SCF Done:  E(RB3LYP) =  -653.084164914     A.U. after   12 cycles
 SCF Done:  E(RB3LYP) =  -653.084226942     A.U. after   11 cycles
 SCF Done:  E(RB3LYP) =  -653.084237354     A.U. after   13 cycles
 SCF Done:  E(RB3LYP) =  -653.084274781     A.U. after   12 cycles
 SCF Done:  E(RB3LYP) =  -653.084290694     A.U. after   11 cycles
 SCF Done:  E(RB3LYP) =  -653.084300999     A.U. after   11 cycles
 SCF Done:  E(RB3LYP) =  -653.084302705     A.U. after   10 cycles
 SCF Done:  E(RB3LYP) =  -653.084303608     A.U. after   10 cycles
 SCF Done:  E(RB3LYP) =  -653.084303588     A.U. after    9 cycles
 SCF Done:  E(RB3LYP) =  -653.084303754     A.U. after    7 cycles
 Optimization completed.
    -- Stationary point found.
 Normal termination of Gaussian 09 at Wed Sep 29 03:52:20 2021.

 ----------------------------------------------------------------------
 #p freq b3lyp/6-31G* volume NMR pop=NPA density=current Geom=AllCheck
 Guess=Read
 ----------------------------------------------------------------------

 CCC(=O)Oc1ccc2c(c1)cccc2_conf_0
 -------------------------------
 Redundant internal coordinates taken from checkpoint file:
 C13H12O2_4204_conf_0.chk
 Charge =  0 Multiplicity = 1

 SCF Done:  E(RB3LYP) =  -653.084303754     A.U. after    1 cycles

  1  C    Isotropic =   179.1712   Anisotropy =    11.8599

  2  C    Isotropic =   160.4092   Anisotropy =    35.6559

  3  C    Isotropic =    25.8385   Anisotropy =    73.8586

  4  O    Isotropic =   -79.3594   Anisotropy =   584.5400

  5  O    Isotropic =   109.9693   Anisotropy =   169.7062

  6  C    Isotropic =    44.9582   Anisotropy =   104.6912

  7  C    Isotropic =    76.9871   Anisotropy =   134.8691

  8  C    Isotropic =    67.1144   Anisotropy =   143.2168

  9  C    Isotropic =    66.3129   Anisotropy =   195.8171

 10  C    Isotropic =    62.4211   Anisotropy =   195.1951

 11  C    Isotropic =    78.0314   Anisotropy =   130.6960

 12  C    Isotropic =    66.9270   Anisotropy =   146.3595

 13  C    Isotropic =    69.8226   Anisotropy =   162.6715

 14  C    Isotropic =    70.9523   Anisotropy =   160.9123

 15  C    Isotropic =    68.1877   Anisotropy =   145.5486

 16  H    Isotropic =    31.3964   Anisotropy =     9.5320

 17  H    Isotropic =    30.8482   Anisotropy =     7.9558

 18  H    Isotropic =    30.8034   Anisotropy =     8.0086

 19  H    Isotropic =    29.6582   Anisotropy =     5.7712

 20  H    Isotropic =    29.6539   Anisotropy =     5.4131

 21  H    Isotropic =    25.2336   Anisotropy =     6.7021

 22  H    Isotropic =    24.6310   Anisotropy =     6.7175

 23  H    Isotropic =    23.2627   Anisotropy =    11.6169

 24  H    Isotropic =    24.5303   Anisotropy =     7.6638

 25  H    Isotropic =    24.7862   Anisotropy =     5.2701

 26  H    Isotropic =    24.8412   Anisotropy =     5.0086

 27  H    Isotropic =    24.6425   Anisotropy =     6.8056

  Exact polarizability: 222.982  13.494 148.782   1.165  -1.029  58.475
 Approx polarizability: 319.058  28.571 271.165   2.617  -1.593  90.288

                     1                      2                      3
                     A                      A                      A
 Frequencies --    15.1804                41.9156                59.5253
 Red. masses --     5.4942                 4.0548                 2.0373
 Frc consts  --     0.0007                 0.0042                 0.0043
 IR Inten    --     1.4782                 0.9486                 1.1344

                     4                      5                      6
                     A                      A                      A
 Frequencies --    99.7761               141.3240               185.9046
 Red. masses --     4.3114                 4.7606                 3.6961
 Frc consts  --     0.0253                 0.0560                 0.0753
 IR Inten    --     1.0401                 0.0151                 0.5726

                     7                      8                      9
                     A                      A                      A
 Frequencies --   217.3619               232.2417               281.8407
 Red. masses --     1.1657                 4.4652                 5.4864
 Frc consts  --     0.0325                 0.1419                 0.2568
 IR Inten    --     0.4534                 1.3549                 0.5442

                    10                     11                     12
                     A                      A                      A
 Frequencies --   318.3749               333.7351               409.7260
 Red. masses --     4.9729                 5.1392                 3.3927
 Frc consts  --     0.2970                 0.3373                 0.3356
 IR Inten    --     1.2268                14.0244                 0.0005

                    13                     14                     15
                     A                      A                      A
 Frequencies --   426.1063               486.1254               517.8311
 Red. masses --     4.3825                 2.5951                 6.5860
 Frc consts  --     0.4688                 0.3613                 1.0405
 IR Inten    --     4.3863                10.4329                 0.0766

                    16                     17                     18
                     A                      A                      A
 Frequencies --   529.4545               537.0065               568.3407
 Red. masses --     7.1048                 3.2683                 2.6368
 Frc consts  --     1.1734                 0.5553                 0.5018
 IR Inten    --     0.5451                 0.1527                 2.5032

                    19                     20                     21
                     A                      A                      A
 Frequencies --   631.6452               651.0398               685.2735
 Red. masses --     6.2840                 3.1793                 4.1979
 Frc consts  --     1.4772                 0.7940                 1.1615
 IR Inten    --     2.7672                 0.0583                 5.9524

                    22                     23                     24
                     A                      A                      A
 Frequencies --   733.5796               765.4321               773.3231
 Red. masses --     7.0618                 1.3099                 3.1672
 Frc consts  --     2.2390                 0.4522                 1.1160
 IR Inten    --     2.7717                21.4626                 2.2784

                    25                     26                     27
                     A                      A                      A
 Frequencies --   786.2627               816.4174               830.9160
 Red. masses --     4.7764                 1.3771                 1.3912
 Frc consts  --     1.7397                 0.5408                 0.5659
 IR Inten    --     0.2458                10.9481                28.7587

                    28                     29                     30
                     A                      A                      A
 Frequencies --   877.9061               896.6315               915.1589
 Red. masses --     1.5210                 4.7394                 4.8732
 Frc consts  --     0.6907                 2.2449                 2.4047
 IR Inten    --    14.9143                 7.6964                 2.9170

                    31                     32                     33
                     A                      A                      A
 Frequencies --   918.2112               954.6450               965.2743
 Red. masses --     1.4879                 1.3217                 1.3099
 Frc consts  --     0.7391                 0.7097                 0.7191
 IR Inten    --    17.9358                 4.4655                 0.9073

                    34                     35                     36
                     A                      A                      A
 Frequencies --   977.0372               990.2670              1024.0444
 Red. masses --     4.2003                 1.2733                 1.9081
 Frc consts  --     2.3624                 0.7357                 1.1789
 IR Inten    --    11.2192                 0.1064                 3.7370

                    37                     38                     39
                     A                      A                      A
 Frequencies --  1052.1186              1106.1709              1117.8080
 Red. masses --     2.2873                 2.1671                 1.6485
 Frc consts  --     1.4918                 1.5624                 1.2136
 IR Inten    --     1.7558                15.0839                 0.2607

                    40                     41                     42
                     A                      A                      A
 Frequencies --  1147.1196              1177.2844              1181.4803
 Red. masses --     1.7813                 1.3352                 1.5908
 Frc consts  --     1.3810                 1.0903                 1.3084
 IR Inten    --     2.1756                17.7391                13.3122

                    43                     44                     45
                     A                      A                      A
 Frequencies --  1188.2059              1201.0487              1247.8981
 Red. masses --     1.1841                 3.3554                 2.9035
 Frc consts  --     0.9849                 2.8518                 2.6639
 IR Inten    --     5.0729               766.9378               113.7878

                    46                     47                     48
                     A                      A                      A
 Frequencies --  1283.7417              1294.1299              1296.4868
 Red. masses --     1.7147                 1.1766                 1.8372
 Frc consts  --     1.6649                 1.1610                 1.8194
 IR Inten    --   109.0063                 0.0645                18.9369

                    49                     50                     51
                     A                      A                      A
 Frequencies --  1397.0140              1397.4645              1413.2254
 Red. masses --     1.8230                 1.9454                 5.1218
 Frc consts  --     2.0963                 2.2384                 6.0270
 IR Inten    --    63.2217                 4.6820                30.1651

                    52                     53                     54
                     A                      A                      A
 Frequencies --  1427.0482              1447.3776              1488.3574
 Red. masses --     5.0458                 1.2470                 2.4369
 Frc consts  --     6.0542                 1.5391                 3.1806
 IR Inten    --    50.3781                 4.0148                 4.6781

                    55                     56                     57
                     A                      A                      A
 Frequencies --  1492.0383              1514.5723              1525.4502
 Red. masses --     1.1002                 2.2058                 1.0385
 Frc consts  --     1.4431                 2.9812                 1.4238
 IR Inten    --    10.2735                42.4469                 5.9733

                    58                     59                     60
                     A                      A                      A
 Frequencies --  1531.2321              1565.1448              1631.6284
 Red. masses --     1.0539                 3.4418                 7.3686
 Frc consts  --     1.4559                 4.9676                11.5579
 IR Inten    --    10.9618                22.4024                 8.4079

                    61                     62                     63
                     A                      A                      A
 Frequencies --  1658.6998              1684.1285              1830.0363
 Red. masses --     5.3739                 6.1402                11.7245
 Frc consts  --     8.7112                10.2608                23.1348
 IR Inten    --    46.0204                22.2396               166.6711

                    64                     65                     66
                     A                      A                      A
 Frequencies --  3054.3406              3068.3230              3084.3857
 Red. masses --     1.0617                 1.0357                 1.1009
 Frc consts  --     5.8357                 5.7447                 6.1708
 IR Inten    --    12.3013                25.6480                 5.7319

                    67                     68                     69
                     A                      A                      A
 Frequencies --  3137.1017              3143.7483              3177.9516
 Red. masses --     1.1029                 1.1031                 1.0860
 Frc consts  --     6.3949                 6.4233                 6.4622
 IR Inten    --    23.9452                22.6371                 3.0136

                    70                     71                     72
                     A                      A                      A
 Frequencies --  3183.8867              3188.1156              3196.7565
 Red. masses --     1.0879                 1.0886                 1.0934
 Frc consts  --     6.4974                 6.5188                 6.5834
 IR Inten    --     0.8465                 9.3018                33.2064

                    73                     74                     75
                     A                      A                      A
 Frequencies --  3209.3020              3218.7264              3279.6472
 Red. masses --     1.0972                 1.0939                 1.0911
 Frc consts  --     6.6584                 6.6771                 6.9147
 IR Inten    --    32.0468                 8.2690                 2.2989

 - Thermochemistry -
 -------------------
 Temperature   298.150 Kelvin.  Pressure   1.00000 Atm.
 Atom     1 has atomic number  6 and mass  12.00000

 Molecular mass:   200.08373 amu.
 Principal axes and moments of inertia in atomic units:
                           1         2         3
     Eigenvalues --   995.463266346.433797316.18619
           X            1.00000  -0.00056   0.00018
           Y            0.00056   1.00000  -0.00186
           Z           -0.00018   0.00186   1.00000
 This molecule is an asymmetric top.
 Rotational symmetry number  1.
 Warning -- assumption of classical behavior for rotation
           may cause significant error
 Rotational temperatures (Kelvin)      0.08701     0.01365     0.01184
 Rotational constants (GHZ):           1.81297     0.28437     0.24668
 Zero-point vibrational energy     573214.8 (Joules/Mol)
                                  137.00163 (Kcal/Mol)
 Warning -- explicit consideration of  18 degrees of freedom as
           vibrations may cause significant error
 Vibrational temperatures:     21.84    60.31    85.64   143.56   203.33
          (Kelvin)            267.47   312.73   334.14   405.51   458.07
                              480.17   589.50   613.07   699.43   745.04
                              761.77   772.63   817.71   908.80   936.70
                              985.95  1055.46  1101.28  1112.64  1131.26
                             1174.64  1195.50  1263.11  1290.05  1316.71
                             1321.10  1373.52  1388.81  1405.74  1424.77
                             1473.37  1513.76  1591.53  1608.27  1650.45
                             1693.85  1699.88  1709.56  1728.04  1795.44
                             1847.02  1861.96  1865.35  2009.99  2010.64
                             2033.31  2053.20  2082.45  2141.41  2146.71
                             2179.13  2194.78  2203.10  2251.89  2347.55
                             2386.50  2423.08  2633.01  4394.51  4414.63
                             4437.74  4513.58  4523.15  4572.36  4580.90
                             4586.98  4599.41  4617.46  4631.02  4718.67

 Zero-point correction=                           0.218326 (Hartree/Particle)
 Thermal correction to Energy=                    0.231188
 Thermal correction to Enthalpy=                  0.232132
 Thermal correction to Gibbs Free Energy=         0.176914
 Sum of electronic and zero-point Energies=           -652.865978
 Sum of electronic and thermal Energies=              -652.853116
 Sum of electronic and thermal Enthalpies=            -652.852171
 Sum of electronic and thermal Free Energies=         -652.907390

                     E (Thermal)             CV                S
                      KCal/Mol        Cal/Mol-Kelvin    Cal/Mol-Kelvin
 Total                  145.073             49.455            116.217
 Electronic               0.000              0.000              0.000
 Translational            0.889              2.981             41.785
 Rotational               0.889              2.981             32.203
 Vibrational            143.295             43.494             42.229
 Vibration     1          0.593              1.986              7.182
 Vibration     2          0.595              1.980              5.166
 Vibration     3          0.597              1.974              4.473
 Vibration     4          0.604              1.949              3.459
 Vibration     5          0.615              1.912              2.786
 Vibration     6          0.632              1.859              2.268
 Vibration     7          0.646              1.815              1.981
 Vibration     8          0.653              1.792              1.862
 Vibration     9          0.681              1.707              1.522
 Vibration    10          0.705              1.638              1.318
 Vibration    11          0.715              1.608              1.242
 Vibration    12          0.774              1.449              0.928
 Vibration    13          0.788              1.413              0.871
 Vibration    14          0.842              1.281              0.694
 Vibration    15          0.873              1.211              0.615
 Vibration    16          0.884              1.185              0.588
 Vibration    17          0.892              1.168              0.572
 Vibration    18          0.924              1.100              0.507

 Optimization completed.
    -- Stationary point found.
 Normal termination of Gaussian 09 at Wed Sep 29 04:48:08 2021.
 Gaussian 09:  AM64L-G09RevA.02 11-Jun-2009

 ----------------------------------------------------------------------
 #p TD(NStates=10, Root=1) b3lyp/6-31G* volume pop=NPA density=current
 Geom=AllCheck Guess=Read
 ----------------------------------------------------------------------

 CCC(=O)Oc1ccc2c(c1)cccc2_conf_0
 -------------------------------
 Redundant internal coordinates taken from checkpoint file:
 C13H12O2_4204_conf_0.chk
 Charge =  0 Multiplicity = 1

                         Standard orientation:
 ---------------------------------------------------------------------
 Center     Atomic      Atomic             Coordinates (Angstroms)
 Number     Number       Type             X           Y           Z
 ---------------------------------------------------------------------
      1          6           0        5.288813   -0.693452   -0.049805
      2          6           0        4.206029    0.378293    0.056226
      3          6           0        2.803976   -0.197149   -0.005415
      4          8           0        2.533161   -1.370726   -0.103327
      5          8           0        1.897299    0.820228    0.068473
      6          6           0        0.510779    0.672185    0.033885
      7          6           0       -0.163654    1.919272   -0.008293
      8          6           0       -1.535215    1.959812   -0.033284
      9          6           0       -2.302177    0.763275   -0.017288
     10          6           0       -1.608822   -0.488908    0.026375
     11          6           0       -0.186369   -0.515558    0.052857
     12          6           0       -2.369731   -1.689210    0.042979
     13          6           0       -3.746083   -1.653100    0.017536
     14          6           0       -4.430038   -0.413781   -0.025983
     15          6           0       -3.721585    0.766974   -0.043032
     16          1           0        6.281983   -0.235849    0.000984
     17          1           0        5.208708   -1.241295   -0.993366
     18          1           0        5.201920   -1.422193    0.761458
     19          1           0        4.298095    1.123401   -0.744345
     20          1           0        4.292700    0.944038    0.993064
     21          1           0        0.431501    2.826769   -0.019655
     22          1           0       -2.050335    2.916685   -0.065905
     23          1           0        0.331761   -1.462807    0.082108
     24          1           0       -1.843535   -2.640048    0.075991
     25          1           0       -4.313982   -2.579519    0.030682
     26          1           0       -5.516340   -0.398763   -0.045969
     27          1           0       -4.241689    1.721640   -0.076760
 ---------------------------------------------------------------------

 SCF Done:  E(RB3LYP) =  -653.084303754     A.U. after    2 cycles

 Excitation energies and oscillator strengths:

 Excited State   1:      Singlet-A      4.3393 eV  285.72 nm  f=0.0332  <S**2>=0.000
      52 -> 54         0.25096
      52 -> 55         0.13630
      53 -> 54         0.59096
      53 -> 55        -0.23598
 This state for optimization and/or second-order correction.
 Total Energy, E(TD-HF/TD-KS) =  -652.924836890
 Copying the excited state density for this state as the 1-particle RhoCI density.

 Excited State   2:      Singlet-A      4.4324 eV  279.72 nm  f=0.0087  <S**2>=0.000
      52 -> 54        -0.42971
      53 -> 54         0.34504
      53 -> 55         0.42962

 Excited State   3:      Singlet-A      5.2985 eV  234.00 nm  f=0.4574  <S**2>=0.000
      52 -> 54         0.33319
      53 -> 55         0.42065
      53 -> 56         0.44337

 Excited State   4:      Singlet-A      5.3987 eV  229.66 nm  f=0.0053  <S**2>=0.000
      51 -> 54         0.54036
      51 -> 55         0.34036
      51 -> 56         0.28340

 Excited State   5:      Singlet-A      5.6463 eV  219.59 nm  f=0.2976  <S**2>=0.000
      50 -> 54         0.27751
      52 -> 54         0.21895
      52 -> 55         0.39162
      52 -> 56         0.17140
      53 -> 55         0.14970
      53 -> 56        -0.36346
      53 -> 57        -0.16393

 Excited State   6:      Singlet-A      5.7972 eV  213.87 nm  f=0.0448  <S**2>=0.000
      50 -> 54        -0.39603
      52 -> 55         0.40160
      52 -> 56         0.13326
      53 -> 57         0.39107

 Excited State   7:      Singlet-A      6.0164 eV  206.08 nm  f=0.0081  <S**2>=0.000
      51 -> 54        -0.43784
      51 -> 55         0.47281
      51 -> 56         0.24639

 Excited State   8:      Singlet-A      6.0847 eV  203.76 nm  f=0.3490  <S**2>=0.000
      49 -> 54         0.18479
      50 -> 55         0.24018
      52 -> 54        -0.19937
      52 -> 55         0.34261
      52 -> 56        -0.25623
      52 -> 57        -0.16039
      53 -> 55        -0.12299
      53 -> 56         0.24018
      53 -> 57        -0.24948

 Excited State   9:      Singlet-A      6.2139 eV  199.53 nm  f=0.3986  <S**2>=0.000
      50 -> 54         0.18175
      50 -> 55        -0.31028
      52 -> 54        -0.20560
      52 -> 55         0.11578
      52 -> 56         0.35485
      52 -> 57         0.24694
      53 -> 55        -0.17190
      53 -> 56         0.28294

 Excited State  10:      Singlet-A      6.4800 eV  191.33 nm  f=0.0420  <S**2>=0.000
      49 -> 54         0.14985
      50 -> 54        -0.21295
      50 -> 55         0.19932
      50 -> 56        -0.10880
      52 -> 55        -0.11565
      52 -> 56         0.45818
      52 -> 57        -0.26310
      53 -> 57        -0.23904

 The electronic state is 1-A.
 Alpha  occ. eigenvalues --  -19.20691 -19.14618 -10.32532 -10.25617 -10.20557
 Alpha  occ. eigenvalues --  -10.19941 -10.19714 -10.19566 -10.19458 -10.19063
 Alpha  occ. eigenvalues --  -10.19025 -10.18959 -10.18875 -10.18749 -10.18280
 Alpha  occ. eigenvalues --   -1.11141  -1.03061  -0.87296  -0.82441  -0.78989
 Alpha  occ. eigenvalues --   -0.77187  -0.74596  -0.72096  -0.67937  -0.63481
 Alpha  occ. eigenvalues --   -0.61241  -0.59771  -0.56901  -0.51795  -0.51115
 Alpha  occ. eigenvalues --   -0.50208  -0.48641  -0.47186  -0.45874  -0.44587
 Alpha  occ. eigenvalues --   -0.43584  -0.43443  -0.42019  -0.41254  -0.39316
 Alpha  occ. eigenvalues --   -0.38872  -0.37979  -0.37563  -0.36557  -0.36034
 Alpha  occ. eigenvalues --   -0.34938  -0.34242  -0.33406  -0.31000  -0.28232
 Alpha  occ. eigenvalues --   -0.27559  -0.23638  -0.21315
 Alpha virt. eigenvalues --   -0.03837  -0.01371   0.01356   0.03564   0.09234
 Alpha virt. eigenvalues --    0.09739   0.10550   0.11418   0.12511   0.14597
 Alpha virt. eigenvalues --    0.15125   0.15538   0.16949   0.17186   0.18000

 Mulliken atomic charges:
              1
     1  C   -0.437779
     2  C   -0.356595
     3  C    0.613864
     4  O   -0.449147
     5  O   -0.499137
     6  C    0.348922
     7  C   -0.195868
     8  C   -0.213657
     9  C    0.157874
    10  C    0.127518
    11  C   -0.243610
    12  C   -0.194631
    13  C   -0.154014
    14  C   -0.111329
    15  C   -0.206879
    16  H    0.147473
    17  H    0.164848
    18  H    0.165280
    19  H    0.178143
    20  H    0.178646
    21  H    0.132170
    22  H    0.128927
    23  H    0.189448
    24  H    0.133799
    25  H    0.124948
    26  H    0.138508
    27  H    0.132277
 Sum of Mulliken atomic charges =  -0.00000

 Dipole moment (field-independent basis, Debye):
    X=              0.7186    Y=              1.3604    Z=              0.1443  Tot=              1.5452
 Quadrupole moment (field-independent basis, Debye-Ang):
   XX=            -70.3359   YY=            -84.5174   ZZ=            -89.2285
   XY=              3.5664   XZ=              0.6493   YZ=             -0.6638

 Summary of Natural Population Analysis:

                                       Natural Population
                Natural  -----------------------------------------------
    Atom  No    Charge         Core      Valence    Rydberg      Total
 -----------------------------------------------------------------------
      C    1   -0.67883      1.99947     4.67042    0.00894     6.67883
      C    2   -0.55789      1.99924     4.54911    0.00953     6.55789
      C    3    0.82782      1.99942     3.12854    0.04422     5.17218
      O    4   -0.58085      1.99977     6.56111    0.01997     8.58085
      O    5   -0.51129      1.99969     6.50040    0.01120     8.51129
      C    6    0.36319      1.99873     3.61631    0.02177     5.63681
      C    7   -0.32329      1.99905     4.30717    0.01707     6.32329
      C    8   -0.21949      1.99907     4.20464    0.01578     6.21949
      C    9   -0.05011      1.99903     4.03606    0.01502     6.05011
      C   10   -0.04623      1.99903     4.03185    0.01534     6.04623
      C   11   -0.26549      1.99898     4.25120    0.01532     6.26549
      C   12   -0.20174      1.99906     4.18724    0.01544     6.20174
      C   13   -0.29100      1.99912     4.27567    0.01621     6.29100
      C   14   -0.16233      1.99911     4.14846    0.01477     6.16233
      C   15   -0.22430      1.99907     4.20990    0.01534     6.22430
      H   16    0.23572      0.00000     0.76350    0.00077     0.76428
      H   17    0.24041      0.00000     0.75853    0.00107     0.75959
      H   18    0.24077      0.00000     0.75815    0.00108     0.75923
      H   19    0.26122      0.00000     0.73743    0.00135     0.73878
      H   20    0.26145      0.00000     0.73721    0.00133     0.73855
      H   21    0.24456      0.00000     0.75440    0.00103     0.75544
      H   22    0.23351      0.00000     0.76540    0.00108     0.76649
      H   23    0.26830      0.00000     0.72994    0.00176     0.73170
      H   24    0.23318      0.00000     0.76570    0.00112     0.76682
      H   25    0.23503      0.00000     0.76418    0.00079     0.76497
      H   26    0.23527      0.00000     0.76387    0.00086     0.76473
      H   27    0.23241      0.00000     0.76645    0.00114     0.76759
 =======================================================================
   * Total *   -0.00000     29.98783    75.74284    0.26933   106.00000

 Normal termination of Gaussian 09 at Wed Sep 29 08:52:38 2021.
