 Gaussian 09, Revision A.02,

 -----------------------------------
 #p opt b3lyp/6-31G* scf=(xqc,tight)
 -----------------------------------

 ----------------------------------
 O=C(N(C)C)Oc1ccc2c(c1)cccc2_conf_0
 ----------------------------------
 Symbolic Z-matrix:
 Charge =  0 Multiplicity = 1

 SCF Done:  E(RB3LYP) =  -708.430972889     A.U. after   15 cycles
 SCF Done:  E(RB3LYP) =  -708.437234723     A.U. after   12 cycles
 SCF Done:  E(RB3LYP) =  -708.437305191     A.U. after   12 cycles
 SCF Done:  E(RB3LYP) =  -708.437636747     A.U. after   11 cycles
 SCF Done:  E(RB3LYP) =  -708.437935674     A.U. after   11 cycles
 SCF Done:  E(RB3LYP) =  -708.437972456     A.U. after   10 cycles
 SCF Done:  E(RB3LYP) =  -708.438031885     A.U. after   11 cycles
 SCF Done:  E(RB3LYP) =  -708.438071356     A.U. after   11 cycles
 SCF Done:  E(RB3LYP) =  -708.438097621     A.U. after   10 cycles
 SCF Done:  E(RB3LYP) =  -708.438116739     A.U. after   10 cycles
 SCF Done:  E(RB3LYP) =  -708.438159467     A.U. after   11 cycles
 SCF Done:  E(RB3LYP) =  -708.438164331     A.U. after   10 cycles
 SCF Done:  E(RB3LYP) =  -708.438166064     A.U. after    9 cycles
 SCF Done:  E(RB3LYP) =  -708.438166978     A.U. after    9 cycles
 SCF Done:  E(RB3LYP) =  -708.438167920     A.U. after    9 cycles
 SCF Done:  E(RB3LYP) =  -708.438168023     A.U. after    7 cycles
 SCF Done:  E(RB3LYP) =  -708.438168048     A.U. after    7 cycles
 SCF Done:  E(RB3LYP) =  -708.438168049     A.U. after    6 cycles
 Optimization completed.
    -- Stationary point found.
 Normal termination of Gaussian 09 at Tue Sep 28 21:40:46 2021.

 ----------------------------------------------------------------------
 #p freq b3lyp/6-31G* volume NMR pop=NPA density=current Geom=AllCheck
 Guess=Read
 ----------------------------------------------------------------------

 O=C(N(C)C)Oc1ccc2c(c1)cccc2_conf_0
 ----------------------------------
 Redundant internal coordinates taken from checkpoint file:
 C13H13NO2_e6d7_conf_0.chk
 Charge =  0 Multiplicity = 1

 SCF Done:  E(RB3LYP) =  -708.438168049     A.U. after    1 cycles

  1  O    Isotropic =    67.0610   Anisotropy =   385.4458

  2  C    Isotropic =    46.6338   Anisotropy =    76.3805

  3  N    Isotropic =   180.5864   Anisotropy =    82.9074

  4  C    Isotropic =   155.3388   Anisotropy =    51.1785

  5  C    Isotropic =   155.5530   Anisotropy =    49.5682

  6  O    Isotropic =   145.6114   Anisotropy =   126.7525

  7  C    Isotropic =    45.8738   Anisotropy =   107.2650

  8  C    Isotropic =    72.7593   Anisotropy =   150.3453

  9  C    Isotropic =    67.1706   Anisotropy =   142.0652

 10  C    Isotropic =    66.0697   Anisotropy =   196.0608

 11  C    Isotropic =    63.1829   Anisotropy =   194.8184

 12  C    Isotropic =    78.1687   Anisotropy =   118.3703

 13  C    Isotropic =    68.3581   Anisotropy =   144.7342

 14  C    Isotropic =    70.2030   Anisotropy =   161.9821

 15  C    Isotropic =    71.3452   Anisotropy =   160.4673

 16  C    Isotropic =    67.7386   Anisotropy =   146.5332

 17  H    Isotropic =    28.1309   Anisotropy =     6.9284

 18  H    Isotropic =    29.8811   Anisotropy =     9.2770

 19  H    Isotropic =    29.8974   Anisotropy =     9.3400

 20  H    Isotropic =    28.1901   Anisotropy =     5.2308

 21  H    Isotropic =    29.6492   Anisotropy =     9.1783

 22  H    Isotropic =    29.6929   Anisotropy =     8.8741

 23  H    Isotropic =    24.6592   Anisotropy =     9.1659

 24  H    Isotropic =    24.6044   Anisotropy =     6.9503

 25  H    Isotropic =    25.0889   Anisotropy =     8.9060

 26  H    Isotropic =    24.6274   Anisotropy =     7.5792

 27  H    Isotropic =    24.8397   Anisotropy =     5.1875

 28  H    Isotropic =    24.8472   Anisotropy =     4.9841

 29  H    Isotropic =    24.5749   Anisotropy =     6.9519

  Exact polarizability: 243.809   3.384 143.825  10.125  10.116  71.672
 Approx polarizability: 343.601   6.885 254.291  21.819  19.673 112.421

                     1                      2                      3
                     A                      A                      A
 Frequencies --    28.4880                36.8029                46.3280
 Red. masses --     4.2758                 2.5824                 1.6593
 Frc consts  --     0.0020                 0.0021                 0.0021
 IR Inten    --     0.9023                 2.1138                 0.1168

                     4                      5                      6
                     A                      A                      A
 Frequencies --    75.0823               115.7562               143.9764
 Red. masses --     4.0765                 2.7337                 2.1891
 Frc consts  --     0.0135                 0.0216                 0.0267
 IR Inten    --     1.7457                 0.7233                 0.6746

                     7                      8                      9
                     A                      A                      A
 Frequencies --   150.8144               189.7304               224.0573
 Red. masses --     1.9900                 3.6410                 2.0281
 Frc consts  --     0.0267                 0.0772                 0.0600
 IR Inten    --     0.1251                 1.6670                 4.0874

                    10                     11                     12
                     A                      A                      A
 Frequencies --   233.7645               272.1004               314.7793
 Red. masses --     4.9843                 5.4824                 5.1270
 Frc consts  --     0.1605                 0.2392                 0.2993
 IR Inten    --     1.5912                 0.7045                 0.1851

                    13                     14                     15
                     A                      A                      A
 Frequencies --   375.7627               410.2073               419.3121
 Red. masses --     3.6678                 3.3103                 3.5574
 Frc consts  --     0.3051                 0.3282                 0.3685
 IR Inten    --    18.7663                 1.6184                 1.9406

                    16                     17                     18
                     A                      A                      A
 Frequencies --   457.5104               490.0938               524.8386
 Red. masses --     4.2147                 2.6157                 6.1120
 Frc consts  --     0.5198                 0.3702                 0.9919
 IR Inten    --     6.2970                 9.2347                 0.0783

                    19                     20                     21
                     A                      A                      A
 Frequencies --   538.2675               558.3844               621.9576
 Red. masses --     4.0421                 6.5175                 4.9821
 Frc consts  --     0.6900                 1.1973                 1.1355
 IR Inten    --     0.7613                 4.6777                 4.9731

                    22                     23                     24
                     A                      A                      A
 Frequencies --   641.9552               658.8200               737.8882
 Red. masses --     6.6085                 3.3745                10.6813
 Frc consts  --     1.6046                 0.8630                 3.4265
 IR Inten    --     1.7677                 2.0893                21.8957

                    25                     26                     27
                     A                      A                      A
 Frequencies --   757.3116               766.2792               770.8942
 Red. masses --     2.2462                 2.1101                 3.1985
 Frc consts  --     0.7590                 0.7300                 1.1199
 IR Inten    --     3.1670                19.8632                 2.8490

                    28                     29                     30
                     A                      A                      A
 Frequencies --   783.4611               819.7625               845.4187
 Red. masses --     4.5826                 1.6006                 2.6211
 Frc consts  --     1.6573                 0.6337                 1.1038
 IR Inten    --     1.9926                30.0470                 7.4910

                    31                     32                     33
                     A                      A                      A
 Frequencies --   879.2123               901.4509               917.8641
 Red. masses --     1.8222                 1.6975                 4.6503
 Frc consts  --     0.8299                 0.8127                 2.3083
 IR Inten    --    14.7351                17.0902                12.2632

                    34                     35                     36
                     A                      A                      A
 Frequencies --   950.0852               961.1522               978.3835
 Red. masses --     1.3091                 1.3408                 3.9864
 Frc consts  --     0.6962                 0.7298                 2.2483
 IR Inten    --     1.0445                 2.7851                26.8282

                    37                     38                     39
                     A                      A                      A
 Frequencies --   988.2929              1045.0306              1051.7959
 Red. masses --     1.2695                 2.6803                 2.2460
 Frc consts  --     0.7306                 1.7246                 1.4639
 IR Inten    --     0.0035                14.2635                 1.4842

                    40                     41                     42
                     A                      A                      A
 Frequencies --  1094.5263              1144.8702              1152.8321
 Red. masses --     1.3642                 1.2157                 1.7039
 Frc consts  --     0.9629                 0.9388                 1.3342
 IR Inten    --     7.5268                 0.1007                10.4109

                    43                     44                     45
                     A                      A                      A
 Frequencies --  1183.3183              1186.0430              1187.6666
 Red. masses --     1.2378                 1.8843                 1.2092
 Frc consts  --     1.0212                 1.5617                 1.0049
 IR Inten    --     8.3994               170.2304                32.1810

                    46                     47                     48
                     A                      A                      A
 Frequencies --  1191.1886              1202.9559              1254.9530
 Red. masses --     1.3500                 2.1069                 3.1862
 Frc consts  --     1.1286                 1.7964                 2.9565
 IR Inten    --     1.8936               658.9762               230.4646

                    49                     50                     51
                     A                      A                      A
 Frequencies --  1278.3146              1294.3268              1301.2121
 Red. masses --     1.9200                 1.8529                 4.7974
 Frc consts  --     1.8485                 1.8289                 4.7858
 IR Inten    --   174.7175                 9.4101                10.2049

                    52                     53                     54
                     A                      A                      A
 Frequencies --  1397.9630              1411.5603              1420.9349
 Red. masses --     1.9519                 4.7090                 5.5749
 Frc consts  --     2.2475                 5.5282                 6.6318
 IR Inten    --     7.7222                22.5565                53.0880

                    55                     56                     57
                     A                      A                      A
 Frequencies --  1441.8438              1460.3978              1488.6068
 Red. masses --     2.6373                 1.1831                 2.4907
 Frc consts  --     3.2303                 1.4867                 3.2519
 IR Inten    --   277.5287                29.5579                 3.0194

                    58                     59                     60
                     A                      A                      A
 Frequencies --  1489.8926              1519.0836              1519.3558
 Red. masses --     1.2249                 2.1569                 1.0654
 Frc consts  --     1.6020                 2.9326                 1.4490
 IR Inten    --    73.6447                12.5576                 0.5240

                    61                     62                     63
                     A                      A                      A
 Frequencies --  1530.5579              1531.6458              1562.7170
 Red. masses --     1.0491                 1.0462                 2.2480
 Frc consts  --     1.4479                 1.4460                 3.2345
 IR Inten    --    14.6643                17.2124                68.6111

                    64                     65                     66
                     A                      A                      A
 Frequencies --  1567.1692              1629.8031              1663.1781
 Red. masses --     1.5090                 7.0723                 5.3752
 Frc consts  --     2.1836                11.0683                 8.7604
 IR Inten    --    13.7637                 2.3172                21.3355

                    67                     68                     69
                     A                      A                      A
 Frequencies --  1690.5067              1816.4138              3028.4508
 Red. masses --     6.3915                10.8742                 1.0401
 Frc consts  --    10.7619                21.1387                 5.6206
 IR Inten    --    22.6717               400.4461                28.2146

                    70                     71                     72
                     A                      A                      A
 Frequencies --  3036.1336              3073.2132              3079.4074
 Red. masses --     1.0406                 1.1044                 1.1051
 Frc consts  --     5.6516                 6.1456                 6.1743
 IR Inten    --   126.6136                54.5794                19.6781

                    73                     74                     75
                     A                      A                      A
 Frequencies --  3177.4307              3181.8645              3188.6553
 Red. masses --     1.0855                 1.0883                 1.0896
 Frc consts  --     6.4568                 6.4915                 6.5273
 IR Inten    --     3.4946                 0.4973                 9.9157

                    76                     77                     78
                     A                      A                      A
 Frequencies --  3194.6984              3195.4955              3205.3300
 Red. masses --     1.0961                 1.0933                 1.0914
 Frc consts  --     6.5914                 6.5774                 6.6065
 IR Inten    --     0.8566                35.3354                13.5470

                    79                     80                     81
                     A                      A                      A
 Frequencies --  3208.6879              3211.6783              3249.3454
 Red. masses --     1.0968                 1.0943                 1.0931
 Frc consts  --     6.6535                 6.6502                 6.8000
 IR Inten    --    28.7110                 3.2287                 2.9859

 - Thermochemistry -
 -------------------
 Temperature   298.150 Kelvin.  Pressure   1.00000 Atm.
 Atom     1 has atomic number  8 and mass  15.99491

 Molecular mass:   215.09463 amu.
 Principal axes and moments of inertia in atomic units:
                           1         2         3
     Eigenvalues --  1036.834267609.219508279.87286
           X            0.99998  -0.00558   0.00223
           Y            0.00556   0.99994   0.00918
           Z           -0.00228  -0.00917   0.99996
 This molecule is an asymmetric top.
 Rotational symmetry number  1.
 Warning -- assumption of classical behavior for rotation
           may cause significant error
 Rotational temperatures (Kelvin)      0.08354     0.01138     0.01046
 Rotational constants (GHZ):           1.74063     0.23718     0.21797
 Zero-point vibrational energy     618034.5 (Joules/Mol)
                                  147.71379 (Kcal/Mol)
 Warning -- explicit consideration of  20 degrees of freedom as
           vibrations may cause significant error
 Vibrational temperatures:     40.99    52.95    66.66   108.03   166.55
          (Kelvin)            207.15   216.99   272.98   322.37   336.33
                              391.49   452.90   540.64   590.20   603.30
                              658.25   705.13   755.12   774.45   803.39
                              894.86   923.63   947.89  1061.66  1089.60
                             1102.50  1109.14  1127.22  1179.45  1216.37
                             1264.99  1296.99  1320.60  1366.96  1382.88
                             1407.67  1421.93  1503.56  1513.30  1574.78
                             1647.21  1658.67  1702.53  1706.45  1708.79
                             1713.85  1730.78  1805.60  1839.21  1862.25
                             1872.15  2011.35  2030.92  2044.41  2074.49
                             2101.18  2141.77  2143.62  2185.62  2186.01
                             2202.13  2203.69  2248.40  2254.80  2344.92
                             2392.94  2432.26  2613.41  4357.26  4368.31
                             4421.66  4430.57  4571.61  4577.99  4587.76
                             4596.45  4597.60  4611.75  4616.58  4620.88
                             4675.08

 Zero-point correction=                           0.235397 (Hartree/Particle)
 Thermal correction to Energy=                    0.249745
 Thermal correction to Enthalpy=                  0.250689
 Thermal correction to Gibbs Free Energy=         0.192330
 Sum of electronic and zero-point Energies=           -708.202771
 Sum of electronic and thermal Energies=              -708.188423
 Sum of electronic and thermal Enthalpies=            -708.187479
 Sum of electronic and thermal Free Energies=         -708.245838

                     E (Thermal)             CV                S
                      KCal/Mol        Cal/Mol-Kelvin    Cal/Mol-Kelvin
 Total                  156.717             53.983            122.827
 Electronic               0.000              0.000              0.000
 Translational            0.889              2.981             42.001
 Rotational               0.889              2.981             32.546
 Vibrational            154.940             48.022             48.280
 Vibration     1          0.593              1.984              5.932
 Vibration     2          0.594              1.982              5.424
 Vibration     3          0.595              1.979              4.968
 Vibration     4          0.599              1.966              4.015
 Vibration     5          0.608              1.936              3.170
 Vibration     6          0.616              1.909              2.750
 Vibration     7          0.618              1.902              2.662
 Vibration     8          0.633              1.854              2.230
 Vibration     9          0.649              1.804              1.926
 Vibration    10          0.654              1.789              1.850
 Vibration    11          0.675              1.725              1.583
 Vibration    12          0.702              1.645              1.337
 Vibration    13          0.747              1.522              1.056
 Vibration    14          0.774              1.448              0.926
 Vibration    15          0.782              1.428              0.894
 Vibration    16          0.816              1.344              0.773
 Vibration    17          0.846              1.272              0.683
 Vibration    18          0.880              1.195              0.599
 Vibration    19          0.893              1.165              0.569
 Vibration    20          0.914              1.121              0.527

 Optimization completed.
    -- Stationary point found.
 Normal termination of Gaussian 09 at Tue Sep 28 22:38:51 2021.
 Gaussian 09:  AM64L-G09RevA.02 11-Jun-2009

 ----------------------------------------------------------------------
 #p TD(NStates=10, Root=1) b3lyp/6-31G* volume pop=NPA density=current
 Geom=AllCheck Guess=Read
 ----------------------------------------------------------------------

 O=C(N(C)C)Oc1ccc2c(c1)cccc2_conf_0
 ----------------------------------
 Redundant internal coordinates taken from checkpoint file:
 C13H13NO2_e6d7_conf_0.chk
 Charge =  0 Multiplicity = 1

                         Standard orientation:
 ---------------------------------------------------------------------
 Center     Atomic      Atomic             Coordinates (Angstroms)
 Number     Number       Type             X           Y           Z
 ---------------------------------------------------------------------
      1          8           0       -2.366060   -1.259355    0.957261
      2          6           0       -2.567303   -0.282571    0.260851
      3          7           0       -3.789659    0.266565    0.001195
      4          6           0       -4.965684   -0.337769    0.606723
      5          6           0       -4.017316    1.446284   -0.818995
      6          8           0       -1.569091    0.424195   -0.377043
      7          6           0       -0.248700   -0.002906   -0.260360
      8          6           0        0.125137   -1.340889   -0.534588
      9          6           0        1.455536   -1.685470   -0.496697
     10          6           0        2.462833   -0.728611   -0.197403
     11          6           0        2.068611    0.623220    0.068512
     12          6           0        0.689458    0.957238    0.031767
     13          6           0        3.072667    1.584440    0.363799
     14          6           0        4.401998    1.227366    0.396676
     15          6           0        4.791912   -0.108948    0.134226
     16          6           0        3.842441   -1.062966   -0.156038
     17          1           0       -4.657124   -1.208309    1.183314
     18          1           0       -5.678254   -0.646458   -0.169493
     19          1           0       -5.467980    0.379118    1.269955
     20          1           0       -3.076373    1.814056   -1.220147
     21          1           0       -4.487365    2.239902   -0.222263
     22          1           0       -4.690409    1.203745   -1.652253
     23          1           0       -0.637878   -2.076394   -0.755272
     24          1           0        1.752366   -2.711217   -0.701319
     25          1           0        0.369004    1.975780    0.230405
     26          1           0        2.772520    2.609960    0.565957
     27          1           0        5.159300    1.972545    0.625147
     28          1           0        5.844361   -0.377687    0.163121
     29          1           0        4.137117   -2.090210   -0.358110
 ---------------------------------------------------------------------

 SCF Done:  E(RB3LYP) =  -708.438168049     A.U. after    1 cycles

 Excitation energies and oscillator strengths:

 Excited State   1:      Singlet-A      4.3655 eV  284.01 nm  f=0.0387  <S**2>=0.000
      56 -> 58         0.25176
      56 -> 59        -0.15121
      57 -> 58         0.58982
      57 -> 59         0.24516
 This state for optimization and/or second-order correction.
 Total Energy, E(TD-HF/TD-KS) =  -708.277737043
 Copying the excited state density for this state as the 1-particle RhoCI density.

 Excited State   2:      Singlet-A      4.5009 eV  275.47 nm  f=0.0162  <S**2>=0.000
      56 -> 58         0.44703
      57 -> 58        -0.34710
      57 -> 59         0.40943

 Excited State   3:      Singlet-A      5.2000 eV  238.43 nm  f=0.0231  <S**2>=0.000
      55 -> 58         0.68225
      56 -> 58         0.16405

 Excited State   4:      Singlet-A      5.7039 eV  217.37 nm  f=0.0053  <S**2>=0.000
      53 -> 58         0.14459
      54 -> 58         0.61190
      57 -> 60         0.30002

 Excited State   5:      Singlet-A      5.7763 eV  214.64 nm  f=1.0039  <S**2>=0.000
      53 -> 58        -0.25315
      54 -> 58         0.18752
      55 -> 58         0.12791
      55 -> 59         0.16609
      56 -> 58        -0.34390
      56 -> 59         0.19566
      57 -> 59         0.40385
      57 -> 60        -0.12748

 Excited State   6:      Singlet-A      5.8479 eV  212.02 nm  f=0.2341  <S**2>=0.000
      53 -> 58         0.40202
      54 -> 58        -0.24987
      55 -> 59         0.12490
      56 -> 58        -0.15110
      56 -> 59         0.16367
      57 -> 59         0.19308
      57 -> 60         0.39435

 Excited State   7:      Singlet-A      6.0091 eV  206.33 nm  f=0.2773  <S**2>=0.000
      52 -> 58        -0.12237
      55 -> 59         0.42055
      56 -> 58         0.20490
      56 -> 59         0.42532
      57 -> 59        -0.19022
      57 -> 60        -0.11679

 Excited State   8:      Singlet-A      6.0904 eV  203.57 nm  f=0.0806  <S**2>=0.000
      55 -> 59         0.52196
      56 -> 59        -0.42769
      57 -> 58        -0.10819

 Excited State   9:      Singlet-A      6.2447 eV  198.54 nm  f=0.0146  <S**2>=0.000
      52 -> 58         0.17436
      53 -> 58        -0.13851
      53 -> 59        -0.26314
      54 -> 59        -0.36641
      56 -> 59         0.10058
      56 -> 60         0.41254
      57 -> 60         0.14205
      57 -> 61        -0.13694

 Excited State  10:      Singlet-A      6.4863 eV  191.15 nm  f=0.0171  <S**2>=0.000
      52 -> 58        -0.28257
      53 -> 58        -0.10136
      53 -> 59        -0.21809
      54 -> 59         0.20547
      54 -> 61         0.18176
      56 -> 60         0.24710
      57 -> 60         0.10395
      57 -> 61         0.43881

 The electronic state is 1-A.
 Alpha  occ. eigenvalues --  -19.19475 -19.11632 -14.37117 -10.33371 -10.24980
 Alpha  occ. eigenvalues --  -10.22350 -10.21808 -10.19775 -10.19460 -10.19087
 Alpha  occ. eigenvalues --  -10.18950 -10.18900 -10.18847 -10.18815 -10.18803
 Alpha  occ. eigenvalues --  -10.18759  -1.10588  -1.01414  -0.94275  -0.86970
 Alpha  occ. eigenvalues --   -0.81789  -0.77193  -0.74583  -0.72797  -0.72284
 Alpha  occ. eigenvalues --   -0.69882  -0.62744  -0.62375  -0.59519  -0.56916
 Alpha  occ. eigenvalues --   -0.53564  -0.51276  -0.50321  -0.48721  -0.48307
 Alpha  occ. eigenvalues --   -0.46925  -0.44798  -0.44397  -0.43295  -0.42161
 Alpha  occ. eigenvalues --   -0.41839  -0.41323  -0.40784  -0.40617  -0.39813
 Alpha  occ. eigenvalues --   -0.38735  -0.38144  -0.36976  -0.34618  -0.33539
 Alpha  occ. eigenvalues --   -0.32492  -0.30260  -0.28170  -0.27046  -0.24569
 Alpha  occ. eigenvalues --   -0.23367  -0.21026
 Alpha virt. eigenvalues --   -0.03453  -0.00473   0.03525   0.05321   0.08996
 Alpha virt. eigenvalues --    0.09581   0.10611   0.11674   0.12239   0.13154
 Alpha virt. eigenvalues --    0.14242   0.15102   0.15914   0.17001   0.17248

 Mulliken atomic charges:
              1
     1  O   -0.498087
     2  C    0.786451
     3  N   -0.433453
     4  C   -0.319926
     5  C   -0.318915
     6  O   -0.544438
     7  C    0.382029
     8  C   -0.157060
     9  C   -0.222169
    10  C    0.156819
    11  C    0.134282
    12  C   -0.251301
    13  C   -0.199029
    14  C   -0.158334
    15  C   -0.110836
    16  C   -0.211153
    17  H    0.208744
    18  H    0.157798
    19  H    0.158256
    20  H    0.200448
    21  H    0.159491
    22  H    0.160647
    23  H    0.141729
    24  H    0.130846
    25  H    0.139415
    26  H    0.123383
    27  H    0.119888
    28  H    0.135146
    29  H    0.129327
 Sum of Mulliken atomic charges =  -0.00000

 Dipole moment (field-independent basis, Debye):
    X=             -2.6054    Y=              1.8208    Z=             -1.2346  Tot=              3.4099
 Quadrupole moment (field-independent basis, Debye-Ang):
   XX=            -70.4918   YY=            -88.0860   ZZ=            -96.5957
   XY=             -7.0780   XZ=              3.0917   YZ=              3.4658

 Summary of Natural Population Analysis:

                                       Natural Population
                Natural  -----------------------------------------------
    Atom  No    Charge         Core      Valence    Rydberg      Total
 -----------------------------------------------------------------------
      O    1   -0.63350      1.99978     6.61460    0.01912     8.63350
      C    2    0.94019      1.99937     3.01573    0.04472     5.05981
      N    3   -0.47963      1.99932     5.46937    0.01095     7.47963
      C    4   -0.46994      1.99947     4.45857    0.01191     6.46994
      C    5   -0.47159      1.99946     4.46065    0.01149     6.47159
      O    6   -0.53887      1.99969     6.52893    0.01026     8.53887
      C    7    0.36838      1.99872     3.61062    0.02228     5.63162
      C    8   -0.32607      1.99902     4.31118    0.01587     6.32607
      C    9   -0.20473      1.99907     4.19011    0.01555     6.20473
      C   10   -0.05264      1.99903     4.03854    0.01507     6.05264
      C   11   -0.05407      1.99903     4.03969    0.01535     6.05407
      C   12   -0.23835      1.99896     4.22370    0.01568     6.23835
      C   13   -0.21359      1.99906     4.19900    0.01552     6.21359
      C   14   -0.29734      1.99912     4.28169    0.01653     6.29734
      C   15   -0.16287      1.99911     4.14901    0.01476     6.16287
      C   16   -0.23166      1.99907     4.21704    0.01555     6.23166
      H   17    0.26490      0.00000     0.73361    0.00149     0.73510
      H   18    0.22223      0.00000     0.77648    0.00129     0.77777
      H   19    0.22185      0.00000     0.77683    0.00133     0.77815
      H   20    0.25742      0.00000     0.74175    0.00084     0.74258
      H   21    0.22279      0.00000     0.77567    0.00153     0.77721
      H   22    0.22442      0.00000     0.77410    0.00148     0.77558
      H   23    0.25202      0.00000     0.74696    0.00102     0.74798
      H   24    0.23325      0.00000     0.76564    0.00111     0.76675
      H   25    0.24179      0.00000     0.75666    0.00155     0.75821
      H   26    0.22812      0.00000     0.77073    0.00114     0.77188
      H   27    0.23259      0.00000     0.76661    0.00080     0.76741
      H   28    0.23378      0.00000     0.76535    0.00087     0.76622
      H   29    0.23113      0.00000     0.76772    0.00114     0.76887
 =======================================================================
   * Total *    0.00000     31.98727    81.72653    0.28620   114.00000

 Normal termination of Gaussian 09 at Wed Sep 29 02:33:14 2021.
