 Gaussian 09, Revision A.02,

 -----------------------------------
 #p opt b3lyp/6-31G* scf=(xqc,tight)
 -----------------------------------

 -----------------------------
 CC(Oc1ccc2c(c1)cccc2)C_conf_0
 -----------------------------
 Symbolic Z-matrix:
 Charge =  0 Multiplicity = 1

 SCF Done:  E(RB3LYP) =  -579.046324108     A.U. after   14 cycles
 SCF Done:  E(RB3LYP) =  -579.050986351     A.U. after   15 cycles
 SCF Done:  E(RB3LYP) =  -579.051508200     A.U. after   12 cycles
 SCF Done:  E(RB3LYP) =  -579.051711414     A.U. after   12 cycles
 SCF Done:  E(RB3LYP) =  -579.051840086     A.U. after   12 cycles
 SCF Done:  E(RB3LYP) =  -579.051948530     A.U. after   12 cycles
 SCF Done:  E(RB3LYP) =  -579.051971161     A.U. after   10 cycles
 SCF Done:  E(RB3LYP) =  -579.051974918     A.U. after    8 cycles
 SCF Done:  E(RB3LYP) =  -579.051975318     A.U. after    7 cycles
 Optimization completed.
    -- Stationary point found.
 Normal termination of Gaussian 09 at Tue Sep 28 14:56:11 2021.

 ----------------------------------------------------------------------
 #p freq b3lyp/6-31G* volume NMR pop=NPA density=current Geom=AllCheck
 Guess=Read
 ----------------------------------------------------------------------

 CC(Oc1ccc2c(c1)cccc2)C_conf_0
 -----------------------------
 Redundant internal coordinates taken from checkpoint file:
 C13H14O_eb43_conf_0.chk
 Charge =  0 Multiplicity = 1

 SCF Done:  E(RB3LYP) =  -579.051975318     A.U. after    1 cycles

  1  C    Isotropic =   170.4037   Anisotropy =    28.1532

  2  C    Isotropic =   122.4247   Anisotropy =    57.2246

  3  O    Isotropic =   192.5649   Anisotropy =    70.4547

  4  C    Isotropic =    41.5108   Anisotropy =   121.1777

  5  C    Isotropic =    76.0102   Anisotropy =   133.7111

  6  C    Isotropic =    65.9359   Anisotropy =   143.2355

  7  C    Isotropic =    68.2292   Anisotropy =   190.8574

  8  C    Isotropic =    62.0329   Anisotropy =   195.1207

  9  C    Isotropic =    89.5895   Anisotropy =   118.0512

 10  C    Isotropic =    69.4168   Anisotropy =   140.8205

 11  C    Isotropic =    69.9947   Anisotropy =   161.7057

 12  C    Isotropic =    73.1326   Anisotropy =   157.0413

 13  C    Isotropic =    67.8824   Anisotropy =   145.8360

 14  C    Isotropic =   166.5015   Anisotropy =    32.9023

 15  H    Isotropic =    30.2685   Anisotropy =     5.8147

 16  H    Isotropic =    31.1209   Anisotropy =     7.2488

 17  H    Isotropic =    31.2247   Anisotropy =     8.9448

 18  H    Isotropic =    27.5089   Anisotropy =     2.7859

 19  H    Isotropic =    25.2433   Anisotropy =     7.1896

 20  H    Isotropic =    24.6634   Anisotropy =     6.5996

 21  H    Isotropic =    25.5612   Anisotropy =    10.6966

 22  H    Isotropic =    24.7642   Anisotropy =     7.9622

 23  H    Isotropic =    24.8755   Anisotropy =     5.2656

 24  H    Isotropic =    25.0003   Anisotropy =     4.7493

 25  H    Isotropic =    24.7048   Anisotropy =     6.6715

 26  H    Isotropic =    30.6763   Anisotropy =     6.9195

 27  H    Isotropic =    30.6060   Anisotropy =     8.3809

 28  H    Isotropic =    31.0660   Anisotropy =     8.7480

  Exact polarizability: 215.827  10.390 144.091  -1.106   6.949  65.981
 Approx polarizability: 322.801  28.287 253.621  -1.280  17.185  97.688

                     1                      2                      3
                     A                      A                      A
 Frequencies --    45.8784                70.2135               120.1210
 Red. masses --     3.7346                 2.8158                 3.6304
 Frc consts  --     0.0046                 0.0082                 0.0309
 IR Inten    --     0.8661                 0.0268                 0.6593

                     4                      5                      6
                     A                      A                      A
 Frequencies --   136.2855               188.4633               214.1044
 Red. masses --     4.4459                 3.7282                 1.0263
 Frc consts  --     0.0487                 0.0780                 0.0277
 IR Inten    --     0.1041                 0.8542                 0.1185

                     7                      8                      9
                     A                      A                      A
 Frequencies --   245.8437               277.9128               298.4280
 Red. masses --     1.1309                 3.5522                 3.8722
 Frc consts  --     0.0403                 0.1616                 0.2032
 IR Inten    --     0.0438                 1.1324                 0.0670

                    10                     11                     12
                     A                      A                      A
 Frequencies --   323.2461               391.2461               411.8957
 Red. masses --     3.4799                 3.0876                 3.2828
 Frc consts  --     0.2142                 0.2785                 0.3281
 IR Inten    --     1.4216                 1.6668                 0.2175

                    13                     14                     15
                     A                      A                      A
 Frequencies --   436.8126               486.5423               491.2475
 Red. masses --     3.2142                 2.6566                 3.1883
 Frc consts  --     0.3613                 0.3705                 0.4533
 IR Inten    --     2.4224                 9.2592                 0.5079

                    16                     17                     18
                     A                      A                      A
 Frequencies --   529.2493               539.9085               548.0557
 Red. masses --     5.7179                 4.7488                 3.6909
 Frc consts  --     0.9436                 0.8156                 0.6532
 IR Inten    --     0.1211                 1.5260                 0.5287

                    19                     20                     21
                     A                      A                      A
 Frequencies --   640.4406               654.7083               726.2936
 Red. masses --     6.6494                 3.0468                 4.9183
 Frc consts  --     1.6069                 0.7695                 1.5286
 IR Inten    --     8.8245                 0.0583                 5.3665

                    22                     23                     24
                     A                      A                      A
 Frequencies --   762.6698               769.6266               785.9109
 Red. masses --     1.3350                 2.9216                 4.8391
 Frc consts  --     0.4575                 1.0196                 1.7610
 IR Inten    --    21.1864                 0.0691                 0.1968

                    25                     26                     27
                     A                      A                      A
 Frequencies --   829.1252               850.7681               856.2581
 Red. masses --     1.3466                 2.2757                 1.7306
 Frc consts  --     0.5454                 0.9705                 0.7476
 IR Inten    --     9.8065                23.0566                36.1659

                    28                     29                     30
                     A                      A                      A
 Frequencies --   885.8770               915.1282               945.8099
 Red. masses --     1.6631                 3.6461                 1.3512
 Frc consts  --     0.7690                 1.7990                 0.7121
 IR Inten    --     1.1978                 3.2156                 0.6004

                    31                     32                     33
                     A                      A                      A
 Frequencies --   948.1004               958.5733               962.7185
 Red. masses --     1.3177                 2.8358                 1.4839
 Frc consts  --     0.6979                 1.5352                 0.8103
 IR Inten    --     2.4134                 3.2989                 3.0494

                    34                     35                     36
                     A                      A                      A
 Frequencies --   965.8466               984.4919              1005.3624
 Red. masses --     1.2875                 1.2628                 3.0703
 Frc consts  --     0.7076                 0.7211                 1.8284
 IR Inten    --     0.5152                 0.0058                56.4259

                    37                     38                     39
                     A                      A                      A
 Frequencies --  1053.4875              1149.3196              1158.8601
 Red. masses --     2.2588                 1.6321                 1.9313
 Frc consts  --     1.4770                 1.2702                 1.5282
 IR Inten    --     1.0129                 9.8142                81.7335

                    40                     41                     42
                     A                      A                      A
 Frequencies --  1168.4163              1177.3456              1187.6322
 Red. masses --     2.0064                 1.2349                 1.1777
 Frc consts  --     1.6139                 1.0086                 0.9787
 IR Inten    --    28.5326                 3.4262                 3.7722

                    43                     44                     45
                     A                      A                      A
 Frequencies --  1208.4310              1227.1646              1256.6081
 Red. masses --     1.6864                 1.9258                 2.4527
 Frc consts  --     1.4509                 1.7087                 2.2818
 IR Inten    --    12.8180               110.8257               120.2418

                    46                     47                     48
                     A                      A                      A
 Frequencies --  1297.1563              1299.4849              1387.2126
 Red. masses --     2.1025                 1.9505                 1.2857
 Frc consts  --     2.0843                 1.9406                 1.4577
 IR Inten    --   130.2979                24.1645                26.5976

                    49                     50                     51
                     A                      A                      A
 Frequencies --  1396.7746              1399.7821              1413.6170
 Red. masses --     1.9485                 1.4172                 4.0074
 Frc consts  --     2.2398                 1.6361                 4.7182
 IR Inten    --     4.0092                15.7154                 3.4419

                    52                     53                     54
                     A                      A                      A
 Frequencies --  1430.1090              1435.0709              1445.7056
 Red. masses --     1.3540                 3.7945                 1.2606
 Frc consts  --     1.6316                 4.6041                 1.5523
 IR Inten    --    15.1614                58.9758                20.9042

                    55                     56                     57
                     A                      A                      A
 Frequencies --  1489.9347              1511.0367              1518.4722
 Red. masses --     2.5975                 1.0552                 1.0562
 Frc consts  --     3.3973                 1.4195                 1.4349
 IR Inten    --     6.1332                 1.5013                 2.9080

                    58                     59                     60
                     A                      A                      A
 Frequencies --  1520.5918              1523.9944              1541.3226
 Red. masses --     2.2174                 1.0643                 1.0572
 Frc consts  --     3.0208                 1.4564                 1.4798
 IR Inten    --    65.7729                 3.4724                 5.8617

                    61                     62                     63
                     A                      A                      A
 Frequencies --  1563.7495              1629.9130              1662.2701
 Red. masses --     3.4188                 6.9347                 5.2962
 Frc consts  --     4.9257                10.8544                 8.6223
 IR Inten    --    30.0692                12.0646                63.9545

                    64                     65                     66
                     A                      A                      A
 Frequencies --  1685.3698              3038.7824              3055.8579
 Red. masses --     6.1165                 1.0844                 1.0355
 Frc consts  --    10.2362                 5.8997                 5.6970
 IR Inten    --   101.1211                18.8370                13.4057

                    67                     68                     69
                     A                      A                      A
 Frequencies --  3061.1411              3123.5236              3132.9331
 Red. masses --     1.0356                 1.1029                 1.1024
 Frc consts  --     5.7174                 6.3398                 6.3752
 IR Inten    --    23.3527                 4.0188                43.7950

                    70                     71                     72
                     A                      A                      A
 Frequencies --  3137.7530              3138.9947              3173.7885
 Red. masses --     1.1027                 1.1026                 1.0856
 Frc consts  --     6.3964                 6.4012                 6.4430
 IR Inten    --    17.2060                34.5704                 6.5624

                    73                     74                     75
                     A                      A                      A
 Frequencies --  3177.7593              3183.7800              3192.8415
 Red. masses --     1.0883                 1.0884                 1.0929
 Frc consts  --     6.4752                 6.4999                 6.5640
 IR Inten    --     0.2675                11.3691                35.1535

                    76                     77                     78
                     A                      A                      A
 Frequencies --  3207.1070              3215.7535              3215.9633
 Red. masses --     1.0969                 1.0893                 1.0935
 Frc consts  --     6.6474                 6.6370                 6.6636
 IR Inten    --    37.3162                15.5489                 8.6648

 - Thermochemistry -
 -------------------
 Temperature   298.150 Kelvin.  Pressure   1.00000 Atm.
 Atom     1 has atomic number  6 and mass  12.00000

 Molecular mass:   186.10447 amu.
 Principal axes and moments of inertia in atomic units:
                           1         2         3
     Eigenvalues --  1025.781364922.722275682.15948
           X            0.99995  -0.00960  -0.00009
           Y            0.00960   0.99995  -0.00357
           Z            0.00012   0.00356   0.99999
 This molecule is an asymmetric top.
 Rotational symmetry number  1.
 Warning -- assumption of classical behavior for rotation
           may cause significant error
 Rotational temperatures (Kelvin)      0.08444     0.01759     0.01524
 Rotational constants (GHZ):           1.75938     0.36661     0.31762
 Zero-point vibrational energy     622046.0 (Joules/Mol)
                                  148.67257 (Kcal/Mol)
 Warning -- explicit consideration of  18 degrees of freedom as
           vibrations may cause significant error
 Vibrational temperatures:     66.01   101.02   172.83   196.08   271.16
          (Kelvin)            308.05   353.71   399.85   429.37   465.08
                              562.92   592.63   628.48   700.03   706.79
                              761.47   776.81   788.53   921.45   941.98
                             1044.97  1097.31  1107.32  1130.75  1192.92
                             1224.06  1231.96  1274.58  1316.66  1360.81
                             1364.10  1379.17  1385.14  1389.64  1416.46
                             1446.49  1515.73  1653.61  1667.34  1681.09
                             1693.94  1708.74  1738.66  1765.61  1807.98
                             1866.32  1869.67  1995.89  2009.64  2013.97
                             2033.88  2057.61  2064.74  2080.05  2143.68
                             2174.04  2184.74  2187.79  2192.69  2217.62
                             2249.88  2345.08  2391.63  2424.87  4372.12
                             4396.69  4404.29  4494.05  4507.59  4514.52
                             4516.31  4566.37  4572.08  4580.74  4593.78
                             4614.31  4626.75  4627.05

 Zero-point correction=                           0.236925 (Hartree/Particle)
 Thermal correction to Energy=                    0.249092
 Thermal correction to Enthalpy=                  0.250036
 Thermal correction to Gibbs Free Energy=         0.198510
 Sum of electronic and zero-point Energies=           -578.815050
 Sum of electronic and thermal Energies=              -578.802883
 Sum of electronic and thermal Enthalpies=            -578.801939
 Sum of electronic and thermal Free Energies=         -578.853465

                     E (Thermal)             CV                S
                      KCal/Mol        Cal/Mol-Kelvin    Cal/Mol-Kelvin
 Total                  156.308             48.592            108.446
 Electronic               0.000              0.000              0.000
 Translational            0.889              2.981             41.570
 Rotational               0.889              2.981             31.729
 Vibrational            154.530             42.631             35.148
 Vibration     1          0.595              1.979              4.988
 Vibration     2          0.598              1.968              4.147
 Vibration     3          0.609              1.932              3.098
 Vibration     4          0.614              1.917              2.855
 Vibration     5          0.633              1.856              2.243
 Vibration     6          0.644              1.819              2.008
 Vibration     7          0.660              1.770              1.760
 Vibration     8          0.679              1.714              1.546
 Vibration     9          0.692              1.677              1.426
 Vibration    10          0.708              1.629              1.294
 Vibration    11          0.759              1.489              0.995
 Vibration    12          0.776              1.444              0.920
 Vibration    13          0.797              1.390              0.837
 Vibration    14          0.843              1.280              0.693
 Vibration    15          0.847              1.269              0.680
 Vibration    16          0.884              1.185              0.589
 Vibration    17          0.895              1.162              0.565
 Vibration    18          0.903              1.144              0.548

 Optimization completed.
    -- Stationary point found.
 Normal termination of Gaussian 09 at Tue Sep 28 15:07:08 2021.
 Gaussian 09:  AM64L-G09RevA.02 11-Jun-2009

 ----------------------------------------------------------------------
 #p TD(NStates=10, Root=1) b3lyp/6-31G* volume pop=NPA density=current
 Geom=AllCheck Guess=Read
 ----------------------------------------------------------------------

 CC(Oc1ccc2c(c1)cccc2)C_conf_0
 -----------------------------
 Redundant internal coordinates taken from checkpoint file:
 C13H14O_eb43_conf_0.chk
 Charge =  0 Multiplicity = 1

                         Standard orientation:
 ---------------------------------------------------------------------
 Center     Atomic      Atomic             Coordinates (Angstroms)
 Number     Number       Type             X           Y           Z
 ---------------------------------------------------------------------
      1          6           0        3.219972   -1.207628    1.141411
      2          6           0        3.081732   -0.496299   -0.205310
      3          8           0        2.282666    0.693592   -0.069554
      4          6           0        0.921343    0.614478   -0.027524
      5          6           0        0.273971    1.872801    0.132746
      6          6           0       -1.093693    1.952995    0.173754
      7          6           0       -1.904427    0.789170    0.059192
      8          6           0       -1.253760   -0.476246   -0.099479
      9          6           0        0.167358   -0.538019   -0.137990
     10          6           0       -2.058372   -1.641883   -0.212433
     11          6           0       -3.433363   -1.560693   -0.171532
     12          6           0       -4.074233   -0.308695   -0.014862
     13          6           0       -3.321404    0.839930    0.098006
     14          6           0        4.422598   -0.029959   -0.761669
     15          1           0        2.244794   -1.485226    1.551996
     16          1           0        3.719666   -0.551110    1.862201
     17          1           0        3.817973   -2.119434    1.031730
     18          1           0        2.603114   -1.160648   -0.937397
     19          1           0        0.898429    2.756763    0.216993
     20          1           0       -1.576888    2.919733    0.295008
     21          1           0        0.633185   -1.510327   -0.253927
     22          1           0       -1.569323   -2.605980   -0.333350
     23          1           0       -4.032198   -2.463447   -0.260182
     24          1           0       -5.159125   -0.257289    0.015986
     25          1           0       -3.805988    1.806362    0.218994
     26          1           0        4.899120    0.671642   -0.068401
     27          1           0        4.286723    0.474582   -1.723070
     28          1           0        5.092862   -0.884061   -0.906019
 ---------------------------------------------------------------------

 SCF Done:  E(RB3LYP) =  -579.051975318     A.U. after    2 cycles

 Excitation energies and oscillator strengths:

 Excited State   1:      Singlet-A      4.1741 eV  297.03 nm  f=0.0393  <S**2>=0.000
      49 -> 51         0.16993
      49 -> 52         0.18158
      50 -> 51         0.63344
      50 -> 52        -0.18254
 This state for optimization and/or second-order correction.
 Total Energy, E(TD-HF/TD-KS) =  -578.898578147
 Copying the excited state density for this state as the 1-particle RhoCI density.

 Excited State   2:      Singlet-A      4.5752 eV  270.99 nm  f=0.0097  <S**2>=0.000
      49 -> 51         0.50647
      50 -> 51        -0.25570
      50 -> 52        -0.41368

 Excited State   3:      Singlet-A      5.6254 eV  220.40 nm  f=0.4844  <S**2>=0.000
      48 -> 51         0.36254
      49 -> 51         0.32161
      50 -> 52         0.35835
      50 -> 53        -0.35757

 Excited State   4:      Singlet-A      5.7968 eV  213.88 nm  f=0.2745  <S**2>=0.000
      48 -> 51        -0.26726
      48 -> 52         0.11390
      49 -> 51         0.12499
      49 -> 52         0.52911
      49 -> 53        -0.12769
      50 -> 51        -0.10054
      50 -> 52         0.26373

 Excited State   5:      Singlet-A      5.8772 eV  210.96 nm  f=0.5208  <S**2>=0.000
      47 -> 51        -0.16730
      48 -> 52        -0.12405
      49 -> 51         0.27267
      49 -> 52        -0.20217
      50 -> 52         0.27213
      50 -> 53         0.49054

 Excited State   6:      Singlet-A      6.2057 eV  199.79 nm  f=0.1503  <S**2>=0.000
      47 -> 51         0.12932
      48 -> 51         0.32163
      48 -> 52        -0.20342
      49 -> 51        -0.10523
      49 -> 52         0.30252
      49 -> 53         0.41796
      50 -> 53         0.18148

 Excited State   7:      Singlet-A      6.5059 eV  190.57 nm  f=0.1487  <S**2>=0.000
      47 -> 51         0.34691
      48 -> 51        -0.37219
      49 -> 52        -0.16215
      49 -> 53         0.40039
      50 -> 52         0.10902
      50 -> 53        -0.15506

 Excited State   8:      Singlet-A      6.6854 eV  185.46 nm  f=0.0235  <S**2>=0.000
      47 -> 51         0.48248
      48 -> 51         0.20320
      48 -> 52         0.33889
      49 -> 52        -0.10033
      49 -> 53        -0.14557
      50 -> 53         0.23833

 Excited State   9:      Singlet-A      6.7743 eV  183.02 nm  f=0.0002  <S**2>=0.000
      45 -> 51        -0.21842
      46 -> 51         0.65714

 Excited State  10:      Singlet-A      7.1008 eV  174.61 nm  f=0.0016  <S**2>=0.000
      50 -> 54         0.53237
      50 -> 55        -0.43513

 The electronic state is 1-A.
 Alpha  occ. eigenvalues --  -19.17110 -10.24836 -10.24566 -10.19413 -10.18895
 Alpha  occ. eigenvalues --  -10.18848 -10.18502 -10.18461 -10.18439 -10.18312
 Alpha  occ. eigenvalues --  -10.18235 -10.18124 -10.18121 -10.18100  -1.05704
 Alpha  occ. eigenvalues --   -0.86490  -0.81720  -0.78620  -0.76555  -0.72733
 Alpha  occ. eigenvalues --   -0.71106  -0.69409  -0.63797  -0.60720  -0.59408
 Alpha  occ. eigenvalues --   -0.57537  -0.53125  -0.50804  -0.50186  -0.46407
 Alpha  occ. eigenvalues --   -0.45067  -0.44934  -0.43817  -0.42738  -0.41103
 Alpha  occ. eigenvalues --   -0.40831  -0.39635  -0.39409  -0.38991  -0.37718
 Alpha  occ. eigenvalues --   -0.36894  -0.35759  -0.34417  -0.33797  -0.33038
 Alpha  occ. eigenvalues --   -0.31553  -0.29354  -0.27358  -0.22386  -0.20099
 Alpha virt. eigenvalues --   -0.02890   0.00346   0.03940   0.09051   0.09685
 Alpha virt. eigenvalues --    0.11153   0.11589   0.12048   0.12828   0.14197
 Alpha virt. eigenvalues --    0.15279   0.16087   0.17296   0.17614   0.18328

 Mulliken atomic charges:
              1
     1  C   -0.459241
     2  C    0.122202
     3  O   -0.485090
     4  C    0.387233
     5  C   -0.203870
     6  C   -0.210059
     7  C    0.150692
     8  C    0.133507
     9  C   -0.262608
    10  C   -0.207051
    11  C   -0.159350
    12  C   -0.112925
    13  C   -0.218054
    14  C   -0.452911
    15  H    0.167401
    16  H    0.163542
    17  H    0.154278
    18  H    0.148607
    19  H    0.122866
    20  H    0.123524
    21  H    0.138293
    22  H    0.112725
    23  H    0.113916
    24  H    0.129562
    25  H    0.121384
    26  H    0.162862
    27  H    0.165797
    28  H    0.152768
 Sum of Mulliken atomic charges =  -0.00000

 Dipole moment (field-independent basis, Debye):
    X=              2.9379    Y=             -1.3008    Z=             -0.0910  Tot=              3.2143
 Quadrupole moment (field-independent basis, Debye-Ang):
   XX=            -71.5691   YY=            -79.1256   ZZ=            -86.1265
   XY=             -5.1624   XZ=             -0.8030   YZ=              0.9168

 Summary of Natural Population Analysis:

                                       Natural Population
                Natural  -----------------------------------------------
    Atom  No    Charge         Core      Valence    Rydberg      Total
 -----------------------------------------------------------------------
      C    1   -0.70244      1.99940     4.69465    0.00840     6.70244
      C    2    0.08562      1.99914     3.89776    0.01748     5.91438
      O    3   -0.46682      1.99973     6.45417    0.01291     8.46682
      C    4    0.37410      1.99880     3.60423    0.02287     5.62590
      C    5   -0.34686      1.99906     4.33037    0.01743     6.34686
      C    6   -0.22091      1.99907     4.20647    0.01537     6.22091
      C    7   -0.04466      1.99902     4.03057    0.01507     6.04466
      C    8   -0.05157      1.99903     4.03678    0.01575     6.05157
      C    9   -0.27359      1.99899     4.26147    0.01314     6.27359
      C   10   -0.22981      1.99906     4.21552    0.01522     6.22981
      C   11   -0.30001      1.99912     4.28447    0.01642     6.30001
      C   12   -0.16621      1.99911     4.15253    0.01458     6.16621
      C   13   -0.25544      1.99907     4.24102    0.01535     6.25544
      C   14   -0.69123      1.99940     4.68256    0.00927     6.69123
      H   15    0.24381      0.00000     0.75497    0.00122     0.75619
      H   16    0.23946      0.00000     0.75912    0.00142     0.76054
      H   17    0.24067      0.00000     0.75844    0.00089     0.75933
      H   18    0.22504      0.00000     0.77236    0.00260     0.77496
      H   19    0.24042      0.00000     0.75852    0.00106     0.75958
      H   20    0.23194      0.00000     0.76699    0.00108     0.76806
      H   21    0.23126      0.00000     0.76752    0.00122     0.76874
      H   22    0.22351      0.00000     0.77533    0.00116     0.77649
      H   23    0.22996      0.00000     0.76923    0.00081     0.77004
      H   24    0.23173      0.00000     0.76740    0.00087     0.76827
      H   25    0.22883      0.00000     0.77006    0.00112     0.77117
      H   26    0.23851      0.00000     0.76013    0.00137     0.76149
      H   27    0.24548      0.00000     0.75352    0.00100     0.75452
      H   28    0.23921      0.00000     0.76013    0.00066     0.76079
 =======================================================================
   * Total *    0.00000     27.98800    71.78628    0.22572   100.00000

 Normal termination of Gaussian 09 at Tue Sep 28 16:40:15 2021.
