 Gaussian 09, Revision A.02,

 -----------------------------------
 #p opt b3lyp/6-31G* scf=(xqc,tight)
 -----------------------------------

 ----------------------------------------------
 [Li][Zn](c1ccc2c(c1)cccc2)(C)(C)(C)[Li]_conf_0
 ----------------------------------------------
 Symbolic Z-matrix:
 Charge =  0 Multiplicity = 1

 SCF Done:  E(RB3LYP) =  -2299.02749653     A.U. after   19 cycles
 SCF Done:  E(RB3LYP) =  -2299.05598407     A.U. after   14 cycles
 SCF Done:  E(RB3LYP) =  -2299.09141159     A.U. after   14 cycles
 SCF Done:  E(RB3LYP) =  -2299.10440760     A.U. after   14 cycles
 SCF Done:  E(RB3LYP) =  -2299.14192250     A.U. after   13 cycles
 SCF Done:  E(RB3LYP) =  -2299.17642313     A.U. after   15 cycles
 SCF Done:  E(RB3LYP) =  -2299.20241744     A.U. after   12 cycles
 SCF Done:  E(RB3LYP) =  -2299.21660137     A.U. after   12 cycles
 SCF Done:  E(RB3LYP) =  -2299.22058456     A.U. after   11 cycles
 SCF Done:  E(RB3LYP) =  -2299.22445133     A.U. after   11 cycles
 SCF Done:  E(RB3LYP) =  -2299.24009320     A.U. after    9 cycles
 SCF Done:  E(RB3LYP) =  -2299.24012177     A.U. after    9 cycles
 SCF Done:  E(RB3LYP) =  -2299.24013672     A.U. after    9 cycles
 SCF Done:  E(RB3LYP) =  -2299.24014275     A.U. after    8 cycles
 SCF Done:  E(RB3LYP) =  -2299.24014788     A.U. after    8 cycles
 SCF Done:  E(RB3LYP) =  -2299.24014987     A.U. after    8 cycles
 SCF Done:  E(RB3LYP) =  -2299.24015039     A.U. after    7 cycles
 SCF Done:  E(RB3LYP) =  -2299.24015056     A.U. after    7 cycles
 Optimization completed.
    -- Stationary point found.
 Normal termination of Gaussian 09 at Sun Oct  3 20:28:18 2021.

 ----------------------------------------------------------------------
 #p freq b3lyp/6-31G* volume NMR pop=NPA density=current Geom=AllCheck
 Guess=Read
 ----------------------------------------------------------------------

 [Li][Zn](c1ccc2c(c1)cccc2)(C)(C)(C)[Li]_conf_0
 ----------------------------------------------
 Redundant internal coordinates taken from checkpoint file:
 C13H16Li2Zn_49c6_conf_0.chk
 Charge =  0 Multiplicity = 1

 SCF Done:  E(RB3LYP) =  -2299.24015056     A.U. after    1 cycles

  1  Li   Isotropic =    89.3871   Anisotropy =     9.8076

  2  Zn   Isotropic =  1590.8901   Anisotropy =   521.1474

  3  C    Isotropic =    34.1759   Anisotropy =   257.5286

  4  C    Isotropic =    67.2571   Anisotropy =   150.6020

  5  C    Isotropic =    63.4769   Anisotropy =   148.9795

  6  C    Isotropic =    62.9965   Anisotropy =   198.7129

  7  C    Isotropic =    60.6300   Anisotropy =   200.8704

  8  C    Isotropic =    62.5558   Anisotropy =   134.0280

  9  C    Isotropic =    68.4477   Anisotropy =   143.5467

 10  C    Isotropic =    68.9697   Anisotropy =   163.2319

 11  C    Isotropic =    69.9777   Anisotropy =   162.5086

 12  C    Isotropic =    67.4887   Anisotropy =   146.4452

 13  C    Isotropic =   204.7277   Anisotropy =    14.7058

 14  C    Isotropic =   203.6009   Anisotropy =    15.7767

 15  C    Isotropic =   198.0503   Anisotropy =     3.8502

 16  Li   Isotropic =    89.1763   Anisotropy =    10.6410

 17  H    Isotropic =    24.2354   Anisotropy =    10.4546

 18  H    Isotropic =    24.3993   Anisotropy =     7.9496

 19  H    Isotropic =    23.8504   Anisotropy =    11.8471

 20  H    Isotropic =    24.4738   Anisotropy =     8.0051

 21  H    Isotropic =    24.7387   Anisotropy =     5.5050

 22  H    Isotropic =    24.7740   Anisotropy =     5.2562

 23  H    Isotropic =    24.5789   Anisotropy =     7.0730

 24  H    Isotropic =    32.4328   Anisotropy =    11.8872

 25  H    Isotropic =    33.0326   Anisotropy =     9.9522

 26  H    Isotropic =    32.2214   Anisotropy =    13.1086

 27  H    Isotropic =    32.2351   Anisotropy =    12.9800

 28  H    Isotropic =    33.1586   Anisotropy =     9.4699

 29  H    Isotropic =    32.2646   Anisotropy =    12.0838

 30  H    Isotropic =    33.3730   Anisotropy =     8.5631

 31  H    Isotropic =    34.5805   Anisotropy =     8.7013

 32  H    Isotropic =    34.3881   Anisotropy =     9.1001

  Exact polarizability: 263.243  10.875 183.683   1.018   0.945 115.038
 Approx polarizability: 379.270  21.602 310.547  11.864   2.397 167.390

                     1                      2                      3
                     A                      A                      A
 Frequencies --    37.1183                49.9781                53.8365
 Red. masses --     3.7790                 3.2350                 1.2498
 Frc consts  --     0.0031                 0.0048                 0.0021
 IR Inten    --     0.0815                 0.2700                 0.8199

                     4                      5                      6
                     A                      A                      A
 Frequencies --    60.2535                81.3422                84.4126
 Red. masses --     1.2535                 2.5582                 2.5256
 Frc consts  --     0.0027                 0.0100                 0.0106
 IR Inten    --     0.3609                 0.5015                 1.4658

                     7                      8                      9
                     A                      A                      A
 Frequencies --    92.4049               122.5935               136.4933
 Red. masses --     1.8875                 2.7608                 2.2284
 Frc consts  --     0.0095                 0.0244                 0.0245
 IR Inten    --     9.3790                 2.7181                 2.3149

                    10                     11                     12
                     A                      A                      A
 Frequencies --   149.7970               163.9756               178.4175
 Red. masses --     3.4651                 2.8647                 4.4077
 Frc consts  --     0.0458                 0.0454                 0.0827
 IR Inten    --     4.8588                12.3375                12.9465

                    13                     14                     15
                     A                      A                      A
 Frequencies --   180.8602               184.0141               193.5069
 Red. masses --     2.7210                 4.8827                 4.0677
 Frc consts  --     0.0524                 0.0974                 0.0897
 IR Inten    --     6.0188                 6.8407                 1.4055

                    16                     17                     18
                     A                      A                      A
 Frequencies --   236.1275               258.9573               298.2204
 Red. masses --     3.7484                 3.9648                 2.0210
 Frc consts  --     0.1231                 0.1566                 0.1059
 IR Inten    --    72.5375                12.4578                 7.6607

                    19                     20                     21
                     A                      A                      A
 Frequencies --   379.7194               386.7181               396.1668
 Red. masses --     3.5783                 3.1800                 3.1887
 Frc consts  --     0.3040                 0.2802                 0.2949
 IR Inten    --     9.5655                18.5397                 1.3550

                    22                     23                     24
                     A                      A                      A
 Frequencies --   430.1484               467.3376               472.7145
 Red. masses --     5.1510                 3.3506                 3.5370
 Frc consts  --     0.5615                 0.4312                 0.4657
 IR Inten    --    50.5701                32.0440                48.1561

                    25                     26                     27
                     A                      A                      A
 Frequencies --   492.2185               496.4109               512.6002
 Red. masses --     2.6924                 2.8044                 1.9319
 Frc consts  --     0.3843                 0.4072                 0.2991
 IR Inten    --    17.6934                 9.1114                77.5612

                    28                     29                     30
                     A                      A                      A
 Frequencies --   523.1991               528.2511               539.3677
 Red. masses --     5.7018                 5.2353                 3.6648
 Frc consts  --     0.9196                 0.8607                 0.6282
 IR Inten    --    27.1396                27.7835               129.1565

                    31                     32                     33
                     A                      A                      A
 Frequencies --   555.7069               582.2996               639.1348
 Red. masses --     7.0796                 1.2491                 1.5259
 Frc consts  --     1.2881                 0.2495                 0.3673
 IR Inten    --    23.9596                12.1617                32.6887

                    34                     35                     36
                     A                      A                      A
 Frequencies --   643.2044               656.4347               661.4501
 Red. masses --     5.7057                 2.1183                 1.4884
 Frc consts  --     1.3908                 0.5378                 0.3837
 IR Inten    --    15.0698                18.4201                15.2257

                    37                     38                     39
                     A                      A                      A
 Frequencies --   714.3912               757.2471               781.1930
 Red. masses --     1.3062                 1.2165                 4.6509
 Frc consts  --     0.3928                 0.4110                 1.6723
 IR Inten    --   135.9626                21.1387                 3.8124

                    40                     41                     42
                     A                      A                      A
 Frequencies --   797.7190               829.7243               843.3570
 Red. masses --     2.9017                 5.2431                 1.4175
 Frc consts  --     1.0879                 2.1267                 0.5940
 IR Inten    --     2.2478                 5.6399                38.2831

                    43                     44                     45
                     A                      A                      A
 Frequencies --   878.3954               928.6285               952.2726
 Red. masses --     1.4311                 1.5672                 4.3015
 Frc consts  --     0.6506                 0.7963                 2.2982
 IR Inten    --     6.9444                 2.3610                 0.2005

                    46                     47                     48
                     A                      A                      A
 Frequencies --   960.3426               987.0571               994.4745
 Red. masses --     1.3766                 1.3248                 1.2975
 Frc consts  --     0.7480                 0.7605                 0.7560
 IR Inten    --     2.8451                 0.7636                 0.0821

                    49                     50                     51
                     A                      A                      A
 Frequencies --  1048.4281              1060.7743              1163.2891
 Red. masses --     2.6615                 2.6740                 1.6652
 Frc consts  --     1.7237                 1.7728                 1.3276
 IR Inten    --    10.9074                17.5281                 1.8844

                    52                     53                     54
                     A                      A                      A
 Frequencies --  1185.4652              1196.8214              1233.8759
 Red. masses --     1.2480                 1.2629                 1.1788
 Frc consts  --     1.0334                 1.0658                 1.0574
 IR Inten    --     2.5315                 0.4888                 6.3357

                    55                     56                     57
                     A                      A                      A
 Frequencies --  1236.6808              1272.5693              1280.2047
 Red. masses --     1.9987                 1.2010                 1.1890
 Frc consts  --     1.8010                 1.1460                 1.1481
 IR Inten    --     3.0965                17.4909                 5.3566

                    58                     59                     60
                     A                      A                      A
 Frequencies --  1282.1690              1300.7066              1343.4841
 Red. masses --     1.5610                 1.8915                 2.6944
 Frc consts  --     1.5120                 1.8855                 2.8653
 IR Inten    --     2.5614                 6.7570                 9.8284

                    61                     62                     63
                     A                      A                      A
 Frequencies --  1401.3532              1416.3106              1465.7034
 Red. masses --     2.6044                 5.2417                 2.1330
 Frc consts  --     3.0133                 6.1950                 2.6999
 IR Inten    --     1.2750                 0.9088                 0.4773

                    64                     65                     66
                     A                      A                      A
 Frequencies --  1477.0816              1483.8793              1486.6784
 Red. masses --     1.0595                 1.0597                 1.0686
 Frc consts  --     1.3620                 1.3748                 1.3915
 IR Inten    --     0.5986                 0.8126                 0.8476

                    67                     68                     69
                     A                      A                      A
 Frequencies --  1493.3166              1503.1050              1504.1671
 Red. masses --     1.0672                 1.5629                 1.1655
 Frc consts  --     1.4022                 2.0805                 1.5537
 IR Inten    --     0.3338                 1.8509                 1.6818

                    70                     71                     72
                     A                      A                      A
 Frequencies --  1509.4636              1545.5214              1606.4273
 Red. masses --     1.0642                 2.8276                 5.3706
 Frc consts  --     1.4287                 3.9794                 8.1657
 IR Inten    --     0.7798                 5.7522                 1.0965

                    73                     74                     75
                     A                      A                      A
 Frequencies --  1629.8328              1676.7069              2925.2820
 Red. masses --     5.4409                 5.7037                 1.0457
 Frc consts  --     8.5155                 9.4475                 5.2721
 IR Inten    --     4.7181                 1.6060                40.7170

                    76                     77                     78
                     A                      A                      A
 Frequencies --  2934.3664              2938.4941              2960.0956
 Red. masses --     1.0631                 1.0618                 1.0922
 Frc consts  --     5.3935                 5.4019                 5.6385
 IR Inten    --    71.3473                61.7666                85.1399

                    79                     80                     81
                     A                      A                      A
 Frequencies --  3028.7607              3051.6095              3052.9143
 Red. masses --     1.0889                 1.0679                 1.0680
 Frc consts  --     5.8855                 5.8590                 5.8650
 IR Inten    --    46.0516                20.1828                39.3911

                    82                     83                     84
                     A                      A                      A
 Frequencies --  3075.4251              3080.2190              3092.4765
 Red. masses --     1.0858                 1.0858                 1.0985
 Frc consts  --     6.0506                 6.0694                 6.1896
 IR Inten    --    29.6325                30.9310                20.9505

                    85                     86                     87
                     A                      A                      A
 Frequencies --  3099.5757              3170.9720              3174.6551
 Red. masses --     1.0975                 1.0915                 1.0868
 Frc consts  --     6.2125                 6.4665                 6.4537
 IR Inten    --    24.5415                19.2906                 8.6863

                    88                     89                     90
                     A                      A                      A
 Frequencies --  3181.6941              3195.5836              3209.4087
 Red. masses --     1.0877                 1.0927                 1.0969
 Frc consts  --     6.4874                 6.5746                 6.6570
 IR Inten    --     3.1545                29.4328                34.5445

 - Thermochemistry -
 -------------------
 Temperature   298.150 Kelvin.  Pressure   1.00000 Atm.
 Atom     1 has atomic number  3 and mass   7.01600

 Molecular mass:   250.08635 amu.
 Principal axes and moments of inertia in atomic units:
                           1         2         3
     Eigenvalues --  1828.692637111.258767640.10877
           X            0.99997   0.00238  -0.00772
           Y           -0.00231   0.99995   0.00936
           Z            0.00774  -0.00934   0.99993
 This molecule is an asymmetric top.
 Rotational symmetry number  1.
 Warning -- assumption of classical behavior for rotation
           may cause significant error
 Rotational temperatures (Kelvin)      0.04736     0.01218     0.01134
 Rotational constants (GHZ):           0.98690     0.25379     0.23622
 Zero-point vibrational energy     641950.5 (Joules/Mol)
                                  153.42985 (Kcal/Mol)
 Warning -- explicit consideration of  32 degrees of freedom as
           vibrations may cause significant error
 Vibrational temperatures:     53.40    71.91    77.46    86.69   117.03
          (Kelvin)            121.45   132.95   176.38   196.38   215.52
                              235.92   256.70   260.22   264.75   278.41
                              339.73   372.58   429.07   546.33   556.40
                              569.99   618.89   672.39   680.13   708.19
                              714.22   737.52   752.77   760.03   776.03
                              799.54   837.80   919.57   925.43   944.46
                              951.68  1027.85  1089.51  1123.96  1147.74
                             1193.79  1213.40  1263.81  1336.09  1370.11
                             1381.72  1420.15  1430.83  1508.45  1526.22
                             1673.71  1705.62  1721.96  1775.27  1779.31
                             1830.94  1841.93  1844.75  1871.42  1932.97
                             2016.23  2037.75  2108.82  2125.19  2134.97
                             2139.00  2148.55  2162.63  2164.16  2171.78
                             2223.66  2311.29  2344.96  2412.40  4208.82
                             4221.89  4227.83  4258.91  4357.71  4390.58
                             4392.46  4424.85  4431.74  4449.38  4459.59
                             4562.32  4567.61  4577.74  4597.73  4617.62

 Zero-point correction=                           0.244506 (Hartree/Particle)
 Thermal correction to Energy=                    0.264282
 Thermal correction to Enthalpy=                  0.265226
 Thermal correction to Gibbs Free Energy=         0.196120
 Sum of electronic and zero-point Energies=          -2298.995645
 Sum of electronic and thermal Energies=             -2298.975869
 Sum of electronic and thermal Enthalpies=           -2298.974924
 Sum of electronic and thermal Free Energies=        -2299.044031

                     E (Thermal)             CV                S
                      KCal/Mol        Cal/Mol-Kelvin    Cal/Mol-Kelvin
 Total                  165.839             71.885            145.447
 Electronic               0.000              0.000              0.000
 Translational            0.889              2.981             42.450
 Rotational               0.889              2.981             32.963
 Vibrational            164.062             65.923             70.034
 Vibration     1          0.594              1.982              5.407
 Vibration     2          0.595              1.978              4.818
 Vibration     3          0.596              1.976              4.671
 Vibration     4          0.597              1.973              4.449
 Vibration     5          0.600              1.962              3.858
 Vibration     6          0.601              1.960              3.786
 Vibration     7          0.602              1.955              3.609
 Vibration     8          0.610              1.930              3.059
 Vibration     9          0.614              1.917              2.852
 Vibration    10          0.618              1.903              2.675
 Vibration    11          0.623              1.887              2.503
 Vibration    12          0.629              1.869              2.345
 Vibration    13          0.630              1.866              2.320
 Vibration    14          0.631              1.862              2.287
 Vibration    15          0.635              1.849              2.194
 Vibration    16          0.655              1.785              1.832
 Vibration    17          0.668              1.748              1.669
 Vibration    18          0.691              1.677              1.427
 Vibration    19          0.750              1.513              1.040
 Vibration    20          0.755              1.499              1.013
 Vibration    21          0.763              1.478              0.977
 Vibration    22          0.791              1.405              0.858
 Vibration    23          0.825              1.323              0.745
 Vibration    24          0.830              1.311              0.730
 Vibration    25          0.848              1.267              0.678
 Vibration    26          0.852              1.258              0.667
 Vibration    27          0.868              1.222              0.627
 Vibration    28          0.878              1.199              0.603
 Vibration    29          0.883              1.187              0.591
 Vibration    30          0.894              1.163              0.567
 Vibration    31          0.911              1.127              0.532
 Vibration    32          0.939              1.070              0.481

 Normal termination of Gaussian 09 at Sun Oct  3 22:49:54 2021.
 Gaussian 09:  AM64L-G09RevA.02 11-Jun-2009

 ----------------------------------------------------------------------
 #p TD(NStates=10, Root=1) b3lyp/6-31G* volume pop=NPA density=current
 Geom=AllCheck Guess=Read
 ----------------------------------------------------------------------

 [Li][Zn](c1ccc2c(c1)cccc2)(C)(C)(C)[Li]_conf_0
 ----------------------------------------------
 Redundant internal coordinates taken from checkpoint file:
 C13H16Li2Zn_49c6_conf_0.chk
 Charge =  0 Multiplicity = 1

                         Standard orientation:
 ---------------------------------------------------------------------
 Center     Atomic      Atomic             Coordinates (Angstroms)
 Number     Number       Type             X           Y           Z
 ---------------------------------------------------------------------
      1          3           0       -1.849251   -1.368987    1.114588
      2         30           0       -2.365382    0.216610   -0.605286
      3          6           0       -0.313644   -0.237600   -0.288664
      4          6           0        0.200491   -1.577022   -0.292187
      5          6           0        1.542456   -1.877344   -0.191880
      6          6           0        2.510616   -0.842741   -0.094402
      7          6           0        2.055129    0.514428   -0.119790
      8          6           0        0.654038    0.761637   -0.217987
      9          6           0        3.015279    1.559143   -0.049918
     10          6           0        4.359400    1.276316    0.049603
     11          6           0        4.808049   -0.067366    0.079555
     12          6           0        3.903252   -1.102759    0.007640
     13          6           0       -3.453498   -1.489821   -0.594223
     14          6           0       -2.681832    2.183601   -0.297237
     15          6           0       -2.126759   -0.144088    2.774501
     16          3           0       -1.241722    1.085930    1.343751
     17          1           0       -0.491536   -2.415680   -0.427348
     18          1           0        1.882001   -2.911704   -0.205236
     19          1           0        0.354414    1.814527   -0.276285
     20          1           0        2.670049    2.590600   -0.078441
     21          1           0        5.083559    2.084782    0.103596
     22          1           0        5.871429   -0.276555    0.157455
     23          1           0        4.244029   -2.135426    0.025988
     24          1           0       -4.341230   -1.433781    0.049618
     25          1           0       -2.953821   -2.453631   -0.368182
     26          1           0       -3.828453   -1.644311   -1.615183
     27          1           0       -2.784727    2.675172   -1.274660
     28          1           0       -1.895859    2.785959    0.201989
     29          1           0       -3.612350    2.378965    0.249758
     30          1           0       -3.195638    0.105136    2.882178
     31          1           0       -1.601719    0.555692    3.456962
     32          1           0       -2.003625   -1.107170    3.311288
 ---------------------------------------------------------------------

 SCF Done:  E(RB3LYP) =  -2299.24015056     A.U. after    1 cycles

 Excitation energies and oscillator strengths:

 Excited State   1:      Singlet-A      3.5482 eV  349.43 nm  f=0.0068  <S**2>=0.000
      64 -> 66        -0.47916
      65 -> 66         0.50676
 This state for optimization and/or second-order correction.
 Total Energy, E(TD-HF/TD-KS) =  -2299.10975594
 Copying the excited state density for this state as the 1-particle RhoCI density.

 Excited State   2:      Singlet-A      3.7547 eV  330.21 nm  f=0.0331  <S**2>=0.000
      63 -> 66        -0.16591
      64 -> 66         0.47855
      65 -> 66         0.47846

 Excited State   3:      Singlet-A      4.1210 eV  300.86 nm  f=0.0074  <S**2>=0.000
      63 -> 66         0.11854
      64 -> 67        -0.16374
      65 -> 67         0.65639
      65 -> 68         0.10438

 Excited State   4:      Singlet-A      4.2214 eV  293.70 nm  f=0.0060  <S**2>=0.000
      61 -> 66         0.16594
      63 -> 66         0.32414
      64 -> 67         0.57948

 Excited State   5:      Singlet-A      4.3264 eV  286.57 nm  f=0.0436  <S**2>=0.000
      61 -> 67        -0.12222
      63 -> 66         0.54791
      64 -> 66         0.14345
      64 -> 67        -0.29475
      65 -> 67        -0.15415
      65 -> 68        -0.15958

 Excited State   6:      Singlet-A      4.3713 eV  283.63 nm  f=0.0043  <S**2>=0.000
      62 -> 66         0.68611

 Excited State   7:      Singlet-A      4.4602 eV  277.98 nm  f=0.0062  <S**2>=0.000
      61 -> 66         0.43671
      63 -> 66        -0.11227
      63 -> 67         0.46442
      63 -> 68        -0.11116
      65 -> 68        -0.19579

 Excited State   8:      Singlet-A      4.6337 eV  267.57 nm  f=0.0629  <S**2>=0.000
      63 -> 67         0.17113
      64 -> 68        -0.10906
      65 -> 67        -0.15225
      65 -> 68         0.62804
      65 -> 69        -0.10397

 Excited State   9:      Singlet-A      4.8110 eV  257.71 nm  f=0.0015  <S**2>=0.000
      63 -> 67         0.11695
      64 -> 68         0.65492
      65 -> 69        -0.18948

 Excited State  10:      Singlet-A      4.8887 eV  253.62 nm  f=0.0064  <S**2>=0.000
      62 -> 67         0.56440
      64 -> 69         0.11811
      65 -> 69        -0.36419

 The electronic state is 1-A.
 Alpha  occ. eigenvalues -- -347.24019 -42.21176 -37.19752 -37.19431 -37.19380
 Alpha  occ. eigenvalues --  -10.20357 -10.20314 -10.19996 -10.19808 -10.19748
 Alpha  occ. eigenvalues --  -10.19688 -10.19660 -10.19659 -10.19461 -10.16864
 Alpha  occ. eigenvalues --  -10.14663 -10.14491 -10.11814  -4.78243  -3.17785
 Alpha  occ. eigenvalues --   -3.16971  -3.16878  -1.97071  -1.96834  -0.87488
 Alpha  occ. eigenvalues --   -0.81907  -0.77557  -0.73958  -0.71898  -0.66172
 Alpha  occ. eigenvalues --   -0.65565  -0.63343  -0.62571  -0.60772  -0.59968
 Alpha  occ. eigenvalues --   -0.51793  -0.50789  -0.48481  -0.45351  -0.44279
 Alpha  occ. eigenvalues --   -0.44024  -0.43953  -0.43625  -0.43461  -0.42987
 Alpha  occ. eigenvalues --   -0.42103  -0.41684  -0.39368  -0.38378  -0.37731
 Alpha  occ. eigenvalues --   -0.37192  -0.36712  -0.36254  -0.36000  -0.35547
 Alpha  occ. eigenvalues --   -0.34884  -0.33393  -0.33083  -0.32327  -0.29037
 Alpha  occ. eigenvalues --   -0.25129  -0.23550  -0.22524  -0.21535  -0.20799
 Alpha virt. eigenvalues --   -0.05102  -0.02815  -0.01114  -0.00036   0.01323
 Alpha virt. eigenvalues --    0.02295   0.03793   0.04434   0.05538   0.05810
 Alpha virt. eigenvalues --    0.07282   0.08711   0.09592   0.09922   0.10653

 Mulliken atomic charges:
              1
     1  Li   0.139204
     2  Zn   0.746543
     3  C   -0.156731
     4  C   -0.209850
     5  C   -0.218088
     6  C    0.134754
     7  C    0.189562
     8  C   -0.317398
     9  C   -0.228933
    10  C   -0.141594
    11  C   -0.137354
    12  C   -0.222055
    13  C   -0.758597
    14  C   -0.747088
    15  C   -0.749026
    16  Li   0.123388
    17  H    0.140597
    18  H    0.111761
    19  H    0.144069
    20  H    0.101095
    21  H    0.105142
    22  H    0.106339
    23  H    0.102287
    24  H    0.190635
    25  H    0.192557
    26  H    0.193875
    27  H    0.190394
    28  H    0.186567
    29  H    0.187190
    30  H    0.198079
    31  H    0.203531
    32  H    0.199145
 Sum of Mulliken atomic charges =  -0.00000

 Dipole moment (field-independent basis, Debye):
    X=             -6.5866    Y=             -0.0973    Z=              2.0276  Tot=              6.8923
 Quadrupole moment (field-independent basis, Debye-Ang):
   XX=           -106.2149   YY=            -93.3464   ZZ=           -102.1067
   XY=              1.5408   XZ=             -0.9718   YZ=             -0.6295

 Summary of Natural Population Analysis:

                                       Natural Population
                Natural  -----------------------------------------------
    Atom  No    Charge         Core      Valence    Rydberg      Total
 -----------------------------------------------------------------------
     Li    1    0.64253      1.99133     0.35426    0.01189     2.35747
     Zn    2    1.12090     17.99129    10.87963    0.00819    28.87910
      C    3   -0.40444      1.99870     4.37315    0.03259     6.40444
      C    4   -0.33102      1.99904     4.31240    0.01958     6.33102
      C    5   -0.29436      1.99900     4.27865    0.01672     6.29436
      C    6   -0.02344      1.99901     4.00965    0.01478     6.02344
      C    7   -0.02713      1.99897     4.01284    0.01532     6.02713
      C    8   -0.37508      1.99899     4.35641    0.01968     6.37508
      C    9   -0.27290      1.99905     4.26024    0.01362     6.27290
      C   10   -0.25320      1.99910     4.23973    0.01437     6.25320
      C   11   -0.24004      1.99910     4.22677    0.01417     6.24004
      C   12   -0.27619      1.99905     4.26319    0.01395     6.27619
      C   13   -1.24151      1.99948     5.22179    0.02024     7.24151
      C   14   -1.22518      1.99948     5.20580    0.01990     7.22518
      C   15   -1.16315      1.99940     5.14671    0.01704     7.16315
     Li   16    0.61830      1.99165     0.37908    0.01097     2.38170
      H   17    0.21805      0.00000     0.78068    0.00128     0.78195
      H   18    0.23097      0.00000     0.76796    0.00106     0.76903
      H   19    0.22418      0.00000     0.77450    0.00131     0.77582
      H   20    0.21827      0.00000     0.78065    0.00108     0.78173
      H   21    0.22597      0.00000     0.77322    0.00081     0.77403
      H   22    0.22573      0.00000     0.77344    0.00082     0.77427
      H   23    0.22204      0.00000     0.77690    0.00106     0.77796
      H   24    0.24944      0.00000     0.74916    0.00141     0.75056
      H   25    0.22194      0.00000     0.77687    0.00119     0.77806
      H   26    0.26982      0.00000     0.72907    0.00110     0.73018
      H   27    0.26451      0.00000     0.73430    0.00119     0.73549
      H   28    0.21856      0.00000     0.78029    0.00115     0.78144
      H   29    0.24947      0.00000     0.74888    0.00165     0.75053
      H   30    0.23642      0.00000     0.76245    0.00113     0.76358
      H   31    0.23647      0.00000     0.76304    0.00050     0.76353
      H   32    0.23408      0.00000     0.76532    0.00060     0.76592
 =======================================================================
   * Total *    0.00000     47.96263    81.75702    0.28035   130.00000

 Normal termination of Gaussian 09 at Mon Oct  4 07:09:25 2021.
