 Gaussian 09, Revision A.02,

 -----------------------------------
 #p opt b3lyp/6-31G* scf=(xqc,tight)
 -----------------------------------

 --------------------------------
 CCN(C(=O)Oc1ccc(cc1C)C)CC_conf_0
 --------------------------------
 Symbolic Z-matrix:
 Charge =  0 Multiplicity = 1

 SCF Done:  E(RB3LYP) =  -712.055636476     A.U. after   15 cycles
 SCF Done:  E(RB3LYP) =  -712.060937727     A.U. after   12 cycles
 SCF Done:  E(RB3LYP) =  -712.061550298     A.U. after   12 cycles
 SCF Done:  E(RB3LYP) =  -712.061789024     A.U. after   12 cycles
 SCF Done:  E(RB3LYP) =  -712.061793013     A.U. after   11 cycles
 SCF Done:  E(RB3LYP) =  -712.062091522     A.U. after   11 cycles
 SCF Done:  E(RB3LYP) =  -712.062305237     A.U. after   11 cycles
 SCF Done:  E(RB3LYP) =  -712.062370270     A.U. after   10 cycles
 SCF Done:  E(RB3LYP) =  -712.062392110     A.U. after   10 cycles
 SCF Done:  E(RB3LYP) =  -712.062400161     A.U. after    9 cycles
 SCF Done:  E(RB3LYP) =  -712.062419310     A.U. after   10 cycles
 SCF Done:  E(RB3LYP) =  -712.062423491     A.U. after    9 cycles
 SCF Done:  E(RB3LYP) =  -712.062425135     A.U. after   10 cycles
 SCF Done:  E(RB3LYP) =  -712.062425606     A.U. after    9 cycles
 SCF Done:  E(RB3LYP) =  -712.062425952     A.U. after    9 cycles
 SCF Done:  E(RB3LYP) =  -712.062426075     A.U. after    9 cycles
 SCF Done:  E(RB3LYP) =  -712.062426080     A.U. after    7 cycles
 SCF Done:  E(RB3LYP) =  -712.062426079     A.U. after    7 cycles
 Optimization completed on the basis of negligible forces.
    -- Stationary point found.
 Normal termination of Gaussian 09 at Wed Sep 29 23:07:40 2021.

 ----------------------------------------------------------------------
 #p freq b3lyp/6-31G* volume NMR pop=NPA density=current Geom=AllCheck
 Guess=Read
 ----------------------------------------------------------------------

 CCN(C(=O)Oc1ccc(cc1C)C)CC_conf_0
 --------------------------------
 Redundant internal coordinates taken from checkpoint file:
 C13H19NO2_f902_conf_0.chk
 Charge =  0 Multiplicity = 1

 SCF Done:  E(RB3LYP) =  -712.062426079     A.U. after    1 cycles

  1  C    Isotropic =   174.7174   Anisotropy =    21.8344

  2  C    Isotropic =   147.7250   Anisotropy =    40.1506

  3  N    Isotropic =   158.6234   Anisotropy =    69.5195

  4  C    Isotropic =    46.6247   Anisotropy =    76.0129

  5  O    Isotropic =    62.7061   Anisotropy =   384.9363

  6  O    Isotropic =   145.1417   Anisotropy =   139.4752

  7  C    Isotropic =    47.4313   Anisotropy =   102.2189

  8  C    Isotropic =    72.6791   Anisotropy =   148.3060

  9  C    Isotropic =    69.0032   Anisotropy =   145.4794

 10  C    Isotropic =    63.1090   Anisotropy =   171.3480

 11  C    Isotropic =    64.8096   Anisotropy =   123.5689

 12  C    Isotropic =    67.4748   Anisotropy =   154.9259

 13  C    Isotropic =   170.3280   Anisotropy =    24.8281

 14  C    Isotropic =   167.9989   Anisotropy =    34.8449

 15  C    Isotropic =   146.7857   Anisotropy =    42.5074

 16  C    Isotropic =   175.7665   Anisotropy =    21.1410

 17  H    Isotropic =    31.3542   Anisotropy =    10.2094

 18  H    Isotropic =    30.9590   Anisotropy =     7.1347

 19  H    Isotropic =    30.6864   Anisotropy =     7.8482

 20  H    Isotropic =    29.3488   Anisotropy =     6.5341

 21  H    Isotropic =    28.3750   Anisotropy =     3.8411

 22  H    Isotropic =    25.1264   Anisotropy =     9.0075

 23  H    Isotropic =    25.2738   Anisotropy =     6.4647

 24  H    Isotropic =    25.3780   Anisotropy =     8.4188

 25  H    Isotropic =    30.5344   Anisotropy =     8.0008

 26  H    Isotropic =    29.7886   Anisotropy =     7.0390

 27  H    Isotropic =    29.8675   Anisotropy =     6.4967

 28  H    Isotropic =    30.0681   Anisotropy =     7.7165

 29  H    Isotropic =    30.2811   Anisotropy =     7.1655

 30  H    Isotropic =    29.7467   Anisotropy =     8.4663

 31  H    Isotropic =    28.3664   Anisotropy =     5.8798

 32  H    Isotropic =    29.5412   Anisotropy =     6.5234

 33  H    Isotropic =    30.5946   Anisotropy =     7.0514

 34  H    Isotropic =    31.4036   Anisotropy =    10.6997

 35  H    Isotropic =    31.0776   Anisotropy =     6.8816

  Exact polarizability: 204.742   6.519 151.716  -3.315   5.234  94.348
 Approx polarizability: 261.425  10.653 232.007  -8.434   7.104 146.032

                     1                      2                      3
                     A                      A                      A
 Frequencies --    21.7302                33.6940                36.1392
 Red. masses --     3.2149                 2.7110                 1.1790
 Frc consts  --     0.0009                 0.0018                 0.0009
 IR Inten    --     0.3141                 0.6541                 0.5834

                     4                      5                      6
                     A                      A                      A
 Frequencies --    47.1573                67.0557                80.3857
 Red. masses --     3.3280                 2.7980                 3.2418
 Frc consts  --     0.0044                 0.0074                 0.0123
 IR Inten    --     0.4454                 0.5057                 1.3471

                     7                      8                      9
                     A                      A                      A
 Frequencies --   105.2807               113.7863               126.5452
 Red. masses --     5.6538                 3.9686                 1.0341
 Frc consts  --     0.0369                 0.0303                 0.0098
 IR Inten    --     1.2763                 0.1047                 0.2738

                    10                     11                     12
                     A                      A                      A
 Frequencies --   160.6960               205.5176               220.6657
 Red. masses --     3.0707                 2.7940                 2.2747
 Frc consts  --     0.0467                 0.0695                 0.0653
 IR Inten    --     0.6985                 2.3588                 0.9576

                    13                     14                     15
                     A                      A                      A
 Frequencies --   236.0974               249.7669               286.9689
 Red. masses --     1.1337                 1.5387                 2.3737
 Frc consts  --     0.0372                 0.0566                 0.1152
 IR Inten    --     1.0003                 0.3216                 0.5889

                    16                     17                     18
                     A                      A                      A
 Frequencies --   303.5155               325.1045               348.2129
 Red. masses --     3.2417                 2.6897                 3.7532
 Frc consts  --     0.1759                 0.1675                 0.2681
 IR Inten    --     0.9988                 1.7436                 2.3814

                    19                     20                     21
                     A                      A                      A
 Frequencies --   377.7005               435.3125               456.6209
 Red. masses --     3.5256                 2.7783                 3.0889
 Frc consts  --     0.2963                 0.3102                 0.3795
 IR Inten    --    14.7038                 6.1270                 1.6401

                    22                     23                     24
                     A                      A                      A
 Frequencies --   472.8019               491.3090               554.5926
 Red. masses --     3.4316                 3.6088                 3.9817
 Frc consts  --     0.4520                 0.5132                 0.7216
 IR Inten    --     1.1726                 3.3817                 1.3618

                    25                     26                     27
                     A                      A                      A
 Frequencies --   567.3770               575.4330               629.3346
 Red. masses --     4.0278                 3.8952                 3.7093
 Frc consts  --     0.7639                 0.7599                 0.8656
 IR Inten    --     1.1983                 2.1416                 4.1462

                    28                     29                     30
                     A                      A                      A
 Frequencies --   720.9776               731.3894               744.0638
 Red. masses --     3.9367                 5.3229                 9.1926
 Frc consts  --     1.2057                 1.6776                 2.9985
 IR Inten    --     0.5427                 0.3449                20.5093

                    31                     32                     33
                     A                      A                      A
 Frequencies --   785.2791               794.7332               809.1181
 Red. masses --     1.5229                 1.2454                 2.3955
 Frc consts  --     0.5533                 0.4635                 0.9240
 IR Inten    --    11.4060                 8.1908                 8.2200

                    34                     35                     36
                     A                      A                      A
 Frequencies --   816.3833               853.2327               892.5733
 Red. masses --     1.7070                 2.6631                 1.2751
 Frc consts  --     0.6703                 1.1423                 0.5985
 IR Inten    --     3.1706                10.8888                 4.4650

                    37                     38                     39
                     A                      A                      A
 Frequencies --   942.9837               945.3709               955.8675
 Red. masses --     1.8814                 1.6875                 2.5119
 Frc consts  --     0.9857                 0.8886                 1.3522
 IR Inten    --     5.3028                 1.2271                 3.9191

                    40                     41                     42
                     A                      A                      A
 Frequencies --   974.7693              1015.9346              1044.4219
 Red. masses --     2.8457                 1.4802                 1.5061
 Frc consts  --     1.5931                 0.9002                 0.9680
 IR Inten    --    41.5359                 1.1165                 6.6622

                    43                     44                     45
                     A                      A                      A
 Frequencies --  1060.3715              1074.7031              1076.2359
 Red. masses --     2.9919                 1.4973                 1.5122
 Frc consts  --     1.9820                 1.0189                 1.0320
 IR Inten    --    12.9286                 9.3042                 2.8072

                    46                     47                     48
                     A                      A                      A
 Frequencies --  1102.4039              1116.2024              1127.9957
 Red. masses --     1.9320                 1.7880                 1.7170
 Frc consts  --     1.3834                 1.3125                 1.2872
 IR Inten    --    19.9866                16.6953                34.6871

                    49                     50                     51
                     A                      A                      A
 Frequencies --  1154.8949              1188.8288              1191.0304
 Red. masses --     2.0924                 1.8815                 1.9472
 Frc consts  --     1.6443                 1.5667                 1.6275
 IR Inten    --    60.8111               121.3176               227.5231

                    52                     53                     54
                     A                      A                      A
 Frequencies --  1238.9182              1262.9942              1285.4704
 Red. masses --     2.2376                 2.6829                 4.0507
 Frc consts  --     2.0235                 2.5214                 3.9437
 IR Inten    --   308.6968                23.8512               123.9702

                    55                     56                     57
                     A                      A                      A
 Frequencies --  1312.2006              1324.2212              1350.0341
 Red. masses --     1.5858                 1.4722                 7.3877
 Frc consts  --     1.6088                 1.5211                 7.9332
 IR Inten    --   206.3800                 0.8939                 6.4816

                    58                     59                     60
                     A                      A                      A
 Frequencies --  1359.0543              1400.7213              1421.7091
 Red. masses --     1.3159                 1.2740                 1.2775
 Frc consts  --     1.4320                 1.4728                 1.5214
 IR Inten    --    17.4512                17.2624                 9.9460

                    61                     62                     63
                     A                      A                      A
 Frequencies --  1437.4882              1439.4394              1442.3686
 Red. masses --     1.2994                 1.2604                 1.2417
 Frc consts  --     1.5820                 1.5387                 1.5220
 IR Inten    --    13.6476                21.4357                 1.1836

                    64                     65                     66
                     A                      A                      A
 Frequencies --  1443.7657              1453.5879              1462.7261
 Red. masses --     1.2725                 2.6393                 2.1067
 Frc consts  --     1.5628                 3.2856                 2.6557
 IR Inten    --     2.0971                27.5650               233.6657

                    67                     68                     69
                     A                      A                      A
 Frequencies --  1505.9657              1511.8340              1517.2372
 Red. masses --     1.0704                 1.0460                 1.0593
 Frc consts  --     1.4303                 1.4086                 1.4367
 IR Inten    --     6.0506                 8.5885                 5.3497

                    70                     71                     72
                     A                      A                      A
 Frequencies --  1517.7948              1520.5374              1523.2496
 Red. masses --     1.1410                 1.0503                 1.0638
 Frc consts  --     1.5486                 1.4307                 1.4543
 IR Inten    --     0.9543                 3.0558                 5.8227

                    73                     74                     75
                     A                      A                      A
 Frequencies --  1527.0521              1529.3351              1534.5439
 Red. masses --     1.0832                 1.1751                 1.0603
 Frc consts  --     1.4882                 1.6194                 1.4711
 IR Inten    --    52.7486                11.9533                 7.9724

                    76                     77                     78
                     A                      A                      A
 Frequencies --  1536.9403              1555.8907              1645.2657
 Red. masses --     1.0988                 2.2703                 6.6574
 Frc consts  --     1.5293                 3.2382                10.6177
 IR Inten    --    30.7158                43.4417                 0.4921

                    79                     80                     81
                     A                      A                      A
 Frequencies --  1669.1978              1810.2332              3039.6988
 Red. masses --     5.8965                11.2912                 1.0402
 Frc consts  --     9.6797                21.8001                 5.6630
 IR Inten    --     2.4578               358.0885                41.2505

                    82                     83                     84
                     A                      A                      A
 Frequencies --  3047.8707              3052.1354              3053.2723
 Red. masses --     1.0367                 1.0365                 1.0361
 Frc consts  --     5.6743                 5.6890                 5.6908
 IR Inten    --    27.5825                17.4937                17.8678

                    85                     86                     87
                     A                      A                      A
 Frequencies --  3060.5910              3070.8940              3095.3725
 Red. masses --     1.0688                 1.0680                 1.0963
 Frc consts  --     5.8989                 5.9341                 6.1885
 IR Inten    --    31.8303                38.8478                22.2072

                    88                     89                     90
                     A                      A                      A
 Frequencies --  3099.3569              3112.6936              3115.4915
 Red. masses --     1.1007                 1.1019                 1.1020
 Frc consts  --     6.2294                 6.2903                 6.3019
 IR Inten    --    16.8739                18.0843                23.3677

                    91                     92                     93
                     A                      A                      A
 Frequencies --  3122.1258              3129.2133              3133.3092
 Red. masses --     1.1024                 1.1017                 1.0977
 Frc consts  --     6.3311                 6.3562                 6.3495
 IR Inten    --    17.0525                26.1708                20.4270

                    94                     95                     96
                     A                      A                      A
 Frequencies --  3133.7759              3145.8800              3149.4824
 Red. masses --     1.0985                 1.1030                 1.0997
 Frc consts  --     6.3560                 6.4315                 6.4272
 IR Inten    --    21.7619                21.8359                32.0235

                    97                     98                     99
                     A                      A                      A
 Frequencies --  3172.3161              3183.7065              3238.2828
 Red. masses --     1.0897                 1.0896                 1.0929
 Frc consts  --     6.4611                 6.5072                 6.7526
 IR Inten    --    23.2959                17.7111                 5.1981

 - Thermochemistry -
 -------------------
 Temperature   298.150 Kelvin.  Pressure   1.00000 Atm.
 Atom     1 has atomic number  6 and mass  12.00000

 Molecular mass:   221.14158 amu.
 Principal axes and moments of inertia in atomic units:
                           1         2         3
     Eigenvalues --  1661.948826605.257227829.83634
           X            0.99999   0.00165  -0.00360
           Y           -0.00160   0.99989   0.01479
           Z            0.00363  -0.01479   0.99988
 This molecule is an asymmetric top.
 Rotational symmetry number  1.
 Warning -- assumption of classical behavior for rotation
           may cause significant error
 Rotational temperatures (Kelvin)      0.05212     0.01311     0.01106
 Rotational constants (GHZ):           1.08592     0.27323     0.23050
 Zero-point vibrational energy     791591.8 (Joules/Mol)
                                  189.19498 (Kcal/Mol)
 Warning -- explicit consideration of  26 degrees of freedom as
           vibrations may cause significant error
 Vibrational temperatures:     31.26    48.48    52.00    67.85    96.48
          (Kelvin)            115.66   151.48   163.71   182.07   231.21
                              295.69   317.49   339.69   359.36   412.88
                              436.69   467.75   501.00   543.43   626.32
                              656.97   680.26   706.88   797.93   816.33
                              827.92   905.47  1037.32  1052.30  1070.54
                             1129.84  1143.44  1164.14  1174.59  1227.61
                             1284.21  1356.74  1360.18  1375.28  1402.47
                             1461.70  1502.69  1525.64  1546.26  1548.46
                             1586.11  1605.96  1622.93  1661.63  1710.46
                             1713.63  1782.52  1817.16  1849.50  1887.96
                             1905.26  1942.40  1955.37  2015.32  2045.52
                             2068.22  2071.03  2075.24  2077.25  2091.39
                             2104.53  2166.75  2175.19  2182.96  2183.77
                             2187.71  2191.61  2197.08  2200.37  2207.86
                             2211.31  2238.58  2367.17  2401.60  2604.52
                             4373.44  4385.20  4391.34  4392.97  4403.50
                             4418.33  4453.55  4459.28  4478.47  4482.49
                             4492.04  4502.23  4508.13  4508.80  4526.21
                             4531.40  4564.25  4580.64  4659.16

 Zero-point correction=                           0.301501 (Hartree/Particle)
 Thermal correction to Energy=                    0.319194
 Thermal correction to Enthalpy=                  0.320138
 Thermal correction to Gibbs Free Energy=         0.253583
 Sum of electronic and zero-point Energies=           -711.760925
 Sum of electronic and thermal Energies=              -711.743232
 Sum of electronic and thermal Enthalpies=            -711.742288
 Sum of electronic and thermal Free Energies=         -711.808843

                     E (Thermal)             CV                S
                      KCal/Mol        Cal/Mol-Kelvin    Cal/Mol-Kelvin
 Total                  200.297             63.815            140.077
 Electronic               0.000              0.000              0.000
 Translational            0.889              2.981             42.084
 Rotational               0.889              2.981             32.819
 Vibrational            198.520             57.854             65.174
 Vibration     1          0.593              1.985              6.469
 Vibration     2          0.594              1.983              5.599
 Vibration     3          0.594              1.982              5.460
 Vibration     4          0.595              1.979              4.933
 Vibration     5          0.598              1.970              4.238
 Vibration     6          0.600              1.962              3.881
 Vibration     7          0.605              1.945              3.354
 Vibration     8          0.607              1.938              3.203
 Vibration     9          0.611              1.927              2.998
 Vibration    10          0.622              1.891              2.542
 Vibration    11          0.640              1.832              2.083
 Vibration    12          0.647              1.810              1.954
 Vibration    13          0.655              1.786              1.832
 Vibration    14          0.663              1.763              1.732
 Vibration    15          0.684              1.698              1.492
 Vibration    16          0.695              1.667              1.397
 Vibration    17          0.709              1.625              1.284
 Vibration    18          0.726              1.579              1.174
 Vibration    19          0.748              1.518              1.048
 Vibration    20          0.796              1.393              0.841
 Vibration    21          0.815              1.346              0.776
 Vibration    22          0.830              1.310              0.730
 Vibration    23          0.847              1.269              0.680
 Vibration    24          0.910              1.130              0.535
 Vibration    25          0.923              1.102              0.509
 Vibration    26          0.932              1.084              0.494

 Optimization completed on the basis of negligible forces.
    -- Stationary point found.
 Normal termination of Gaussian 09 at Thu Sep 30 00:29:11 2021.
 Gaussian 09:  AM64L-G09RevA.02 11-Jun-2009

 ----------------------------------------------------------------------
 #p TD(NStates=10, Root=1) b3lyp/6-31G* volume pop=NPA density=current
 Geom=AllCheck Guess=Read
 ----------------------------------------------------------------------

 CCN(C(=O)Oc1ccc(cc1C)C)CC_conf_0
 --------------------------------
 Redundant internal coordinates taken from checkpoint file:
 C13H19NO2_f902_conf_0.chk
 Charge =  0 Multiplicity = 1

                         Standard orientation:
 ---------------------------------------------------------------------
 Center     Atomic      Atomic             Coordinates (Angstroms)
 Number     Number       Type             X           Y           Z
 ---------------------------------------------------------------------
      1          6           0        3.007590    2.378796   -0.204330
      2          6           0        2.851718    1.030236   -0.913149
      3          7           0        2.547306   -0.074357    0.000919
      4          6           0        1.283190   -0.473283    0.319083
      5          8           0        1.005342   -1.410138    1.044226
      6          8           0        0.347478    0.341931   -0.287287
      7          6           0       -1.009466    0.032634   -0.175925
      8          6           0       -1.501479   -1.232370   -0.488483
      9          6           0       -2.875031   -1.460756   -0.448714
     10          6           0       -3.767493   -0.438019   -0.106004
     11          6           0       -3.238180    0.822378    0.192317
     12          6           0       -1.863938    1.086024    0.170613
     13          6           0       -1.318748    2.454179    0.498301
     14          6           0       -5.255364   -0.694315   -0.035600
     15          6           0        3.659312   -0.809982    0.611623
     16          6           0        4.090755   -2.029787   -0.206229
     17          1           0        3.271670    3.160912   -0.925828
     18          1           0        3.795325    2.340814    0.556652
     19          1           0        2.071591    2.664315    0.285475
     20          1           0        3.778568    0.769070   -1.437552
     21          1           0        2.063849    1.088407   -1.665770
     22          1           0       -0.814504   -2.028638   -0.748774
     23          1           0       -3.255669   -2.450329   -0.690834
     24          1           0       -3.915608    1.633102    0.454142
     25          1           0       -2.127616    3.139266    0.769579
     26          1           0       -0.777284    2.887219   -0.351368
     27          1           0       -0.613049    2.413326    1.336632
     28          1           0       -5.579675   -1.391847   -0.815979
     29          1           0       -5.828074    0.231785   -0.152243
     30          1           0       -5.540279   -1.134599    0.929474
     31          1           0        3.347546   -1.122031    1.610748
     32          1           0        4.492968   -0.108021    0.727004
     33          1           0        3.264979   -2.743787   -0.278351
     34          1           0        4.938828   -2.531400    0.274345
     35          1           0        4.395537   -1.745816   -1.220301
 ---------------------------------------------------------------------

 SCF Done:  E(RB3LYP) =  -712.062426079     A.U. after    1 cycles

 Excitation energies and oscillator strengths:

 Excited State   1:      Singlet-A      5.2307 eV  237.03 nm  f=0.0048  <S**2>=0.000
      59 -> 61         0.34378
      59 -> 62         0.24606
      60 -> 61        -0.33106
      60 -> 62         0.45196
 This state for optimization and/or second-order correction.
 Total Energy, E(TD-HF/TD-KS) =  -711.870202314
 Copying the excited state density for this state as the 1-particle RhoCI density.

 Excited State   2:      Singlet-A      5.7749 eV  214.69 nm  f=0.1996  <S**2>=0.000
      59 -> 61         0.14943
      59 -> 62        -0.23615
      60 -> 61         0.51112
      60 -> 62         0.37776

 Excited State   3:      Singlet-A      6.0975 eV  203.34 nm  f=0.0036  <S**2>=0.000
      58 -> 61         0.68177
      59 -> 61        -0.12950

 Excited State   4:      Singlet-A      6.1247 eV  202.43 nm  f=0.0129  <S**2>=0.000
      58 -> 62         0.68430

 Excited State   5:      Singlet-A      6.4403 eV  192.51 nm  f=0.0382  <S**2>=0.000
      57 -> 61         0.37017
      57 -> 62         0.41671
      57 -> 63         0.25881
      58 -> 62        -0.12688
      59 -> 61        -0.10042
      59 -> 62        -0.22537
      59 -> 63        -0.12896
      60 -> 61        -0.11581

 Excited State   6:      Singlet-A      6.6054 eV  187.70 nm  f=0.4858  <S**2>=0.000
      57 -> 61        -0.21631
      57 -> 62         0.18992
      59 -> 61         0.39979
      59 -> 62        -0.22401
      60 -> 62        -0.21490
      60 -> 63        -0.37233

 Excited State   7:      Singlet-A      6.7296 eV  184.24 nm  f=0.0394  <S**2>=0.000
      57 -> 61         0.47187
      57 -> 62        -0.33410
      59 -> 61         0.13881
      60 -> 61         0.11318
      60 -> 63        -0.31540

 Excited State   8:      Singlet-A      6.8152 eV  181.92 nm  f=0.2354  <S**2>=0.000
      57 -> 62         0.30335
      57 -> 63         0.10485
      59 -> 61         0.21626
      59 -> 62         0.39410
      60 -> 61         0.24115
      60 -> 62        -0.20248
      60 -> 63         0.21730

 Excited State   9:      Singlet-A      6.9839 eV  177.53 nm  f=0.3640  <S**2>=0.000
      57 -> 61         0.24517
      57 -> 63        -0.23399
      58 -> 63        -0.15004
      59 -> 61         0.24180
      59 -> 62        -0.26191
      59 -> 63         0.13368
      60 -> 61        -0.12783
      60 -> 62        -0.14360
      60 -> 63         0.38048

 Excited State  10:      Singlet-A      7.0655 eV  175.48 nm  f=0.0093  <S**2>=0.000
      56 -> 61         0.11895
      56 -> 62         0.15085
      57 -> 61        -0.11813
      57 -> 62        -0.24682
      57 -> 63         0.42585
      58 -> 63         0.12144
      59 -> 61         0.11988
      59 -> 63        -0.32732
      60 -> 63         0.21658

 The electronic state is 1-A.
 Alpha  occ. eigenvalues --  -19.18892 -19.11154 -14.36133 -10.32650 -10.23803
 Alpha  occ. eigenvalues --  -10.22580 -10.22061 -10.19201 -10.18861 -10.18322
 Alpha  occ. eigenvalues --  -10.18179 -10.18080 -10.17986 -10.17984 -10.17912
 Alpha  occ. eigenvalues --  -10.17815  -1.09881  -1.00864  -0.93734  -0.85074
 Alpha  occ. eigenvalues --   -0.77852  -0.77072  -0.75711  -0.74125  -0.68802
 Alpha  occ. eigenvalues --   -0.68379  -0.64425  -0.64204  -0.60675  -0.57779
 Alpha  occ. eigenvalues --   -0.54555  -0.52541  -0.49424  -0.47639  -0.47212
 Alpha  occ. eigenvalues --   -0.45696  -0.44624  -0.43987  -0.42983  -0.42520
 Alpha  occ. eigenvalues --   -0.41994  -0.40905  -0.40531  -0.40263  -0.39744
 Alpha  occ. eigenvalues --   -0.39093  -0.38588  -0.37771  -0.37216  -0.36896
 Alpha  occ. eigenvalues --   -0.35557  -0.35102  -0.34347  -0.34168  -0.33045
 Alpha  occ. eigenvalues --   -0.30239  -0.26752  -0.23909  -0.23706  -0.21953
 Alpha virt. eigenvalues --    0.00754   0.00902   0.05829   0.07819   0.09773
 Alpha virt. eigenvalues --    0.10286   0.12183   0.12855   0.13285   0.13814
 Alpha virt. eigenvalues --    0.14345   0.14729   0.15117   0.15769   0.15903

 Mulliken atomic charges:
              1
     1  C   -0.446352
     2  C   -0.143358
     3  N   -0.438029
     4  C    0.786502
     5  O   -0.509757
     6  O   -0.544124
     7  C    0.291852
     8  C   -0.141994
     9  C   -0.211423
    10  C    0.203257
    11  C   -0.273750
    12  C    0.147954
    13  C   -0.522833
    14  C   -0.532245
    15  C   -0.144042
    16  C   -0.444278
    17  H    0.147817
    18  H    0.150538
    19  H    0.167772
    20  H    0.149522
    21  H    0.176329
    22  H    0.142441
    23  H    0.122443
    24  H    0.113223
    25  H    0.152553
    26  H    0.161339
    27  H    0.162782
    28  H    0.157486
    29  H    0.155526
    30  H    0.169771
    31  H    0.182531
    32  H    0.143909
    33  H    0.174591
    34  H    0.147679
    35  H    0.144366
 Sum of Mulliken atomic charges =  -0.00000

 Dipole moment (field-independent basis, Debye):
    X=              1.8099    Y=              1.6990    Z=             -1.2935  Tot=              2.7992
 Quadrupole moment (field-independent basis, Debye-Ang):
   XX=            -79.5174   YY=            -94.8056   ZZ=            -98.7811
   XY=              1.8707   XZ=             -1.8748   YZ=              3.0908

 Summary of Natural Population Analysis:

                                       Natural Population
                Natural  -----------------------------------------------
    Atom  No    Charge         Core      Valence    Rydberg      Total
 -----------------------------------------------------------------------
      C    1   -0.68737      1.99945     4.68044    0.00748     6.68737
      C    2   -0.25928      1.99934     4.24479    0.01514     6.25928
      N    3   -0.49799      1.99930     5.48515    0.01354     7.49799
      C    4    0.93646      1.99936     3.01849    0.04569     5.06354
      O    5   -0.63826      1.99978     6.61939    0.01909     8.63826
      O    6   -0.53849      1.99969     6.52860    0.01019     8.53849
      C    7    0.32414      1.99865     3.65445    0.02275     5.67586
      C    8   -0.27747      1.99904     4.25991    0.01852     6.27747
      C    9   -0.24135      1.99906     4.22490    0.01738     6.24135
      C   10    0.00310      1.99906     3.98167    0.01616     5.99690
      C   11   -0.24852      1.99901     4.23270    0.01680     6.24852
      C   12   -0.06209      1.99898     4.04594    0.01717     6.06209
      C   13   -0.68935      1.99941     4.68179    0.00815     6.68935
      C   14   -0.69247      1.99940     4.68535    0.00772     6.69247
      C   15   -0.25487      1.99935     4.24007    0.01545     6.25487
      C   16   -0.68828      1.99945     4.68139    0.00743     6.68828
      H   17    0.23503      0.00000     0.76403    0.00093     0.76497
      H   18    0.22779      0.00000     0.77130    0.00091     0.77221
      H   19    0.23750      0.00000     0.76127    0.00123     0.76250
      H   20    0.23087      0.00000     0.76765    0.00148     0.76913
      H   21    0.25334      0.00000     0.74515    0.00151     0.74666
      H   22    0.24549      0.00000     0.75341    0.00111     0.75451
      H   23    0.22779      0.00000     0.77120    0.00101     0.77221
      H   24    0.22282      0.00000     0.77600    0.00119     0.77718
      H   25    0.23721      0.00000     0.76197    0.00081     0.76279
      H   26    0.24099      0.00000     0.75715    0.00186     0.75901
      H   27    0.24170      0.00000     0.75653    0.00176     0.75830
      H   28    0.23965      0.00000     0.75866    0.00169     0.76035
      H   29    0.23725      0.00000     0.76133    0.00143     0.76275
      H   30    0.24725      0.00000     0.75103    0.00172     0.75275
      H   31    0.25789      0.00000     0.74014    0.00197     0.74211
      H   32    0.22686      0.00000     0.77181    0.00132     0.77314
      H   33    0.24349      0.00000     0.75521    0.00130     0.75651
      H   34    0.23514      0.00000     0.76399    0.00087     0.76486
      H   35    0.22400      0.00000     0.77507    0.00093     0.77600
 =======================================================================
   * Total *    0.00000     31.98835    87.72793    0.28372   120.00000

 Normal termination of Gaussian 09 at Thu Sep 30 06:04:43 2021.
