 Gaussian 09, Revision A.02,

 -----------------------------------
 #p opt b3lyp/6-31G* scf=(xqc,tight)
 -----------------------------------

 -------------------------
 COc1ccccc1c1ccccc1_conf_0
 -------------------------
 Symbolic Z-matrix:
 Charge =  0 Multiplicity = 1

 SCF Done:  E(RB3LYP) =  -577.823711097     A.U. after   14 cycles
 SCF Done:  E(RB3LYP) =  -577.825024011     A.U. after   12 cycles
 SCF Done:  E(RB3LYP) =  -577.825125520     A.U. after   12 cycles
 SCF Done:  E(RB3LYP) =  -577.825146941     A.U. after   10 cycles
 SCF Done:  E(RB3LYP) =  -577.825161657     A.U. after   10 cycles
 SCF Done:  E(RB3LYP) =  -577.825167414     A.U. after   10 cycles
 SCF Done:  E(RB3LYP) =  -577.825169662     A.U. after    8 cycles
 SCF Done:  E(RB3LYP) =  -577.825170047     A.U. after    8 cycles
 SCF Done:  E(RB3LYP) =  -577.825170102     A.U. after    7 cycles
 Optimization completed.
    -- Stationary point found.
 Normal termination of Gaussian 09 at Thu Sep 30 13:26:46 2021.

 ----------------------------------------------------------------------
 #p freq b3lyp/6-31G* volume NMR pop=NPA density=current Geom=AllCheck
 Guess=Read
 ----------------------------------------------------------------------

 COc1ccccc1c1ccccc1_conf_0
 -------------------------
 Redundant internal coordinates taken from checkpoint file:
 C13H12O_3674_conf_0.chk
 Charge =  0 Multiplicity = 1

 SCF Done:  E(RB3LYP) =  -577.825170102     A.U. after    1 cycles

  1  C    Isotropic =   137.5656   Anisotropy =    65.0533

  2  O    Isotropic =   239.6158   Anisotropy =    94.9060

  3  C    Isotropic =    41.4666   Anisotropy =   122.0377

  4  C    Isotropic =    85.9780   Anisotropy =   142.8005

  5  C    Isotropic =    68.2638   Anisotropy =   161.4820

  6  C    Isotropic =    75.7205   Anisotropy =   154.4217

  7  C    Isotropic =    64.7283   Anisotropy =   149.8157

  8  C    Isotropic =    63.8834   Anisotropy =   146.8393

  9  C    Isotropic =    56.4916   Anisotropy =   170.6551

 10  C    Isotropic =    67.2304   Anisotropy =   151.4135

 11  C    Isotropic =    68.3639   Anisotropy =   163.9698

 12  C    Isotropic =    70.0827   Anisotropy =   164.5850

 13  C    Isotropic =    69.4965   Anisotropy =   162.6449

 14  C    Isotropic =    65.4751   Anisotropy =   164.2777

 15  H    Isotropic =    28.5169   Anisotropy =     8.6436

 16  H    Isotropic =    28.7412   Anisotropy =     8.8661

 17  H    Isotropic =    28.2853   Anisotropy =     8.4172

 18  H    Isotropic =    25.7447   Anisotropy =     7.3880

 19  H    Isotropic =    25.0733   Anisotropy =     4.4480

 20  H    Isotropic =    25.3170   Anisotropy =     4.1908

 21  H    Isotropic =    25.0322   Anisotropy =     8.4424

 22  H    Isotropic =    25.0166   Anisotropy =     8.5233

 23  H    Isotropic =    24.9379   Anisotropy =     4.7858

 24  H    Isotropic =    25.0587   Anisotropy =     4.0182

 25  H    Isotropic =    25.0019   Anisotropy =     4.8792

 26  H    Isotropic =    24.5421   Anisotropy =     9.4654

  Exact polarizability: 196.441  -8.612 142.437  -3.461 -12.241  70.558
 Approx polarizability: 290.710 -14.694 235.348  -6.887 -27.865 114.069

                     1                      2                      3
                     A                      A                      A
 Frequencies --    54.9568                82.1880                90.5697
 Red. masses --     3.6087                 4.1724                 3.4718
 Frc consts  --     0.0064                 0.0166                 0.0168
 IR Inten    --     0.3840                 3.2385                 1.6380

                     4                      5                      6
                     A                      A                      A
 Frequencies --   107.3124               198.7396               228.2334
 Red. masses --     3.9863                 2.7991                 3.4002
 Frc consts  --     0.0270                 0.0651                 0.1044
 IR Inten    --     0.2248                 0.1563                 0.3492

                     7                      8                      9
                     A                      A                      A
 Frequencies --   268.0148               300.7884               318.0887
 Red. masses --     1.4409                 3.8575                 4.4691
 Frc consts  --     0.0610                 0.2056                 0.2664
 IR Inten    --     0.2123                 0.2198                 1.1381

                    10                     11                     12
                     A                      A                      A
 Frequencies --   350.7971               418.4944               451.9713
 Red. masses --     3.7679                 3.0253                 4.0205
 Frc consts  --     0.2732                 0.3122                 0.4839
 IR Inten    --     0.4979                 0.0497                 2.5151

                    13                     14                     15
                     A                      A                      A
 Frequencies --   510.5477               552.0793               575.9004
 Red. masses --     3.5358                 4.6016                 3.7680
 Frc consts  --     0.5430                 0.8263                 0.7363
 IR Inten    --     0.9770                 3.2772                 2.1556

                    16                     17                     18
                     A                      A                      A
 Frequencies --   581.4204               626.9814               636.5058
 Red. masses --     4.6551                 6.8231                 6.3584
 Frc consts  --     0.9272                 1.5803                 1.5178
 IR Inten    --     4.6335                 6.6286                 0.6103

                    19                     20                     21
                     A                      A                      A
 Frequencies --   712.8674               737.3835               740.2020
 Red. masses --     1.9025                 3.4487                 3.8455
 Frc consts  --     0.5696                 1.1048                 1.2414
 IR Inten    --    22.4265                12.1810                 3.9259

                    22                     23                     24
                     A                      A                      A
 Frequencies --   766.1347               785.9158               817.4310
 Red. masses --     1.3865                 1.9595                 5.4601
 Frc consts  --     0.4795                 0.7131                 2.1496
 IR Inten    --    58.9127                12.0442                 6.3393

                    25                     26                     27
                     A                      A                      A
 Frequencies --   859.0421               861.0679               927.4236
 Red. masses --     1.2478                 1.4618                 1.3826
 Frc consts  --     0.5425                 0.6386                 0.7006
 IR Inten    --     0.3367                 1.2260                 2.8665

                    28                     29                     30
                     A                      A                      A
 Frequencies --   941.7264               967.8623               971.5931
 Red. masses --     1.3799                 1.3426                 1.2470
 Frc consts  --     0.7210                 0.7410                 0.6936
 IR Inten    --     0.9352                 0.5755                 0.0345

                    31                     32                     33
                     A                      A                      A
 Frequencies --   992.1441              1018.2574              1024.8621
 Red. masses --     1.2424                 6.0983                 7.3799
 Frc consts  --     0.7205                 3.7254                 4.5670
 IR Inten    --     0.1989                 0.3037                 8.2857

                    34                     35                     36
                     A                      A                      A
 Frequencies --  1066.2624              1068.5263              1092.7364
 Red. masses --     2.5883                 3.5712                 2.1443
 Frc consts  --     1.7338                 2.4024                 1.5085
 IR Inten    --    13.8603                19.2483                22.5031

                    37                     38                     39
                     A                      A                      A
 Frequencies --  1112.5114              1155.6001              1183.9834
 Red. masses --     1.6153                 1.6731                 1.2698
 Frc consts  --     1.1779                 1.3164                 1.0487
 IR Inten    --     4.1182                22.7062                 0.9254

                    40                     41                     42
                     A                      A                      A
 Frequencies --  1192.7616              1198.0590              1216.0919
 Red. masses --     1.0953                 1.0924                 1.3886
 Frc consts  --     0.9181                 0.9238                 1.2099
 IR Inten    --     0.0362                 3.2840                 6.3141

                    43                     44                     45
                     A                      A                      A
 Frequencies --  1218.4558              1277.8770              1300.0829
 Red. masses --     1.1541                 2.7968                 3.1014
 Frc consts  --     1.0095                 2.6908                 3.0885
 IR Inten    --     1.9448                58.1375               153.9496

                    46                     47                     48
                     A                      A                      A
 Frequencies --  1312.0046              1342.7910              1350.8372
 Red. masses --     2.3765                 2.3258                 7.8309
 Frc consts  --     2.4102                 2.4708                 8.4192
 IR Inten    --     2.1640                 7.1648                15.3009

                    49                     50                     51
                     A                      A                      A
 Frequencies --  1369.8186              1477.0214              1495.9513
 Red. masses --     1.6573                 1.8749                 1.6024
 Frc consts  --     1.8322                 2.4099                 2.1128
 IR Inten    --     1.3042                45.5820                 2.8662

                    52                     53                     54
                     A                      A                      A
 Frequencies --  1508.9835              1520.4907              1530.1639
 Red. masses --     1.7878                 1.0493                 1.3566
 Frc consts  --     2.3985                 1.4293                 1.8715
 IR Inten    --     1.6049                 5.4217                74.1166

                    55                     56                     57
                     A                      A                      A
 Frequencies --  1539.3943              1555.1296              1629.5196
 Red. masses --     1.5576                 2.3775                 5.1937
 Frc consts  --     2.1747                 3.3877                 8.1254
 IR Inten    --    13.4005                18.7094                 3.2417

                    58                     59                     60
                     A                      A                      A
 Frequencies --  1641.7018              1655.7956              1662.5759
 Red. masses --     6.0888                 5.7570                 5.5205
 Frc consts  --     9.6688                 9.2995                 8.9906
 IR Inten    --     7.1258                25.7294                 5.4171

                    61                     62                     63
                     A                      A                      A
 Frequencies --  3024.4661              3083.7460              3156.3597
 Red. masses --     1.0348                 1.1067                 1.0996
 Frc consts  --     5.5770                 6.2004                 6.4545
 IR Inten    --    62.8261                41.2675                21.3673

                    64                     65                     66
                     A                      A                      A
 Frequencies --  3178.2000              3185.4572              3186.7596
 Red. masses --     1.0846                 1.0860                 1.0876
 Frc consts  --     6.4550                 6.4927                 6.5077
 IR Inten    --     2.4803                 1.5743                 8.5583

                    67                     68                     69
                     A                      A                      A
 Frequencies --  3194.5633              3198.0596              3206.8599
 Red. masses --     1.0906                 1.0917                 1.0967
 Frc consts  --     6.5577                 6.5786                 6.6452
 IR Inten    --    30.2118                15.6704                34.3559

                    70                     71                     72
                     A                      A                      A
 Frequencies --  3210.7283              3226.2463              3227.9385
 Red. masses --     1.0955                 1.0929                 1.0919
 Frc consts  --     6.6537                 6.7026                 6.7031
 IR Inten    --    28.5866                 7.7976                14.2399

 - Thermochemistry -
 -------------------
 Temperature   298.150 Kelvin.  Pressure   1.00000 Atm.
 Atom     1 has atomic number  6 and mass  12.00000

 Molecular mass:   184.08882 amu.
 Principal axes and moments of inertia in atomic units:
                           1         2         3
     Eigenvalues --  1466.022803604.346574772.88764
           X            0.99992   0.01228   0.00065
           Y           -0.01228   0.99991  -0.00538
           Z           -0.00072   0.00537   0.99999
 This molecule is an asymmetric top.
 Rotational symmetry number  1.
 Warning -- assumption of classical behavior for rotation
           may cause significant error
 Rotational temperatures (Kelvin)      0.05908     0.02403     0.01815
 Rotational constants (GHZ):           1.23105     0.50071     0.37812
 Zero-point vibrational energy     563632.6 (Joules/Mol)
                                  134.71143 (Kcal/Mol)
 Warning -- explicit consideration of  16 degrees of freedom as
           vibrations may cause significant error
 Vibrational temperatures:     79.07   118.25   130.31   154.40   285.94
          (Kelvin)            328.38   385.61   432.77   457.66   504.72
                              602.12   650.29   734.56   794.32   828.59
                              836.53   902.09   915.79  1025.66  1060.93
                             1064.98  1102.30  1130.76  1176.10  1235.97
                             1238.88  1334.35  1354.93  1392.54  1397.90
                             1427.47  1465.04  1474.55  1534.11  1537.37
                             1572.20  1600.65  1662.65  1703.49  1716.12
                             1723.74  1749.68  1753.08  1838.58  1870.53
                             1887.68  1931.97  1943.55  1970.86  2125.10
                             2152.34  2171.09  2187.64  2201.56  2214.84
                             2237.48  2344.51  2362.04  2382.32  2392.07
                             4351.53  4436.82  4541.29  4572.72  4583.16
                             4585.03  4596.26  4601.29  4613.95  4619.52
                             4641.84  4644.28

 Zero-point correction=                           0.214676 (Hartree/Particle)
 Thermal correction to Energy=                    0.226156
 Thermal correction to Enthalpy=                  0.227100
 Thermal correction to Gibbs Free Energy=         0.176721
 Sum of electronic and zero-point Energies=           -577.610494
 Sum of electronic and thermal Energies=              -577.599014
 Sum of electronic and thermal Enthalpies=            -577.598070
 Sum of electronic and thermal Free Energies=         -577.648449

                     E (Thermal)             CV                S
                      KCal/Mol        Cal/Mol-Kelvin    Cal/Mol-Kelvin
 Total                  141.915             45.473            106.032
 Electronic               0.000              0.000              0.000
 Translational            0.889              2.981             41.537
 Rotational               0.889              2.981             31.601
 Vibrational            140.138             39.511             32.895
 Vibration     1          0.596              1.976              4.631
 Vibration     2          0.600              1.961              3.838
 Vibration     3          0.602              1.956              3.648
 Vibration     4          0.606              1.943              3.317
 Vibration     5          0.637              1.842              2.145
 Vibration     6          0.651              1.798              1.893
 Vibration     7          0.673              1.732              1.609
 Vibration     8          0.693              1.672              1.413
 Vibration     9          0.704              1.639              1.320
 Vibration    10          0.728              1.574              1.163
 Vibration    11          0.781              1.430              0.897
 Vibration    12          0.811              1.357              0.790
 Vibration    13          0.866              1.227              0.632
 Vibration    14          0.907              1.135              0.540
 Vibration    15          0.932              1.083              0.493
 Vibration    16          0.938              1.071              0.483

 Optimization completed.
    -- Stationary point found.
 Normal termination of Gaussian 09 at Thu Sep 30 14:18:47 2021.
 Gaussian 09:  AM64L-G09RevA.02 11-Jun-2009

 ----------------------------------------------------------------------
 #p TD(NStates=10, Root=1) b3lyp/6-31G* volume pop=NPA density=current
 Geom=AllCheck Guess=Read
 ----------------------------------------------------------------------

 COc1ccccc1c1ccccc1_conf_0
 -------------------------
 Redundant internal coordinates taken from checkpoint file:
 C13H12O_3674_conf_0.chk
 Charge =  0 Multiplicity = 1

                         Standard orientation:
 ---------------------------------------------------------------------
 Center     Atomic      Atomic             Coordinates (Angstroms)
 Number     Number       Type             X           Y           Z
 ---------------------------------------------------------------------
      1          6           0        1.867005    2.793821    0.442649
      2          8           0        0.941006    1.742348    0.227613
      3          6           0        1.417166    0.472469    0.052269
      4          6           0        2.781614    0.163519    0.026295
      5          6           0        3.202167   -1.158239   -0.138435
      6          6           0        2.266364   -2.178553   -0.276200
      7          6           0        0.906867   -1.864157   -0.249106
      8          6           0        0.446824   -0.550654   -0.087492
      9          6           0       -1.016994   -0.282062   -0.047627
     10          6           0       -1.858608   -1.118077    0.705617
     11          6           0       -3.239376   -0.922494    0.724444
     12          6           0       -3.809974    0.116273   -0.011781
     13          6           0       -2.986107    0.956690   -0.763511
     14          6           0       -1.606113    0.762443   -0.780441
     15          1           0        2.532140    2.932970   -0.420133
     16          1           0        2.474325    2.620100    1.340758
     17          1           0        1.266125    3.694442    0.582423
     18          1           0        3.523061    0.946079    0.137593
     19          1           0        4.266124   -1.378836   -0.160024
     20          1           0        2.585117   -3.207970   -0.411401
     21          1           0        0.171085   -2.653364   -0.376392
     22          1           0       -1.420610   -1.917553    1.297166
     23          1           0       -3.867713   -1.579246    1.320745
     24          1           0       -4.885540    0.271881    0.001955
     25          1           0       -3.420257    1.766988   -1.343860
     26          1           0       -0.976914    1.419858   -1.369811
 ---------------------------------------------------------------------

 SCF Done:  E(RB3LYP) =  -577.825170102     A.U. after    1 cycles

 Excitation energies and oscillator strengths:

 Excited State   1:      Singlet-A      4.6302 eV  267.77 nm  f=0.2011  <S**2>=0.000
      48 -> 50        -0.18774
      48 -> 52        -0.11260
      49 -> 50         0.65001
      49 -> 52        -0.13160
 This state for optimization and/or second-order correction.
 Total Energy, E(TD-HF/TD-KS) =  -577.655012373
 Copying the excited state density for this state as the 1-particle RhoCI density.

 Excited State   2:      Singlet-A      5.0281 eV  246.58 nm  f=0.0025  <S**2>=0.000
      47 -> 50         0.43119
      48 -> 51         0.13207
      49 -> 51         0.52244

 Excited State   3:      Singlet-A      5.1356 eV  241.42 nm  f=0.1584  <S**2>=0.000
      48 -> 50         0.50773
      49 -> 50         0.24268
      49 -> 52         0.39076

 Excited State   4:      Singlet-A      5.5274 eV  224.31 nm  f=0.0164  <S**2>=0.000
      46 -> 51        -0.13933
      47 -> 50        -0.42206
      48 -> 51        -0.32573
      49 -> 51         0.43787

 Excited State   5:      Singlet-A      5.5549 eV  223.20 nm  f=0.0660  <S**2>=0.000
      46 -> 50        -0.25050
      48 -> 50        -0.35774
      48 -> 52         0.11230
      49 -> 52         0.41693
      49 -> 53        -0.32506

 Excited State   6:      Singlet-A      5.9783 eV  207.39 nm  f=0.0475  <S**2>=0.000
      46 -> 50        -0.19939
      46 -> 52        -0.10985
      47 -> 50        -0.20625
      47 -> 52         0.11443
      47 -> 53        -0.13793
      48 -> 50         0.13855
      48 -> 51         0.36876
      48 -> 53        -0.15363
      49 -> 52        -0.21691
      49 -> 53        -0.36745

 Excited State   7:      Singlet-A      6.0328 eV  205.52 nm  f=0.0942  <S**2>=0.000
      46 -> 50         0.13735
      46 -> 52         0.12801
      47 -> 50        -0.21615
      47 -> 52         0.20780
      47 -> 53        -0.18737
      48 -> 50        -0.13542
      48 -> 51         0.39430
      48 -> 53         0.11743
      49 -> 52         0.19721
      49 -> 53         0.31065

 Excited State   8:      Singlet-A      6.1425 eV  201.84 nm  f=0.0078  <S**2>=0.000
      46 -> 50         0.48720
      47 -> 51        -0.21436
      48 -> 52         0.32325
      48 -> 53         0.20648
      49 -> 53        -0.24651

 Excited State   9:      Singlet-A      6.2707 eV  197.72 nm  f=0.0162  <S**2>=0.000
      46 -> 51         0.17376
      47 -> 52         0.60604
      48 -> 51        -0.17796
      48 -> 52         0.17023
      48 -> 53        -0.13853

 Excited State  10:      Singlet-A      6.3022 eV  196.73 nm  f=0.0691  <S**2>=0.000
      46 -> 52         0.28844
      47 -> 52        -0.21717
      48 -> 52         0.46931
      48 -> 53        -0.30824
      49 -> 53         0.15053

 The electronic state is 1-A.
 Alpha  occ. eigenvalues --  -19.17704 -10.24693 -10.24151 -10.19241 -10.19159
 Alpha  occ. eigenvalues --  -10.18846 -10.18553 -10.18550 -10.18232 -10.18181
 Alpha  occ. eigenvalues --  -10.18117 -10.18099 -10.18023 -10.17916  -1.06331
 Alpha  occ. eigenvalues --   -0.85720  -0.83669  -0.77141  -0.74781  -0.73421
 Alpha  occ. eigenvalues --   -0.71964  -0.69189  -0.61886  -0.60206  -0.58288
 Alpha  occ. eigenvalues --   -0.57315  -0.53264  -0.50549  -0.48057  -0.47357
 Alpha  occ. eigenvalues --   -0.46860  -0.45065  -0.43855  -0.43396  -0.41645
 Alpha  occ. eigenvalues --   -0.41126  -0.40716  -0.37709  -0.37135  -0.35762
 Alpha  occ. eigenvalues --   -0.34989  -0.34573  -0.33268  -0.31756  -0.31538
 Alpha  occ. eigenvalues --   -0.26309  -0.24072  -0.23156  -0.20850
 Alpha virt. eigenvalues --   -0.01801   0.00919   0.01312   0.03216   0.09240
 Alpha virt. eigenvalues --    0.10002   0.11068   0.13138   0.14612   0.15209
 Alpha virt. eigenvalues --    0.15377   0.16268   0.16559   0.17051   0.18139

 Mulliken atomic charges:
              1
     1  C   -0.236174
     2  O   -0.428083
     3  C    0.329795
     4  C   -0.187811
     5  C   -0.159079
     6  C   -0.101174
     7  C   -0.207215
     8  C    0.038922
     9  C    0.076674
    10  C   -0.179903
    11  C   -0.134749
    12  C   -0.152092
    13  C   -0.138190
    14  C   -0.161828
    15  H    0.176633
    16  H    0.178738
    17  H    0.191773
    18  H    0.135628
    19  H    0.130944
    20  H    0.144970
    21  H    0.139628
    22  H    0.110431
    23  H    0.112078
    24  H    0.106731
    25  H    0.109630
    26  H    0.103722
 Sum of Mulliken atomic charges =  -0.00000

 Dipole moment (field-independent basis, Debye):
    X=              4.5792    Y=              2.0473    Z=              0.3858  Tot=              5.0309
 Quadrupole moment (field-independent basis, Debye-Ang):
   XX=            -76.0269   YY=            -68.5583   ZZ=            -84.0378
   XY=              4.6250   XZ=              0.3899   YZ=             -0.3607

 Summary of Natural Population Analysis:

                                       Natural Population
                Natural  -----------------------------------------------
    Atom  No    Charge         Core      Valence    Rydberg      Total
 -----------------------------------------------------------------------
      C    1   -0.32866      1.99941     4.31499    0.01426     6.32866
      O    2   -0.40785      1.99975     6.39645    0.01166     8.40785
      C    3    0.37906      1.99873     3.60082    0.02139     5.62094
      C    4   -0.31274      1.99906     4.29906    0.01462     6.31274
      C    5   -0.27876      1.99913     4.26193    0.01770     6.27876
      C    6   -0.14139      1.99909     4.12770    0.01460     6.14139
      C    7   -0.28607      1.99908     4.27065    0.01634     6.28607
      C    8   -0.05432      1.99898     4.03686    0.01848     6.05432
      C    9   -0.11468      1.99901     4.09828    0.01739     6.11468
      C   10   -0.23934      1.99905     4.22639    0.01390     6.23934
      C   11   -0.23613      1.99910     4.22249    0.01454     6.23613
      C   12   -0.28059      1.99909     4.26556    0.01594     6.28059
      C   13   -0.24178      1.99910     4.22821    0.01447     6.24178
      C   14   -0.22379      1.99904     4.21083    0.01391     6.22379
      H   15    0.21970      0.00000     0.77858    0.00172     0.78030
      H   16    0.22210      0.00000     0.77595    0.00195     0.77790
      H   17    0.24026      0.00000     0.75922    0.00053     0.75974
      H   18    0.23515      0.00000     0.76387    0.00098     0.76485
      H   19    0.23637      0.00000     0.76274    0.00090     0.76363
      H   20    0.23801      0.00000     0.76115    0.00084     0.76199
      H   21    0.24437      0.00000     0.75450    0.00113     0.75563
      H   22    0.22586      0.00000     0.77277    0.00137     0.77414
      H   23    0.22799      0.00000     0.77106    0.00095     0.77201
      H   24    0.22471      0.00000     0.77434    0.00095     0.77529
      H   25    0.22706      0.00000     0.77201    0.00093     0.77294
      H   26    0.22547      0.00000     0.77320    0.00133     0.77453
 =======================================================================
   * Total *   -0.00000     27.98762    69.77962    0.23277    98.00000

 Normal termination of Gaussian 09 at Thu Sep 30 17:57:05 2021.
