 Gaussian 09, Revision A.02,

 -----------------------------------
 #p opt b3lyp/6-31G* scf=(xqc,tight)
 -----------------------------------

 -------------------------------------
 O=C(C(C)(C)C)Oc1ccc(cc1)C(=O)C_conf_0
 -------------------------------------
 Symbolic Z-matrix:
 Charge =  0 Multiplicity = 1

 SCF Done:  E(RB3LYP) =  -730.707057489     A.U. after   15 cycles
 SCF Done:  E(RB3LYP) =  -730.711704695     A.U. after   13 cycles
 SCF Done:  E(RB3LYP) =  -730.713165806     A.U. after   16 cycles
 SCF Done:  E(RB3LYP) =  -730.712470334     A.U. after   13 cycles
 SCF Done:  E(RB3LYP) =  -730.713638579     A.U. after   13 cycles
 SCF Done:  E(RB3LYP) =  -730.713757460     A.U. after   13 cycles
 SCF Done:  E(RB3LYP) =  -730.714228356     A.U. after   12 cycles
 SCF Done:  E(RB3LYP) =  -730.714345922     A.U. after   12 cycles
 SCF Done:  E(RB3LYP) =  -730.714371963     A.U. after   12 cycles
 SCF Done:  E(RB3LYP) =  -730.714597766     A.U. after   12 cycles
 SCF Done:  E(RB3LYP) =  -730.714621623     A.U. after   10 cycles
 SCF Done:  E(RB3LYP) =  -730.714626337     A.U. after    9 cycles
 SCF Done:  E(RB3LYP) =  -730.714628097     A.U. after    8 cycles
 SCF Done:  E(RB3LYP) =  -730.714631043     A.U. after    9 cycles
 SCF Done:  E(RB3LYP) =  -730.714632608     A.U. after    8 cycles
 SCF Done:  E(RB3LYP) =  -730.714633783     A.U. after    8 cycles
 SCF Done:  E(RB3LYP) =  -730.714633935     A.U. after    7 cycles
 SCF Done:  E(RB3LYP) =  -730.714634206     A.U. after    7 cycles
 Optimization completed.
    -- Stationary point found.
 Normal termination of Gaussian 09 at Wed Sep 29 05:08:16 2021.

 ----------------------------------------------------------------------
 #p freq b3lyp/6-31G* volume NMR pop=NPA density=current Geom=AllCheck
 Guess=Read
 ----------------------------------------------------------------------

 O=C(C(C)(C)C)Oc1ccc(cc1)C(=O)C_conf_0
 -------------------------------------
 Redundant internal coordinates taken from checkpoint file:
 C13H16O3_bff6_conf_0.chk
 Charge =  0 Multiplicity = 1

 SCF Done:  E(RB3LYP) =  -730.714634206     A.U. after    1 cycles

  1  O    Isotropic =   -65.8497   Anisotropy =   577.3213

  2  C    Isotropic =    23.0121   Anisotropy =    76.6404

  3  C    Isotropic =   148.7719   Anisotropy =    24.1518

  4  C    Isotropic =   162.3512   Anisotropy =    37.0816

  5  C    Isotropic =   162.1966   Anisotropy =    38.1554

  6  C    Isotropic =   162.9742   Anisotropy =    31.2996

  7  O    Isotropic =   105.5595   Anisotropy =   171.5368

  8  C    Isotropic =    41.3869   Anisotropy =   115.9796

  9  C    Isotropic =    76.7635   Anisotropy =   137.4833

 10  C    Isotropic =    66.1264   Anisotropy =   163.8060

 11  C    Isotropic =    63.9802   Anisotropy =   157.8943

 12  C    Isotropic =    65.1990   Anisotropy =   178.7313

 13  C    Isotropic =    73.0516   Anisotropy =   153.0184

 14  C    Isotropic =     4.5361   Anisotropy =   150.8224

 15  O    Isotropic =  -266.1288   Anisotropy =   932.6584

 16  C    Isotropic =   163.8653   Anisotropy =    39.1264

 17  H    Isotropic =    30.4760   Anisotropy =     6.2681

 18  H    Isotropic =    30.8545   Anisotropy =     8.1274

 19  H    Isotropic =    31.0933   Anisotropy =     7.8190

 20  H    Isotropic =    30.4007   Anisotropy =     7.4925

 21  H    Isotropic =    31.0849   Anisotropy =     7.8656

 22  H    Isotropic =    30.8720   Anisotropy =     8.0229

 23  H    Isotropic =    30.6407   Anisotropy =     8.2284

 24  H    Isotropic =    30.6573   Anisotropy =     7.9420

 25  H    Isotropic =    31.4642   Anisotropy =     7.7915

 26  H    Isotropic =    25.4151   Anisotropy =     7.3708

 27  H    Isotropic =    24.5504   Anisotropy =     7.9868

 28  H    Isotropic =    23.9494   Anisotropy =     6.6328

 29  H    Isotropic =    24.7240   Anisotropy =     9.2563

 30  H    Isotropic =    29.6650   Anisotropy =     4.2497

 31  H    Isotropic =    30.2741   Anisotropy =     6.5524

 32  H    Isotropic =    29.6840   Anisotropy =     4.3610

  Exact polarizability: 212.274  -1.054 137.237  -1.953  -3.977  87.466
 Approx polarizability: 271.550 -14.375 239.705  -4.065  -3.946 132.215

                     1                      2                      3
                     A                      A                      A
 Frequencies --    15.9698                34.6437                42.0205
 Red. masses --     3.3667                 4.6437                 4.9514
 Frc consts  --     0.0005                 0.0033                 0.0052
 IR Inten    --     0.4927                 0.0836                 0.5974

                     4                      5                      6
                     A                      A                      A
 Frequencies --    64.9298                79.6863               129.4579
 Red. masses --     4.8540                 4.9232                 5.1553
 Frc consts  --     0.0121                 0.0184                 0.0509
 IR Inten    --     2.2282                 0.5063                 1.3312

                     7                      8                      9
                     A                      A                      A
 Frequencies --   169.1623               180.9789               195.5991
 Red. masses --     1.0344                 4.2265                 2.0040
 Frc consts  --     0.0174                 0.0816                 0.0452
 IR Inten    --     0.3070                 1.2260                 1.8173

                    10                     11                     12
                     A                      A                      A
 Frequencies --   202.0965               229.4704               257.5186
 Red. masses --     1.5493                 1.6114                 1.1090
 Frc consts  --     0.0373                 0.0500                 0.0433
 IR Inten    --     2.9550                 1.7939                 0.4768

                    13                     14                     15
                     A                      A                      A
 Frequencies --   273.8614               281.6441               322.6833
 Red. masses --     1.5019                 2.9272                 3.7502
 Frc consts  --     0.0664                 0.1368                 0.2301
 IR Inten    --     0.5382                 3.4881                 2.4034

                    16                     17                     18
                     A                      A                      A
 Frequencies --   354.9067               368.9723               372.0168
 Red. masses --     3.1867                 2.8974                 3.6652
 Frc consts  --     0.2365                 0.2324                 0.2989
 IR Inten    --     6.2592                 0.1283                 2.7937

                    19                     20                     21
                     A                      A                      A
 Frequencies --   389.6583               421.9607               461.9360
 Red. masses --     3.8274                 3.0657                 3.2879
 Frc consts  --     0.3424                 0.3216                 0.4134
 IR Inten    --     2.5184                 0.3205                 0.5015

                    22                     23                     24
                     A                      A                      A
 Frequencies --   488.0557               506.6677               580.1716
 Red. masses --     4.6465                 3.2818                 4.3775
 Frc consts  --     0.6521                 0.4964                 0.8681
 IR Inten    --     2.7199                 1.6425                 3.7963

                    25                     26                     27
                     A                      A                      A
 Frequencies --   596.7818               605.5332               646.1670
 Red. masses --     3.1382                 2.7164                 6.9185
 Frc consts  --     0.6585                 0.5868                 1.7020
 IR Inten    --    19.8832                21.4540                 2.9956

                    28                     29                     30
                     A                      A                      A
 Frequencies --   705.5046               732.9291               756.9035
 Red. masses --     4.8940                 4.3184                 6.6345
 Frc consts  --     1.4352                 1.3668                 2.2394
 IR Inten    --     3.0841                 0.2703                 5.2657

                    31                     32                     33
                     A                      A                      A
 Frequencies --   806.2996               833.3590               841.6602
 Red. masses --     3.2576                 2.5836                 1.4622
 Frc consts  --     1.2478                 1.0572                 0.6103
 IR Inten    --     3.5894                 9.9412                 0.9890

                    34                     35                     36
                     A                      A                      A
 Frequencies --   862.9434               907.2769               947.7278
 Red. masses --     2.2049                 3.4771                 1.7595
 Frc consts  --     0.9674                 1.6863                 0.9311
 IR Inten    --    24.7237                19.3994                 1.5100

                    37                     38                     39
                     A                      A                      A
 Frequencies --   956.6055               958.7746               967.4941
 Red. masses --     1.6320                 1.3168                 2.2373
 Frc consts  --     0.8799                 0.7132                 1.2339
 IR Inten    --     4.6619                 0.8628                57.4995

                    40                     41                     42
                     A                      A                      A
 Frequencies --   981.1782               990.4260              1034.9717
 Red. masses --     1.1981                 1.3085                 2.8218
 Frc consts  --     0.6796                 0.7563                 1.7809
 IR Inten    --     0.0058                 1.1787                 7.6677

                    43                     44                     45
                     A                      A                      A
 Frequencies --  1055.9141              1057.6936              1060.3135
 Red. masses --     1.8593                 1.4871                 1.4363
 Frc consts  --     1.2214                 0.9802                 0.9514
 IR Inten    --     1.3718                57.0451                 4.7052

                    46                     47                     48
                     A                      A                      A
 Frequencies --  1098.1360              1137.8557              1143.1623
 Red. masses --     2.3887                 3.7750                 1.3120
 Frc consts  --     1.6971                 2.8796                 1.0102
 IR Inten    --    15.0128               632.0314                21.7784

                    49                     50                     51
                     A                      A                      A
 Frequencies --  1196.1730              1241.9353              1244.1482
 Red. masses --     1.2614                 2.7352                 3.1560
 Frc consts  --     1.0634                 2.4856                 2.8783
 IR Inten    --   153.0499                50.9336               200.2139

                    52                     53                     54
                     A                      A                      A
 Frequencies --  1265.2163              1291.7374              1307.2892
 Red. masses --     2.9436                 3.5325                 3.1433
 Frc consts  --     2.7763                 3.4728                 3.1650
 IR Inten    --    58.4768               226.0429                22.6778

                    55                     56                     57
                     A                      A                      A
 Frequencies --  1337.5294              1360.6936              1409.4188
 Red. masses --     1.3039                10.8014                 1.3329
 Frc consts  --     1.3744                11.7829                 1.5600
 IR Inten    --     9.9150                18.2012                45.8938

                    58                     59                     60
                     A                      A                      A
 Frequencies --  1422.3499              1430.4901              1457.1026
 Red. masses --     1.2079                 1.2303                 2.8599
 Frc consts  --     1.4398                 1.4833                 3.5775
 IR Inten    --     3.8415                 4.6560                28.7334

                    61                     62                     63
                     A                      A                      A
 Frequencies --  1459.1947              1500.2725              1507.2230
 Red. masses --     1.2686                 1.0573                 1.0483
 Frc consts  --     1.5915                 1.4022                 1.4031
 IR Inten    --     8.0531                10.0362                 0.0336

                    64                     65                     66
                     A                      A                      A
 Frequencies --  1508.0622              1515.2672              1520.5940
 Red. masses --     1.0485                 1.0450                 1.0453
 Frc consts  --     1.4049                 1.4136                 1.4240
 IR Inten    --     9.4968                 0.1787                 0.0676

                    67                     68                     69
                     A                      A                      A
 Frequencies --  1528.8164              1531.6249              1548.9887
 Red. masses --     1.0492                 1.0540                 1.4293
 Frc consts  --     1.4448                 1.4568                 2.0206
 IR Inten    --     5.9500                 8.4757                58.5721

                    70                     71                     72
                     A                      A                      A
 Frequencies --  1551.8968              1632.9177              1658.1117
 Red. masses --     1.5482                 6.9229                 5.7927
 Frc consts  --     2.1969                10.8760                 9.3833
 IR Inten    --     0.8603                 3.6954               134.1509

                    73                     74                     75
                     A                      A                      A
 Frequencies --  1778.0945              1835.6540              3051.2530
 Red. masses --    10.6959                12.6820                 1.0355
 Frc consts  --    19.9241                25.1779                 5.6802
 IR Inten    --   169.0134               181.0890                26.9203

                    76                     77                     78
                     A                      A                      A
 Frequencies --  3053.0320              3053.5114              3062.4802
 Red. masses --     1.0383                 1.0361                 1.0365
 Frc consts  --     5.7022                 5.6916                 5.7272
 IR Inten    --     3.0235                10.5660                25.6803

                    79                     80                     81
                     A                      A                      A
 Frequencies --  3112.2018              3115.2728              3117.2210
 Red. masses --     1.1000                 1.1033                 1.1024
 Frc consts  --     6.2772                 6.3084                 6.3115
 IR Inten    --     9.9719                10.9594                22.7986

                    82                     83                     84
                     A                      A                      A
 Frequencies --  3130.1852              3139.3043              3140.5049
 Red. masses --     1.1019                 1.1026                 1.1021
 Frc consts  --     6.3612                 6.4026                 6.4043
 IR Inten    --    39.3425                 7.0844                16.8615

                    85                     86                     87
                     A                      A                      A
 Frequencies --  3143.8530              3169.9639              3207.3503
 Red. masses --     1.1011                 1.1011                 1.0874
 Frc consts  --     6.4122                 6.5192                 6.5907
 IR Inten    --    44.1472                12.6077                 7.2369

                    88                     89                     90
                     A                      A                      A
 Frequencies --  3222.6849              3226.1293              3254.5671
 Red. masses --     1.0944                 1.0896                 1.0935
 Frc consts  --     6.6970                 6.6814                 6.8240
 IR Inten    --     7.6412                 0.2188                 3.0018

 - Thermochemistry -
 -------------------
 Temperature   298.150 Kelvin.  Pressure   1.00000 Atm.
 Atom     1 has atomic number  8 and mass  15.99491

 Molecular mass:   220.10994 amu.
 Principal axes and moments of inertia in atomic units:
                           1         2         3
     Eigenvalues --  1070.536078624.872549136.01596
           X            0.99997   0.00665  -0.00396
           Y           -0.00676   0.99958  -0.02829
           Z            0.00377   0.02832   0.99959
 This molecule is an asymmetric top.
 Rotational symmetry number  1.
 Warning -- assumption of classical behavior for rotation
           may cause significant error
 Rotational temperatures (Kelvin)      0.08091     0.01004     0.00948
 Rotational constants (GHZ):           1.68583     0.20925     0.19754
 Zero-point vibrational energy     695927.5 (Joules/Mol)
                                  166.33067 (Kcal/Mol)
 Warning -- explicit consideration of  26 degrees of freedom as
           vibrations may cause significant error
 Vibrational temperatures:     22.98    49.84    60.46    93.42   114.65
          (Kelvin)            186.26   243.39   260.39   281.42   290.77
                              330.16   370.51   394.02   405.22   464.27
                              510.63   530.87   535.25   560.63   607.11
                              664.62   702.20   728.98   834.74   858.63
                              871.23   929.69  1015.06  1054.52  1089.01
                             1160.08  1199.02  1210.96  1241.58  1305.37
                             1363.57  1376.34  1379.46  1392.01  1411.69
                             1425.00  1489.09  1519.22  1521.78  1525.55
                             1579.97  1637.12  1644.75  1721.02  1786.87
                             1790.05  1820.36  1858.52  1880.90  1924.40
                             1957.73  2027.84  2046.44  2058.15  2096.44
                             2099.45  2158.55  2168.56  2169.76  2180.13
                             2187.79  2199.62  2203.66  2228.65  2232.83
                             2349.40  2385.65  2558.28  2641.09  4390.07
                             4392.63  4393.32  4406.22  4477.76  4482.18
                             4484.98  4503.63  4516.75  4518.48  4523.30
                             4560.87  4614.66  4636.72  4641.67  4682.59

 Zero-point correction=                           0.265065 (Hartree/Particle)
 Thermal correction to Energy=                    0.281615
 Thermal correction to Enthalpy=                  0.282559
 Thermal correction to Gibbs Free Energy=         0.219333
 Sum of electronic and zero-point Energies=           -730.449569
 Sum of electronic and thermal Energies=              -730.433019
 Sum of electronic and thermal Enthalpies=            -730.432075
 Sum of electronic and thermal Free Energies=         -730.495301

                     E (Thermal)             CV                S
                      KCal/Mol        Cal/Mol-Kelvin    Cal/Mol-Kelvin
 Total                  176.716             61.509            133.070
 Electronic               0.000              0.000              0.000
 Translational            0.889              2.981             42.070
 Rotational               0.889              2.981             32.800
 Vibrational            174.939             55.548             58.200
 Vibration     1          0.593              1.986              7.081
 Vibration     2          0.594              1.983              5.544
 Vibration     3          0.595              1.980              5.161
 Vibration     4          0.597              1.971              4.301
 Vibration     5          0.600              1.963              3.899
 Vibration     6          0.612              1.924              2.954
 Vibration     7          0.625              1.880              2.445
 Vibration     8          0.630              1.866              2.318
 Vibration     9          0.636              1.846              2.174
 Vibration    10          0.639              1.837              2.114
 Vibration    11          0.652              1.796              1.883
 Vibration    12          0.667              1.750              1.679
 Vibration    13          0.676              1.722              1.572
 Vibration    14          0.681              1.708              1.524
 Vibration    15          0.708              1.630              1.296
 Vibration    16          0.731              1.565              1.144
 Vibration    17          0.741              1.536              1.084
 Vibration    18          0.744              1.530              1.071
 Vibration    19          0.758              1.492              1.001
 Vibration    20          0.784              1.422              0.885
 Vibration    21          0.820              1.334              0.760
 Vibration    22          0.844              1.277              0.689
 Vibration    23          0.862              1.235              0.642
 Vibration    24          0.937              1.074              0.485
 Vibration    25          0.955              1.039              0.455
 Vibration    26          0.964              1.020              0.440

 Normal termination of Gaussian 09 at Wed Sep 29 06:10:36 2021.
 Gaussian 09:  AM64L-G09RevA.02 11-Jun-2009

 ----------------------------------------------------------------------
 #p TD(NStates=10, Root=1) b3lyp/6-31G* volume pop=NPA density=current
 Geom=AllCheck Guess=Read
 ----------------------------------------------------------------------

 O=C(C(C)(C)C)Oc1ccc(cc1)C(=O)C_conf_0
 -------------------------------------
 Redundant internal coordinates taken from checkpoint file:
 C13H16O3_bff6_conf_0.chk
 Charge =  0 Multiplicity = 1

                         Standard orientation:
 ---------------------------------------------------------------------
 Center     Atomic      Atomic             Coordinates (Angstroms)
 Number     Number       Type             X           Y           Z
 ---------------------------------------------------------------------
      1          8           0       -1.904025   -1.328474   -0.974945
      2          6           0       -2.200890   -0.380106   -0.292040
      3          6           0       -3.621165    0.090348    0.033953
      4          6           0       -3.818635    0.075888    1.566596
      5          6           0       -3.814627    1.526127   -0.504885
      6          6           0       -4.617535   -0.866896   -0.639173
      7          8           0       -1.272236    0.446195    0.303523
      8          6           0        0.093256    0.221133    0.172533
      9          6           0        0.877006    1.355443   -0.038955
     10          6           0        2.261922    1.230843   -0.102462
     11          6           0        2.872964   -0.023436    0.043483
     12          6           0        2.061132   -1.148687    0.258965
     13          6           0        0.677503   -1.039708    0.327159
     14          6           0        4.356527   -0.219295   -0.015245
     15          8           0        4.844390   -1.330873    0.124831
     16          6           0        5.248337    0.989636   -0.251834
     17          1           0       -3.121003    0.753168    2.066865
     18          1           0       -3.675698   -0.930842    1.975977
     19          1           0       -4.839707    0.393480    1.806489
     20          1           0       -3.120074    2.227125   -0.033780
     21          1           0       -4.836856    1.861038   -0.295129
     22          1           0       -3.664084    1.566869   -1.589809
     23          1           0       -4.489624   -1.891675   -0.277582
     24          1           0       -4.483916   -0.880549   -1.724934
     25          1           0       -5.642297   -0.547548   -0.419425
     26          1           0        0.391613    2.320009   -0.147451
     27          1           0        2.861200    2.120644   -0.267113
     28          1           0        2.544374   -2.113246    0.374075
     29          1           0        0.059824   -1.913701    0.487823
     30          1           0        5.007745    1.478898   -1.203321
     31          1           0        6.287622    0.657438   -0.269785
     32          1           0        5.121082    1.736367    0.541261
 ---------------------------------------------------------------------

 SCF Done:  E(RB3LYP) =  -730.714634206     A.U. after    1 cycles

 Excitation energies and oscillator strengths:

 Excited State   1:      Singlet-A      3.7492 eV  330.69 nm  f=0.0001  <S**2>=0.000
      59 -> 60         0.68373
      59 -> 62         0.10492
      59 -> 63        -0.10893
 This state for optimization and/or second-order correction.
 Total Energy, E(TD-HF/TD-KS) =  -730.576852844
 Copying the excited state density for this state as the 1-particle RhoCI density.

 Excited State   2:      Singlet-A      4.8210 eV  257.18 nm  f=0.0288  <S**2>=0.000
      57 -> 60         0.60172
      58 -> 60         0.19900
      58 -> 61         0.29639

 Excited State   3:      Singlet-A      4.9748 eV  249.22 nm  f=0.4064  <S**2>=0.000
      57 -> 60        -0.18255
      57 -> 61        -0.11635
      58 -> 60         0.65177

 Excited State   4:      Singlet-A      5.2539 eV  235.99 nm  f=0.0016  <S**2>=0.000
      56 -> 60         0.60271
      56 -> 62        -0.29065
      57 -> 62        -0.14606
      58 -> 61        -0.12535

 Excited State   5:      Singlet-A      5.5168 eV  224.74 nm  f=0.0002  <S**2>=0.000
      59 -> 61         0.70112

 Excited State   6:      Singlet-A      5.8376 eV  212.39 nm  f=0.0002  <S**2>=0.000
      56 -> 60         0.28969
      56 -> 62         0.43368
      57 -> 62         0.28499
      58 -> 62         0.33354

 Excited State   7:      Singlet-A      6.0181 eV  206.02 nm  f=0.0079  <S**2>=0.000
      56 -> 60        -0.13152
      56 -> 62        -0.17140
      57 -> 62        -0.17206
      58 -> 62         0.51843
      59 -> 62        -0.34965

 Excited State   8:      Singlet-A      6.0650 eV  204.43 nm  f=0.0020  <S**2>=0.000
      56 -> 62        -0.15297
      57 -> 62        -0.14653
      58 -> 62         0.28197
      59 -> 60        -0.12731
      59 -> 62         0.55267
      59 -> 63        -0.20544

 Excited State   9:      Singlet-A      6.1307 eV  202.23 nm  f=0.1043  <S**2>=0.000
      56 -> 60         0.15674
      57 -> 60        -0.27595
      57 -> 62        -0.12006
      57 -> 63         0.20690
      58 -> 61         0.55172
      58 -> 62         0.12676

 Excited State  10:      Singlet-A      6.4404 eV  192.51 nm  f=0.1204  <S**2>=0.000
      56 -> 61         0.51144
      56 -> 62        -0.10846
      57 -> 61         0.39497
      57 -> 62         0.21981

 The electronic state is 1-A.
 Alpha  occ. eigenvalues --  -19.21053 -19.15029 -19.13383 -10.32600 -10.27577
 Alpha  occ. eigenvalues --  -10.26717 -10.22135 -10.21000 -10.20456 -10.20243
 Alpha  occ. eigenvalues --  -10.20171 -10.20113 -10.18988 -10.18902 -10.18862
 Alpha  occ. eigenvalues --  -10.18013  -1.11671  -1.03464  -1.03337  -0.86937
 Alpha  occ. eigenvalues --   -0.83117  -0.77752  -0.76298  -0.73509  -0.69840
 Alpha  occ. eigenvalues --   -0.69427  -0.67577  -0.62621  -0.60938  -0.56614
 Alpha  occ. eigenvalues --   -0.55766  -0.50309  -0.49344  -0.48513  -0.47907
 Alpha  occ. eigenvalues --   -0.46114  -0.45599  -0.44361  -0.44016  -0.43764
 Alpha  occ. eigenvalues --   -0.43636  -0.42609  -0.41328  -0.40536  -0.39777
 Alpha  occ. eigenvalues --   -0.39047  -0.38024  -0.37847  -0.37463  -0.36432
 Alpha  occ. eigenvalues --   -0.36196  -0.35012  -0.34109  -0.34045  -0.32576
 Alpha  occ. eigenvalues --   -0.28090  -0.26331  -0.24942  -0.24742
 Alpha virt. eigenvalues --   -0.05560  -0.01282  -0.00265   0.04476   0.07713
 Alpha virt. eigenvalues --    0.08411   0.11459   0.12067   0.13083   0.14573
 Alpha virt. eigenvalues --    0.14716   0.15048   0.15295   0.15677   0.15829

 Mulliken atomic charges:
              1
     1  O   -0.465823
     2  C    0.632475
     3  C   -0.007755
     4  C   -0.450828
     5  C   -0.450374
     6  C   -0.433688
     7  O   -0.536743
     8  C    0.327494
     9  C   -0.167581
    10  C   -0.216369
    11  C    0.116952
    12  C   -0.210427
    13  C   -0.137248
    14  C    0.314157
    15  O   -0.302100
    16  C   -0.515419
    17  H    0.165188
    18  H    0.149562
    19  H    0.146281
    20  H    0.161406
    21  H    0.146631
    22  H    0.151507
    23  H    0.154448
    24  H    0.156556
    25  H    0.135744
    26  H    0.136635
    27  H    0.119455
    28  H    0.143151
    29  H    0.154035
    30  H    0.198805
    31  H    0.186219
    32  H    0.197655
 Sum of Mulliken atomic charges =  -0.00000

 Dipole moment (field-independent basis, Debye):
    X=              1.3723    Y=              2.8723    Z=              0.7091  Tot=              3.2613
 Quadrupole moment (field-independent basis, Debye-Ang):
   XX=            -74.3477   YY=            -93.0338   ZZ=            -97.3674
   XY=              6.2124   XZ=             -3.9421   YZ=             -3.9463

 Summary of Natural Population Analysis:

                                       Natural Population
                Natural  -----------------------------------------------
    Atom  No    Charge         Core      Valence    Rydberg      Total
 -----------------------------------------------------------------------
      O    1   -0.58159      1.99977     6.56184    0.01998     8.58159
      C    2    0.84330      1.99927     3.10855    0.04887     5.15670
      C    3   -0.15158      1.99905     4.14020    0.01232     6.15158
      C    4   -0.66907      1.99938     4.65995    0.00974     6.66907
      C    5   -0.66828      1.99938     4.65916    0.00973     6.66828
      C    6   -0.66972      1.99940     4.65925    0.01108     6.66972
      O    7   -0.54972      1.99969     6.53893    0.01109     8.54972
      C    8    0.26666      1.99873     3.71255    0.02206     5.73334
      C    9   -0.25496      1.99902     4.24167    0.01428     6.25496
      C   10   -0.23813      1.99904     4.22607    0.01302     6.23813
      C   11   -0.16543      1.99889     4.15185    0.01469     6.16543
      C   12   -0.22064      1.99906     4.20711    0.01447     6.22064
      C   13   -0.25658      1.99901     4.24412    0.01345     6.25658
      C   14    0.37694      1.99928     3.59131    0.03247     5.62306
      O   15   -0.25140      1.99981     6.23349    0.01810     8.25140
      C   16   -0.70897      1.99932     4.70289    0.00676     6.70897
      H   17    0.24497      0.00000     0.75395    0.00108     0.75503
      H   18    0.23513      0.00000     0.76395    0.00092     0.76487
      H   19    0.23334      0.00000     0.76556    0.00109     0.76666
      H   20    0.24270      0.00000     0.75614    0.00116     0.75730
      H   21    0.23344      0.00000     0.76551    0.00105     0.76656
      H   22    0.23609      0.00000     0.76300    0.00091     0.76391
      H   23    0.24193      0.00000     0.75702    0.00105     0.75807
      H   24    0.24314      0.00000     0.75580    0.00105     0.75686
      H   25    0.22898      0.00000     0.77010    0.00092     0.77102
      H   26    0.24637      0.00000     0.75247    0.00117     0.75363
      H   27    0.23069      0.00000     0.76836    0.00095     0.76931
      H   28    0.24177      0.00000     0.75744    0.00079     0.75823
      H   29    0.25786      0.00000     0.74111    0.00103     0.74214
      H   30    0.26225      0.00000     0.73657    0.00118     0.73775
      H   31    0.25895      0.00000     0.73993    0.00112     0.74105
      H   32    0.26154      0.00000     0.73724    0.00121     0.73846
 =======================================================================
   * Total *    0.00000     31.98811    85.72311    0.28878   118.00000

 Normal termination of Gaussian 09 at Wed Sep 29 11:10:33 2021.
