 Gaussian 09, Revision A.02,

 -----------------------------------
 #p opt b3lyp/6-31G* scf=(xqc,tight)
 -----------------------------------

 ---------------------------------------
 COC(=O)Oc1ccc(cc1)C(=O)OC(C)(C)C_conf_0
 ---------------------------------------
 Symbolic Z-matrix:
 Charge =  0 Multiplicity = 1

 SCF Done:  E(RB3LYP) =  -881.167739771     A.U. after   15 cycles
 SCF Done:  E(RB3LYP) =  -881.173276876     A.U. after   13 cycles
 SCF Done:  E(RB3LYP) =  -881.170352279     A.U. after   13 cycles
 SCF Done:  E(RB3LYP) =  -881.174320402     A.U. after   12 cycles
 SCF Done:  E(RB3LYP) =  -881.174787545     A.U. after   12 cycles
 SCF Done:  E(RB3LYP) =  -881.174527245     A.U. after   12 cycles
 SCF Done:  E(RB3LYP) =  -881.175084251     A.U. after   12 cycles
 SCF Done:  E(RB3LYP) =  -881.175219684     A.U. after   11 cycles
 SCF Done:  E(RB3LYP) =  -881.175445417     A.U. after   12 cycles
 SCF Done:  E(RB3LYP) =  -881.175575281     A.U. after   11 cycles
 SCF Done:  E(RB3LYP) =  -881.175745643     A.U. after   10 cycles
 SCF Done:  E(RB3LYP) =  -881.175749903     A.U. after    9 cycles
 SCF Done:  E(RB3LYP) =  -881.175750188     A.U. after    7 cycles
 SCF Done:  E(RB3LYP) =  -881.175750284     A.U. after    7 cycles
 SCF Done:  E(RB3LYP) =  -881.175750344     A.U. after    7 cycles
 SCF Done:  E(RB3LYP) =  -881.175750445     A.U. after    7 cycles
 SCF Done:  E(RB3LYP) =  -881.175750524     A.U. after    7 cycles
 SCF Done:  E(RB3LYP) =  -881.175750558     A.U. after    6 cycles
 Optimization completed.
    -- Stationary point found.
 Normal termination of Gaussian 09 at Thu Sep 30 04:30:43 2021.

 ----------------------------------------------------------------------
 #p freq b3lyp/6-31G* volume NMR pop=NPA density=current Geom=AllCheck
 Guess=Read
 ----------------------------------------------------------------------

 COC(=O)Oc1ccc(cc1)C(=O)OC(C)(C)C_conf_0
 ---------------------------------------
 Redundant internal coordinates taken from checkpoint file:
 C13H16O5_09fa_conf_0.chk
 Charge =  0 Multiplicity = 1

 SCF Done:  E(RB3LYP) =  -881.175750558     A.U. after    1 cycles

  1  C    Isotropic =   136.3778   Anisotropy =    69.0851

  2  O    Isotropic =   191.7231   Anisotropy =   142.1230

  3  C    Isotropic =    44.6736   Anisotropy =    92.2391

  4  O    Isotropic =    50.8890   Anisotropy =   393.9884

  5  O    Isotropic =   139.4820   Anisotropy =   131.5255

  6  C    Isotropic =    41.3120   Anisotropy =   110.5553

  7  C    Isotropic =    76.6782   Anisotropy =   138.8425

  8  C    Isotropic =    63.2315   Anisotropy =   176.4372

  9  C    Isotropic =    67.6725   Anisotropy =   145.7038

 10  C    Isotropic =    65.1096   Anisotropy =   169.7103

 11  C    Isotropic =    75.8769   Anisotropy =   152.9249

 12  C    Isotropic =    33.0569   Anisotropy =    67.4797

 13  O    Isotropic =   -43.5204   Anisotropy =   554.3040

 14  O    Isotropic =   117.6550   Anisotropy =   140.0682

 15  C    Isotropic =   110.5276   Anisotropy =    68.4031

 16  C    Isotropic =   164.6593   Anisotropy =    35.1044

 17  C    Isotropic =   158.9147   Anisotropy =    42.1861

 18  C    Isotropic =   164.6906   Anisotropy =    34.9404

 19  H    Isotropic =    28.6557   Anisotropy =     7.7351

 20  H    Isotropic =    28.3542   Anisotropy =     8.0431

 21  H    Isotropic =    28.3918   Anisotropy =     8.1471

 22  H    Isotropic =    25.3604   Anisotropy =     6.1789

 23  H    Isotropic =    24.0265   Anisotropy =     7.8224

 24  H    Isotropic =    24.2768   Anisotropy =     9.7014

 25  H    Isotropic =    24.6242   Anisotropy =     9.4455

 26  H    Isotropic =    30.9615   Anisotropy =     6.7441

 27  H    Isotropic =    29.3414   Anisotropy =     6.6585

 28  H    Isotropic =    31.1404   Anisotropy =     8.2416

 29  H    Isotropic =    30.6356   Anisotropy =     7.0541

 30  H    Isotropic =    31.1077   Anisotropy =     7.8119

 31  H    Isotropic =    30.6218   Anisotropy =     7.0693

 32  H    Isotropic =    29.3596   Anisotropy =     6.6511

 33  H    Isotropic =    30.9428   Anisotropy =     6.7077

 34  H    Isotropic =    31.1470   Anisotropy =     8.2343

  Exact polarizability: 231.660  -1.424 142.520  -2.794   4.314  90.049
 Approx polarizability: 283.794  -4.290 245.038  -9.515   8.355 132.944

                     1                      2                      3
                     A                      A                      A
 Frequencies --    20.3070                33.4741                40.5094
 Red. masses --     4.5086                 4.9364                 3.7961
 Frc consts  --     0.0011                 0.0033                 0.0037
 IR Inten    --     0.1432                 1.3088                 0.3679

                     4                      5                      6
                     A                      A                      A
 Frequencies --    50.8972                73.1893               110.2268
 Red. masses --     4.4749                 4.5978                 3.4448
 Frc consts  --     0.0068                 0.0145                 0.0247
 IR Inten    --     0.6266                 0.3473                 2.2207

                     7                      8                      9
                     A                      A                      A
 Frequencies --   118.1629               125.8053               150.5556
 Red. masses --     3.9348                 1.3057                 5.1236
 Frc consts  --     0.0324                 0.0122                 0.0684
 IR Inten    --     0.3715                 0.1971                 3.5263

                    10                     11                     12
                     A                      A                      A
 Frequencies --   177.3928               200.3935               207.1850
 Red. masses --     3.7791                 4.6371                 1.0830
 Frc consts  --     0.0701                 0.1097                 0.0274
 IR Inten    --     2.3594                 4.9016                 0.0522

                    13                     14                     15
                     A                      A                      A
 Frequencies --   246.2953               247.7135               275.2776
 Red. masses --     1.8671                 1.5934                 1.0701
 Frc consts  --     0.0667                 0.0576                 0.0478
 IR Inten    --     1.6721                 0.5941                 0.1184

                    16                     17                     18
                     A                      A                      A
 Frequencies --   287.3696               323.6480               324.9499
 Red. masses --     4.4125                 4.6127                 3.7039
 Frc consts  --     0.2147                 0.2847                 0.2304
 IR Inten    --     7.0132                 0.7356                10.1552

                    19                     20                     21
                     A                      A                      A
 Frequencies --   353.5860               369.4017               396.6444
 Red. masses --     2.7266                 4.3081                 5.2297
 Frc consts  --     0.2008                 0.3464                 0.4848
 IR Inten    --     1.6127                15.2199                12.6797

                    22                     23                     24
                     A                      A                      A
 Frequencies --   422.5951               424.1617               460.5168
 Red. masses --     3.1248                 3.1001                 3.0729
 Frc consts  --     0.3288                 0.3286                 0.3840
 IR Inten    --     2.4650                 1.0079                 3.5621

                    25                     26                     27
                     A                      A                      A
 Frequencies --   480.8250               507.0579               519.3801
 Red. masses --     3.1305                 4.5213                 3.2803
 Frc consts  --     0.4264                 0.6849                 0.5214
 IR Inten    --     0.7536                 3.5266                 2.2276

                    28                     29                     30
                     A                      A                      A
 Frequencies --   641.9890               675.3984               692.3683
 Red. masses --     7.0646                 6.7632                 4.7740
 Frc consts  --     1.7155                 1.8177                 1.3484
 IR Inten    --     0.9350                 3.2719                 8.6684

                    31                     32                     33
                     A                      A                      A
 Frequencies --   728.9269               760.4964               770.5300
 Red. masses --     5.4125                 4.5087                11.7350
 Frc consts  --     1.6944                 1.5364                 4.1050
 IR Inten    --    11.0165                 6.2716                31.7888

                    34                     35                     36
                     A                      A                      A
 Frequencies --   772.8162               834.8478               842.3557
 Red. masses --     5.5466                 6.1785                 1.2834
 Frc consts  --     1.9518                 2.5372                 0.5366
 IR Inten    --    16.5810                 2.2602                 1.0781

                    37                     38                     39
                     A                      A                      A
 Frequencies --   863.2014               872.7292               887.2093
 Red. masses --     4.1762                 1.8163                 4.6957
 Frc consts  --     1.8334                 0.8151                 2.1777
 IR Inten    --    43.4276                25.1272                 4.6512

                    40                     41                     42
                     A                      A                      A
 Frequencies --   934.1275               935.7581               962.2778
 Red. masses --     1.6502                 1.6591                 5.5779
 Frc consts  --     0.8484                 0.8560                 3.0432
 IR Inten    --     0.1019                 0.2537                48.2782

                    43                     44                     45
                     A                      A                      A
 Frequencies --   974.1311               979.6757               986.9497
 Red. masses --     1.3630                 1.1989                 1.3097
 Frc consts  --     0.7620                 0.6779                 0.7517
 IR Inten    --     1.9976                 0.2110                 0.1811

                    46                     47                     48
                     A                      A                      A
 Frequencies --  1036.9617              1063.8791              1068.9361
 Red. masses --     2.8773                 1.4023                 1.4338
 Frc consts  --     1.8229                 0.9351                 0.9652
 IR Inten    --    39.3641                 0.3282                 2.1907

                    49                     50                     51
                     A                      A                      A
 Frequencies --  1100.1132              1134.6866              1148.1630
 Red. masses --     6.2203                 1.5633                 2.7343
 Frc consts  --     4.4354                 1.1859                 2.1238
 IR Inten    --    36.6119               131.7793               141.9070

                    52                     53                     54
                     A                      A                      A
 Frequencies --  1189.0939              1196.4136              1219.1270
 Red. masses --     1.2652                 1.2964                 1.9641
 Frc consts  --     1.0540                 1.0934                 1.7199
 IR Inten    --     0.8099               331.0979               256.1517

                    55                     56                     57
                     A                      A                      A
 Frequencies --  1225.0620              1270.9257              1282.9173
 Red. masses --     1.5191                 4.9340                 2.7163
 Frc consts  --     1.3432                 4.6956                 2.6340
 IR Inten    --    22.8876               309.1262                16.4243

                    58                     59                     60
                     A                      A                      A
 Frequencies --  1291.5823              1300.4400              1324.8844
 Red. masses --     3.1329                 5.3219                 5.9416
 Frc consts  --     3.0792                 5.3027                 6.1448
 IR Inten    --   390.3427              1247.7520               137.9584

                    61                     62                     63
                     A                      A                      A
 Frequencies --  1334.7332              1366.1268              1423.3524
 Red. masses --     1.2941                10.7171                 1.2758
 Frc consts  --     1.3583                11.7844                 1.5229
 IR Inten    --     1.9195                13.8837                16.3879

                    64                     65                     66
                     A                      A                      A
 Frequencies --  1426.3925              1451.9994              1458.1031
 Red. masses --     1.2874                 1.2364                 3.2157
 Frc consts  --     1.5432                 1.5358                 4.0282
 IR Inten    --    21.4604                16.7122                22.6304

                    67                     68                     69
                     A                      A                      A
 Frequencies --  1497.4505              1500.0673              1514.3055
 Red. masses --     1.2040                 1.0470                 1.0476
 Frc consts  --     1.5907                 1.3881                 1.4154
 IR Inten    --    47.5949                 0.4619                 6.7392

                    70                     71                     72
                     A                      A                      A
 Frequencies --  1519.4472              1520.2293              1524.5400
 Red. masses --     1.0480                 1.0504                 1.0631
 Frc consts  --     1.4256                 1.4302                 1.4557
 IR Inten    --     1.1719                 0.4637                16.8683

                    73                     74                     75
                     A                      A                      A
 Frequencies --  1525.3081              1533.5840              1552.0720
 Red. masses --     1.0511                 1.0527                 2.2260
 Frc consts  --     1.4408                 1.4586                 3.1593
 IR Inten    --     7.9281                 1.3168                46.2621

                    76                     77                     78
                     A                      A                      A
 Frequencies --  1555.4263              1637.6394              1663.0849
 Red. masses --     1.1187                 7.4125                 5.8901
 Frc consts  --     1.5947                11.7126                 9.5985
 IR Inten    --     2.5771                19.9273                67.9934

                    79                     80                     81
                     A                      A                      A
 Frequencies --  1782.1411              1842.5285              3056.3453
 Red. masses --    11.8451                11.7068                 1.0355
 Frc consts  --    22.1653                23.4163                 5.6994
 IR Inten    --   213.2246               241.4510                 8.6916

                    82                     83                     84
                     A                      A                      A
 Frequencies --  3058.1688              3065.5147              3079.1183
 Red. masses --     1.0385                 1.0385                 1.0298
 Frc consts  --     5.7222                 5.7500                 5.7525
 IR Inten    --    22.7520                23.1528                34.7885

                    85                     86                     87
                     A                      A                      A
 Frequencies --  3119.8093              3121.5387              3132.8995
 Red. masses --     1.1025                 1.1024                 1.1032
 Frc consts  --     6.3226                 6.3288                 6.3798
 IR Inten    --     7.3279                16.3918                30.4574

                    88                     89                     90
                     A                      A                      A
 Frequencies --  3134.5629              3155.7897              3169.9057
 Red. masses --     1.1024                 1.1082                 1.0998
 Frc consts  --     6.3820                 6.5025                 6.5111
 IR Inten    --    54.4395                19.1495                 0.8273

                    91                     92                     93
                     A                      A                      A
 Frequencies --  3173.3479              3189.4981              3218.5788
 Red. masses --     1.0991                 1.1070                 1.0891
 Frc consts  --     6.5209                 6.6349                 6.6472
 IR Inten    --    12.4205                15.9672                 2.7020

                    94                     95                     96
                     A                      A                      A
 Frequencies --  3234.1039              3235.5365              3263.9318
 Red. masses --     1.0937                 1.0901                 1.0933
 Frc consts  --     6.7400                 6.7236                 6.8621
 IR Inten    --     3.8171                 0.7648                 0.8122

 - Thermochemistry -
 -------------------
 Temperature   298.150 Kelvin.  Pressure   1.00000 Atm.
 Atom     1 has atomic number  6 and mass  12.00000

 Molecular mass:   252.09977 amu.
 Principal axes and moments of inertia in atomic units:
                           1         2         3
     Eigenvalues --  1364.06240********************
           X            0.99999   0.00395   0.00115
           Y           -0.00396   0.99996   0.00842
           Z           -0.00112  -0.00842   0.99996
 This molecule is an asymmetric top.
 Rotational symmetry number  1.
 Warning -- assumption of classical behavior for rotation
           may cause significant error
 Rotational temperatures (Kelvin)      0.06350     0.00689     0.00646
 Rotational constants (GHZ):           1.32306     0.14363     0.13462
 Zero-point vibrational energy     723463.6 (Joules/Mol)
                                  172.91196 (Kcal/Mol)
 Warning -- explicit consideration of  27 degrees of freedom as
           vibrations may cause significant error
 Vibrational temperatures:     29.22    48.16    58.28    73.23   105.30
          (Kelvin)            158.59   170.01   181.01   216.62   255.23
                              288.32   298.09   354.36   356.40   396.06
                              413.46   465.66   467.53   508.73   531.49
                              570.68   608.02   610.27   662.58   691.80
                              729.54   747.27   923.68   971.75   996.16
                             1048.76  1094.18  1108.62  1111.91  1201.16
                             1211.96  1241.95  1255.66  1276.49  1344.00
                             1346.35  1384.50  1401.56  1409.53  1420.00
                             1491.95  1530.68  1537.96  1582.82  1632.56
                             1651.95  1710.84  1721.37  1754.05  1762.59
                             1828.58  1845.83  1858.30  1871.04  1906.21
                             1920.38  1965.55  2047.88  2052.26  2089.10
                             2097.88  2154.49  2158.26  2178.75  2186.14
                             2187.27  2193.47  2194.58  2206.48  2233.08
                             2237.91  2356.19  2392.81  2564.10  2650.98
                             4397.39  4400.02  4410.59  4430.16  4488.70
                             4491.19  4507.54  4509.93  4540.47  4560.78
                             4565.73  4588.97  4630.81  4653.15  4655.21
                             4696.06

 Zero-point correction=                           0.275553 (Hartree/Particle)
 Thermal correction to Energy=                    0.293928
 Thermal correction to Enthalpy=                  0.294872
 Thermal correction to Gibbs Free Energy=         0.227199
 Sum of electronic and zero-point Energies=           -880.900198
 Sum of electronic and thermal Energies=              -880.881823
 Sum of electronic and thermal Enthalpies=            -880.880879
 Sum of electronic and thermal Free Energies=         -880.948552

                     E (Thermal)             CV                S
                      KCal/Mol        Cal/Mol-Kelvin    Cal/Mol-Kelvin
 Total                  184.442             67.399            142.429
 Electronic               0.000              0.000              0.000
 Translational            0.889              2.981             42.474
 Rotational               0.889              2.981             33.796
 Vibrational            182.665             61.438             66.159
 Vibration     1          0.593              1.986              6.604
 Vibration     2          0.594              1.983              5.612
 Vibration     3          0.594              1.981              5.234
 Vibration     4          0.595              1.977              4.782
 Vibration     5          0.599              1.967              4.066
 Vibration     6          0.606              1.941              3.265
 Vibration     7          0.608              1.934              3.130
 Vibration     8          0.611              1.927              3.009
 Vibration     9          0.618              1.902              2.665
 Vibration    10          0.628              1.870              2.356
 Vibration    11          0.638              1.839              2.129
 Vibration    12          0.641              1.830              2.068
 Vibration    13          0.661              1.769              1.757
 Vibration    14          0.661              1.767              1.747
 Vibration    15          0.677              1.719              1.563
 Vibration    16          0.685              1.697              1.489
 Vibration    17          0.708              1.628              1.292
 Vibration    18          0.709              1.626              1.285
 Vibration    19          0.730              1.568              1.150
 Vibration    20          0.742              1.535              1.082
 Vibration    21          0.763              1.477              0.975
 Vibration    22          0.785              1.421              0.883
 Vibration    23          0.786              1.418              0.878
 Vibration    24          0.818              1.338              0.765
 Vibration    25          0.837              1.293              0.708
 Vibration    26          0.862              1.234              0.641
 Vibration    27          0.874              1.207              0.611

 Optimization completed.
    -- Stationary point found.
 Normal termination of Gaussian 09 at Thu Sep 30 05:49:57 2021.
 Gaussian 09:  AM64L-G09RevA.02 11-Jun-2009

 ----------------------------------------------------------------------
 #p TD(NStates=10, Root=1) b3lyp/6-31G* volume pop=NPA density=current
 Geom=AllCheck Guess=Read
 ----------------------------------------------------------------------

 COC(=O)Oc1ccc(cc1)C(=O)OC(C)(C)C_conf_0
 ---------------------------------------
 Redundant internal coordinates taken from checkpoint file:
 C13H16O5_09fa_conf_0.chk
 Charge =  0 Multiplicity = 1

                         Standard orientation:
 ---------------------------------------------------------------------
 Center     Atomic      Atomic             Coordinates (Angstroms)
 Number     Number       Type             X           Y           Z
 ---------------------------------------------------------------------
      1          6           0        6.507385   -0.857929    0.149731
      2          8           0        5.479119    0.068185   -0.240581
      3          6           0        4.236493   -0.316963    0.071821
      4          8           0        3.925896   -1.340493    0.632199
      5          8           0        3.410887    0.668008   -0.358334
      6          6           0        2.029520    0.574645   -0.208192
      7          6           0        1.382469    1.788783    0.027553
      8          6           0       -0.003613    1.816712    0.118368
      9          6           0       -0.747340    0.637485   -0.025886
     10          6           0       -0.078700   -0.569828   -0.267534
     11          6           0        1.310444   -0.611571   -0.364418
     12          6           0       -2.234202    0.731601    0.084553
     13          8           0       -2.821147    1.778817    0.291115
     14          8           0       -2.823001   -0.470819   -0.072128
     15          6           0       -4.287458   -0.635738   -0.004106
     16          6           0       -4.957378    0.170381   -1.121934
     17          6           0       -4.463247   -2.138297   -0.238147
     18          6           0       -4.793992   -0.239563    1.386838
     19          1           0        7.441808   -0.400189   -0.174637
     20          1           0        6.360488   -1.823305   -0.341301
     21          1           0        6.504097   -1.000467    1.233309
     22          1           0        1.976037    2.690909    0.133328
     23          1           0       -0.530570    2.746716    0.302449
     24          1           0       -0.651313   -1.482640   -0.383589
     25          1           0        1.823634   -1.546712   -0.542414
     26          1           0       -4.537062   -0.106299   -2.095080
     27          1           0       -4.824182    1.242512   -0.970870
     28          1           0       -6.030298   -0.052372   -1.139750
     29          1           0       -4.060802   -2.427679   -1.214427
     30          1           0       -5.525821   -2.401692   -0.209739
     31          1           0       -3.943224   -2.713947    0.534523
     32          1           0       -4.663934    0.828583    1.566663
     33          1           0       -4.256066   -0.797906    2.160784
     34          1           0       -5.859099   -0.483409    1.470696
 ---------------------------------------------------------------------

 SCF Done:  E(RB3LYP) =  -881.175750558     A.U. after    1 cycles

 Excitation energies and oscillator strengths:

 Excited State   1:      Singlet-A      4.7175 eV  262.82 nm  f=0.0002  <S**2>=0.000
      65 -> 68         0.68949
      65 -> 71         0.10489
 This state for optimization and/or second-order correction.
 Total Energy, E(TD-HF/TD-KS) =  -881.002387309
 Copying the excited state density for this state as the 1-particle RhoCI density.

 Excited State   2:      Singlet-A      5.0250 eV  246.73 nm  f=0.0044  <S**2>=0.000
      66 -> 68         0.58539
      67 -> 69         0.39036

 Excited State   3:      Singlet-A      5.2219 eV  237.43 nm  f=0.4992  <S**2>=0.000
      66 -> 69        -0.15304
      67 -> 68         0.68272

 Excited State   4:      Singlet-A      6.0538 eV  204.80 nm  f=0.0095  <S**2>=0.000
      63 -> 68         0.63430
      63 -> 70        -0.18357
      66 -> 68        -0.13372
      67 -> 69         0.18375

 Excited State   5:      Singlet-A      6.0937 eV  203.46 nm  f=0.0002  <S**2>=0.000
      65 -> 69         0.70227

 Excited State   6:      Singlet-A      6.2036 eV  199.86 nm  f=0.0059  <S**2>=0.000
      63 -> 68         0.11527
      64 -> 68         0.59979
      66 -> 68         0.19508
      67 -> 69        -0.26352

 Excited State   7:      Singlet-A      6.4230 eV  193.03 nm  f=0.1810  <S**2>=0.000
      63 -> 68        -0.18224
      64 -> 68         0.34996
      66 -> 68        -0.29088
      66 -> 71        -0.15338
      67 -> 69         0.45634

 Excited State   8:      Singlet-A      6.7141 eV  184.66 nm  f=0.1140  <S**2>=0.000
      66 -> 69        -0.17889
      67 -> 70         0.66447

 Excited State   9:      Singlet-A      6.7564 eV  183.51 nm  f=0.2884  <S**2>=0.000
      59 -> 68         0.10042
      61 -> 68        -0.27145
      63 -> 69        -0.21049
      63 -> 70        -0.17488
      66 -> 69         0.47825
      66 -> 70         0.16694
      67 -> 70         0.16935

 Excited State  10:      Singlet-A      6.8118 eV  182.01 nm  f=0.2088  <S**2>=0.000
      61 -> 68         0.45168
      62 -> 68        -0.33892
      63 -> 69        -0.12721
      63 -> 70         0.13031
      66 -> 69         0.31245

 The electronic state is 1-A.
 Alpha  occ. eigenvalues --  -19.21697 -19.20848 -19.18236 -19.14842 -19.12823
 Alpha  occ. eigenvalues --  -10.37349 -10.31300 -10.26712 -10.25765 -10.25240
 Alpha  occ. eigenvalues --  -10.20348 -10.20271 -10.20106 -10.19992 -10.19958
 Alpha  occ. eigenvalues --  -10.18068 -10.17473 -10.17466  -1.15469  -1.08995
 Alpha  occ. eigenvalues --   -1.07294  -1.03262  -1.00686  -0.86762  -0.81339
 Alpha  occ. eigenvalues --   -0.78011  -0.75885  -0.73633  -0.69449  -0.69242
 Alpha  occ. eigenvalues --   -0.66996  -0.62533  -0.62375  -0.57978  -0.55352
 Alpha  occ. eigenvalues --   -0.53748  -0.51077  -0.50726  -0.50181  -0.47719
 Alpha  occ. eigenvalues --   -0.46499  -0.46278  -0.45792  -0.45062  -0.44695
 Alpha  occ. eigenvalues --   -0.43803  -0.43452  -0.43099  -0.41775  -0.41167
 Alpha  occ. eigenvalues --   -0.39526  -0.38813  -0.38495  -0.37920  -0.37310
 Alpha  occ. eigenvalues --   -0.36880  -0.35692  -0.35197  -0.34777  -0.33294
 Alpha  occ. eigenvalues --   -0.32926  -0.31668  -0.29732  -0.29321  -0.26390
 Alpha  occ. eigenvalues --   -0.26077  -0.24745
 Alpha virt. eigenvalues --   -0.04295  -0.00941   0.02632   0.06542   0.08143
 Alpha virt. eigenvalues --    0.09160   0.09952   0.10409   0.12006   0.14362
 Alpha virt. eigenvalues --    0.14685   0.14713   0.15439   0.16331   0.16392

 Mulliken atomic charges:
              1
     1  C   -0.214403
     2  O   -0.444159
     3  C    0.780617
     4  O   -0.483677
     5  O   -0.515419
     6  C    0.307453
     7  C   -0.175197
     8  C   -0.201101
     9  C    0.063725
    10  C   -0.208675
    11  C   -0.144917
    12  C    0.578007
    13  O   -0.314594
    14  O   -0.474379
    15  C    0.279920
    16  C   -0.466552
    17  C   -0.458507
    18  C   -0.466633
    19  H    0.167477
    20  H    0.169953
    21  H    0.171662
    22  H    0.133715
    23  H    0.127165
    24  H    0.129706
    25  H    0.153769
    26  H    0.169684
    27  H    0.176230
    28  H    0.158147
    29  H    0.168584
    30  H    0.158274
    31  H    0.169599
    32  H    0.175931
    33  H    0.170550
    34  H    0.158046
 Sum of Mulliken atomic charges =   0.00000

 Dipole moment (field-independent basis, Debye):
    X=             -4.8221    Y=             -1.2610    Z=             -0.1785  Tot=              4.9875
 Quadrupole moment (field-independent basis, Debye-Ang):
   XX=            -67.3795   YY=           -103.7758   ZZ=           -105.8700
   XY=              2.3303   XZ=              0.2967   YZ=              3.0926

 Summary of Natural Population Analysis:

                                       Natural Population
                Natural  -----------------------------------------------
    Atom  No    Charge         Core      Valence    Rydberg      Total
 -----------------------------------------------------------------------
      C    1   -0.31672      1.99942     4.30381    0.01349     6.31672
      O    2   -0.54242      1.99973     6.53141    0.01128     8.54242
      C    3    1.04924      1.99954     2.89998    0.05125     4.95076
      O    4   -0.64054      1.99977     6.62032    0.02045     8.64054
      O    5   -0.53108      1.99968     6.52008    0.01132     8.53108
      C    6    0.24294      1.99870     3.73695    0.02141     5.75706
      C    7   -0.26074      1.99903     4.24724    0.01447     6.26074
      C    8   -0.23764      1.99906     4.22482    0.01376     6.23764
      C    9   -0.21413      1.99887     4.19900    0.01626     6.21413
      C   10   -0.23474      1.99905     4.22138    0.01431     6.23474
      C   11   -0.26575      1.99901     4.25337    0.01337     6.26575
      C   12    0.67806      1.99932     3.28321    0.03941     5.32194
      O   13   -0.27577      1.99980     6.25784    0.01813     8.27577
      O   14   -0.50234      1.99973     6.49071    0.01190     8.50234
      C   15    0.27809      1.99901     3.70366    0.01924     5.72191
      C   16   -0.70084      1.99932     4.69211    0.00941     6.70084
      C   17   -0.68620      1.99931     4.67645    0.01045     6.68620
      C   18   -0.70110      1.99932     4.69237    0.00941     6.70110
      H   19    0.22309      0.00000     0.77628    0.00063     0.77691
      H   20    0.21741      0.00000     0.78109    0.00151     0.78259
      H   21    0.21829      0.00000     0.78021    0.00150     0.78171
      H   22    0.24553      0.00000     0.75337    0.00111     0.75447
      H   23    0.23314      0.00000     0.76641    0.00045     0.76686
      H   24    0.24161      0.00000     0.75748    0.00091     0.75839
      H   25    0.25794      0.00000     0.74094    0.00112     0.74206
      H   26    0.24806      0.00000     0.75091    0.00103     0.75194
      H   27    0.24880      0.00000     0.74995    0.00126     0.75120
      H   28    0.24517      0.00000     0.75405    0.00078     0.75483
      H   29    0.24783      0.00000     0.75113    0.00103     0.75217
      H   30    0.24402      0.00000     0.75541    0.00057     0.75598
      H   31    0.24842      0.00000     0.75055    0.00103     0.75158
      H   32    0.24869      0.00000     0.75005    0.00126     0.75131
      H   33    0.24859      0.00000     0.75039    0.00102     0.75141
      H   34    0.24510      0.00000     0.75412    0.00078     0.75490
 =======================================================================
   * Total *    0.00000     35.98767    97.67702    0.33531   134.00000

 Normal termination of Gaussian 09 at Thu Sep 30 12:28:46 2021.
