 Gaussian 09, Revision A.02,

 -----------------------------------
 #p opt b3lyp/6-31G* scf=(xqc,tight)
 -----------------------------------

 -----------------------------------
 CCN(C(=O)Oc1ccc(cc1)N(C)C)CC_conf_0
 -----------------------------------
 Symbolic Z-matrix:
 Charge =  0 Multiplicity = 1

 SCF Done:  E(RB3LYP) =  -767.385871330     A.U. after   15 cycles
 SCF Done:  E(RB3LYP) =  -767.390556785     A.U. after   12 cycles
 SCF Done:  E(RB3LYP) =  -767.391202916     A.U. after   11 cycles
 SCF Done:  E(RB3LYP) =  -767.391230363     A.U. after   12 cycles
 SCF Done:  E(RB3LYP) =  -767.391724124     A.U. after   11 cycles
 SCF Done:  E(RB3LYP) =  -767.391984690     A.U. after   12 cycles
 SCF Done:  E(RB3LYP) =  -767.392112847     A.U. after   15 cycles
 SCF Done:  E(RB3LYP) =  -767.392191935     A.U. after   15 cycles
 SCF Done:  E(RB3LYP) =  -767.392219062     A.U. after   11 cycles
 SCF Done:  E(RB3LYP) =  -767.392226446     A.U. after    9 cycles
 SCF Done:  E(RB3LYP) =  -767.392233921     A.U. after    9 cycles
 SCF Done:  E(RB3LYP) =  -767.392237680     A.U. after    8 cycles
 SCF Done:  E(RB3LYP) =  -767.392240725     A.U. after    9 cycles
 SCF Done:  E(RB3LYP) =  -767.392242181     A.U. after    8 cycles
 SCF Done:  E(RB3LYP) =  -767.392242218     A.U. after    6 cycles
 SCF Done:  E(RB3LYP) =  -767.392242110     A.U. after    7 cycles
 SCF Done:  E(RB3LYP) =  -767.392242000     A.U. after    7 cycles
 Optimization completed.
    -- Stationary point found.
 Normal termination of Gaussian 09 at Thu Sep 30 04:24:58 2021.

 ----------------------------------------------------------------------
 #p freq b3lyp/6-31G* volume NMR pop=NPA density=current Geom=AllCheck
 Guess=Read
 ----------------------------------------------------------------------

 CCN(C(=O)Oc1ccc(cc1)N(C)C)CC_conf_0
 -----------------------------------
 Redundant internal coordinates taken from checkpoint file:
 C13H20N2O2_f0e3_conf_0.chk
 Charge =  0 Multiplicity = 1

 SCF Done:  E(RB3LYP) =  -767.392242000     A.U. after    1 cycles

  1  C    Isotropic =   175.5890   Anisotropy =    21.4451

  2  C    Isotropic =   146.6002   Anisotropy =    42.6630

  3  N    Isotropic =   159.6571   Anisotropy =    69.4164

  4  C    Isotropic =    46.1496   Anisotropy =    74.5005

  5  O    Isotropic =    64.9706   Anisotropy =   382.5868

  6  O    Isotropic =   150.4214   Anisotropy =   119.0028

  7  C    Isotropic =    53.5583   Anisotropy =    97.7872

  8  C    Isotropic =    75.4369   Anisotropy =   137.3599

  9  C    Isotropic =    84.6786   Anisotropy =   136.2016

 10  C    Isotropic =    53.0045   Anisotropy =   148.7674

 11  C    Isotropic =    84.1004   Anisotropy =   137.5344

 12  C    Isotropic =    71.4768   Anisotropy =   152.2895

 13  N    Isotropic =   205.3326   Anisotropy =    83.1168

 14  C    Isotropic =   149.7333   Anisotropy =    52.0495

 15  C    Isotropic =   149.6924   Anisotropy =    52.1002

 16  C    Isotropic =   147.3522   Anisotropy =    40.6741

 17  C    Isotropic =   174.7047   Anisotropy =    22.1873

 18  H    Isotropic =    31.4585   Anisotropy =    10.6783

 19  H    Isotropic =    30.7479   Anisotropy =     6.4598

 20  H    Isotropic =    31.1382   Anisotropy =     7.0576

 21  H    Isotropic =    28.3573   Anisotropy =     6.0490

 22  H    Isotropic =    29.5451   Anisotropy =     6.5458

 23  H    Isotropic =    25.5734   Anisotropy =     7.1367

 24  H    Isotropic =    25.9052   Anisotropy =     8.7785

 25  H    Isotropic =    25.8360   Anisotropy =     8.9674

 26  H    Isotropic =    24.9519   Anisotropy =     9.1486

 27  H    Isotropic =    28.9675   Anisotropy =     8.8537

 28  H    Isotropic =    29.7146   Anisotropy =     8.0840

 29  H    Isotropic =    29.3536   Anisotropy =     8.9422

 30  H    Isotropic =    28.9495   Anisotropy =     8.7971

 31  H    Isotropic =    29.3613   Anisotropy =     8.8990

 32  H    Isotropic =    29.7267   Anisotropy =     8.0554

 33  H    Isotropic =    29.3868   Anisotropy =     6.4786

 34  H    Isotropic =    28.3791   Anisotropy =     5.6811

 35  H    Isotropic =    31.0429   Anisotropy =     7.2565

 36  H    Isotropic =    31.4171   Anisotropy =    10.3453

 37  H    Isotropic =    30.7800   Anisotropy =     5.9926

  Exact polarizability: 236.941  -3.777 131.718  -1.087 -19.093 119.371
 Approx polarizability: 294.678 -13.199 205.856  -5.543 -44.106 183.799

                     1                      2                      3
                     A                      A                      A
 Frequencies --    24.3421                29.1695                49.7621
 Red. masses --     3.3381                 3.8782                 3.6976
 Frc consts  --     0.0012                 0.0019                 0.0054
 IR Inten    --     0.1208                 1.7043                 1.1756

                     4                      5                      6
                     A                      A                      A
 Frequencies --    64.2416                67.6583                72.2647
 Red. masses --     2.8525                 2.8767                 2.9243
 Frc consts  --     0.0069                 0.0078                 0.0090
 IR Inten    --     0.9453                 0.8042                 0.1352

                     7                      8                      9
                     A                      A                      A
 Frequencies --   105.6290               107.0454               119.5785
 Red. masses --     5.9599                 3.4148                 3.3269
 Frc consts  --     0.0392                 0.0231                 0.0280
 IR Inten    --     1.2368                 2.9748                 7.6410

                    10                     11                     12
                     A                      A                      A
 Frequencies --   154.8982               190.7281               205.7184
 Red. masses --     1.6789                 1.7698                 1.9694
 Frc consts  --     0.0237                 0.0379                 0.0491
 IR Inten    --     1.6757                 0.1767                 1.7446

                    13                     14                     15
                     A                      A                      A
 Frequencies --   228.8590               249.6836               254.4013
 Red. masses --     1.0668                 1.6669                 2.0690
 Frc consts  --     0.0329                 0.0612                 0.0789
 IR Inten    --     0.6518                 3.3039                 0.6820

                    16                     17                     18
                     A                      A                      A
 Frequencies --   264.5492               327.1373               337.1403
 Red. masses --     1.5545                 2.7089                 2.8644
 Frc consts  --     0.0641                 0.1708                 0.1918
 IR Inten    --     0.7011                 1.7382                 3.9434

                    19                     20                     21
                     A                      A                      A
 Frequencies --   388.7945               394.5956               420.7164
 Red. masses --     4.0271                 5.0419                 2.7000
 Frc consts  --     0.3587                 0.4625                 0.2816
 IR Inten    --    12.5592                 3.7772                 2.1643

                    22                     23                     24
                     A                      A                      A
 Frequencies --   430.2048               447.2389               490.2907
 Red. masses --     3.2249                 3.3186                 3.6131
 Frc consts  --     0.3517                 0.3911                 0.5117
 IR Inten    --     0.2248                 8.2407                 4.3934

                    25                     26                     27
                     A                      A                      A
 Frequencies --   508.0512               532.2008               574.5275
 Red. masses --     2.9251                 2.4035                 3.6911
 Frc consts  --     0.4448                 0.4011                 0.7178
 IR Inten    --     2.2997                 8.0231                 4.5677

                    28                     29                     30
                     A                      A                      A
 Frequencies --   621.3816               656.5747               712.0874
 Red. masses --     3.8469                 6.4767                 3.9327
 Frc consts  --     0.8751                 1.6450                 1.1749
 IR Inten    --     2.2807                 1.9087                 0.9230

                    31                     32                     33
                     A                      A                      A
 Frequencies --   735.7019               747.4361               787.5991
 Red. masses --     4.5521                 9.5595                 1.4626
 Frc consts  --     1.4517                 3.1465                 0.5345
 IR Inten    --     2.0484                18.1392                18.8358

                    34                     35                     36
                     A                      A                      A
 Frequencies --   794.3411               802.4804               815.9793
 Red. masses --     1.1993                 1.2554                 1.8856
 Frc consts  --     0.4459                 0.4763                 0.7397
 IR Inten    --     2.3064                 0.0934                30.3021

                    37                     38                     39
                     A                      A                      A
 Frequencies --   843.2686               851.5524               930.6689
 Red. masses --     2.8876                 4.1533                 1.3013
 Frc consts  --     1.2098                 1.7744                 0.6641
 IR Inten    --    13.9825                15.7475                 0.2158

                    40                     41                     42
                     A                      A                      A
 Frequencies --   933.2377               953.0799               970.6702
 Red. masses --     1.3405                 2.2814                 2.9727
 Frc consts  --     0.6879                 1.2210                 1.6502
 IR Inten    --     0.7653                 9.3386                 0.8913

                    43                     44                     45
                     A                      A                      A
 Frequencies --   974.6128              1029.1517              1065.4627
 Red. masses --     2.8148                 2.8475                 2.8678
 Frc consts  --     1.5753                 1.7769                 1.9181
 IR Inten    --    78.4095                 5.8566                29.5235

                    46                     47                     48
                     A                      A                      A
 Frequencies --  1091.2426              1102.8534              1117.3485
 Red. masses --     1.5187                 1.9227                 1.7769
 Frc consts  --     1.0656                 1.3778                 1.3070
 IR Inten    --    25.5300                15.5550                11.0890

                    49                     50                     51
                     A                      A                      A
 Frequencies --  1127.9210              1151.8233              1155.4527
 Red. masses --     1.7018                 1.2327                 1.3573
 Frc consts  --     1.2756                 0.9635                 1.0677
 IR Inten    --    27.2279                 1.1628                 5.7047

                    52                     53                     54
                     A                      A                      A
 Frequencies --  1156.9664              1189.7595              1203.0605
 Red. masses --     1.3629                 2.2487                 1.5656
 Frc consts  --     1.0749                 1.8755                 1.3350
 IR Inten    --    68.3558               229.2063                52.2134

                    55                     56                     57
                     A                      A                      A
 Frequencies --  1219.1516              1254.8475              1267.2928
 Red. masses --     1.4631                 2.9263                 2.7783
 Frc consts  --     1.2813                 2.7149                 2.6289
 IR Inten    --    62.3840               489.7285               138.6033

                    58                     59                     60
                     A                      A                      A
 Frequencies --  1280.9325              1313.3039              1350.9214
 Red. masses --     3.3183                 1.5814                 1.6622
 Frc consts  --     3.2079                 1.6070                 1.7873
 IR Inten    --    43.7025               253.4159                 5.8015

                    61                     62                     63
                     A                      A                      A
 Frequencies --  1359.7989              1369.0072              1385.7295
 Red. masses --     1.3128                 3.9374                 3.8003
 Frc consts  --     1.4302                 4.3478                 4.2996
 IR Inten    --    19.6208                 5.1970                92.7644

                    64                     65                     66
                     A                      A                      A
 Frequencies --  1401.0355              1421.5721              1437.1887
 Red. masses --     1.2788                 1.2813                 1.3070
 Frc consts  --     1.4789                 1.5256                 1.5906
 IR Inten    --    19.3037                13.5025                19.8617

                    67                     68                     69
                     A                      A                      A
 Frequencies --  1439.3043              1462.0768              1465.6504
 Red. masses --     1.2603                 2.0230                 1.5678
 Frc consts  --     1.5383                 2.5479                 1.9843
 IR Inten    --    23.3077               305.4113                 0.1016

                    70                     71                     72
                     A                      A                      A
 Frequencies --  1482.1133              1505.5260              1512.3193
 Red. masses --     1.8048                 1.0725                 1.0990
 Frc consts  --     2.3358                 1.4323                 1.4809
 IR Inten    --     3.7696                 6.8453                12.5395

                    73                     74                     75
                     A                      A                      A
 Frequencies --  1512.9373              1519.1850              1520.2495
 Red. masses --     1.1547                 1.0649                 1.0455
 Frc consts  --     1.5573                 1.4480                 1.4236
 IR Inten    --    24.6323                16.2168                 4.5018

                    76                     77                     78
                     A                      A                      A
 Frequencies --  1522.8135              1527.1201              1533.7983
 Red. masses --     1.0585                 1.0862                 1.0597
 Frc consts  --     1.4462                 1.4924                 1.4688
 IR Inten    --     2.3175                50.9542                 7.4306

                    79                     80                     81
                     A                      A                      A
 Frequencies --  1537.5512              1544.0428              1559.7496
 Red. masses --     1.1057                 1.0664                 1.0624
 Frc consts  --     1.5401                 1.4979                 1.5229
 IR Inten    --    39.4172                 3.9026                33.6453

                    82                     83                     84
                     A                      A                      A
 Frequencies --  1571.8434              1630.3283              1676.8795
 Red. masses --     2.3651                 6.7547                 5.7386
 Frc consts  --     3.4429                10.5781                 9.5073
 IR Inten    --   220.7645                 1.8434                41.7942

                    85                     86                     87
                     A                      A                      A
 Frequencies --  1806.6984              2984.7534              2993.3722
 Red. masses --    11.2966                 1.0536                 1.0579
 Frc consts  --    21.7254                 5.5300                 5.5848
 IR Inten    --   353.0603                75.5107               103.2744

                    88                     89                     90
                     A                      A                      A
 Frequencies --  3050.9750              3052.2218              3059.5847
 Red. masses --     1.0365                 1.0363                 1.0681
 Frc consts  --     5.6845                 5.6881                 5.8912
 IR Inten    --    19.2459                20.2828                31.4178

                    91                     92                     93
                     A                      A                      A
 Frequencies --  3069.5049              3073.1409              3075.0037
 Red. masses --     1.0685                 1.0840                 1.0854
 Frc consts  --     5.9316                 6.0320                 6.0469
 IR Inten    --    44.2594                24.2354                49.9554

                    94                     95                     96
                     A                      A                      A
 Frequencies --  3111.2187              3113.4256              3132.6742
 Red. masses --     1.1018                 1.1020                 1.0973
 Frc consts  --     6.2838                 6.2939                 6.3448
 IR Inten    --    18.5476                23.0480                21.0137

                    97                     98                     99
                     A                      A                      A
 Frequencies --  3133.4137              3136.0730              3144.7927
 Red. masses --     1.0972                 1.0987                 1.1025
 Frc consts  --     6.3473                 6.3666                 6.4242
 IR Inten    --    21.2966                 2.9695                17.9257

                   100                    101                    102
                     A                      A                      A
 Frequencies --  3146.7804              3147.4790              3204.5038
 Red. masses --     1.1020                 1.0959                 1.0894
 Frc consts  --     6.4292                 6.3967                 6.5910
 IR Inten    --    49.0417                42.7664                12.6592

                   103                    104                    105
                     A                      A                      A
 Frequencies --  3227.6314              3233.8642              3246.3277
 Red. masses --     1.0874                 1.0910                 1.0938
 Frc consts  --     6.6741                 6.7223                 6.7918
 IR Inten    --    13.0498                14.4921                 3.6624

 - Thermochemistry -
 -------------------
 Temperature   298.150 Kelvin.  Pressure   1.00000 Atm.
 Atom     1 has atomic number  6 and mass  12.00000

 Molecular mass:   236.15248 amu.
 Principal axes and moments of inertia in atomic units:
                           1         2         3
     Eigenvalues --  1463.44040********************
           X            1.00000  -0.00240   0.00145
           Y            0.00241   0.99998  -0.00655
           Z           -0.00144   0.00656   0.99998
 This molecule is an asymmetric top.
 Rotational symmetry number  1.
 Warning -- assumption of classical behavior for rotation
           may cause significant error
 Rotational temperatures (Kelvin)      0.05919     0.00862     0.00825
 Rotational constants (GHZ):           1.23322     0.17955     0.17187
 Zero-point vibrational energy     839113.7 (Joules/Mol)
                                  200.55298 (Kcal/Mol)
 Warning -- explicit consideration of  27 degrees of freedom as
           vibrations may cause significant error
 Vibrational temperatures:     35.02    41.97    71.60    92.43    97.35
          (Kelvin)            103.97   151.98   154.01   172.05   222.86
                              274.41   295.98   329.28   359.24   366.03
                              380.63   470.68   485.07   559.39   567.73
                              605.32   618.97   643.48   705.42   730.97
                              765.72   826.62   894.03   944.66  1024.53
                             1058.51  1075.39  1133.18  1142.88  1154.59
                             1174.01  1213.27  1225.19  1339.02  1342.72
                             1371.27  1396.58  1402.25  1480.72  1532.96
                             1570.05  1586.76  1607.61  1622.82  1657.21
                             1662.44  1664.61  1711.80  1730.93  1754.09
                             1805.44  1823.35  1842.97  1889.55  1943.67
                             1956.44  1969.69  1993.75  2015.78  2045.32
                             2067.79  2070.84  2103.60  2108.74  2132.43
                             2166.11  2175.89  2176.78  2185.77  2187.30
                             2190.99  2197.18  2206.79  2212.19  2221.53
                             2244.13  2261.53  2345.68  2412.65  2599.43
                             4294.39  4306.79  4389.67  4391.46  4402.05
                             4416.33  4421.56  4424.24  4476.34  4479.52
                             4507.21  4508.28  4512.10  4524.65  4527.51
                             4528.51  4610.56  4643.84  4652.80  4670.74

 Zero-point correction=                           0.319602 (Hartree/Particle)
 Thermal correction to Energy=                    0.338049
 Thermal correction to Enthalpy=                  0.338993
 Thermal correction to Gibbs Free Energy=         0.271147
 Sum of electronic and zero-point Energies=           -767.072640
 Sum of electronic and thermal Energies=              -767.054193
 Sum of electronic and thermal Enthalpies=            -767.053249
 Sum of electronic and thermal Free Energies=         -767.121095

                     E (Thermal)             CV                S
                      KCal/Mol        Cal/Mol-Kelvin    Cal/Mol-Kelvin
 Total                  212.129             67.300            142.795
 Electronic               0.000              0.000              0.000
 Translational            0.889              2.981             42.279
 Rotational               0.889              2.981             33.401
 Vibrational            210.352             61.339             67.115
 Vibration     1          0.593              1.985              6.244
 Vibration     2          0.593              1.984              5.885
 Vibration     3          0.595              1.978              4.827
 Vibration     4          0.597              1.971              4.322
 Vibration     5          0.598              1.970              4.220
 Vibration     6          0.598              1.967              4.091
 Vibration     7          0.605              1.945              3.348
 Vibration     8          0.606              1.944              3.322
 Vibration     9          0.609              1.933              3.107
 Vibration    10          0.620              1.897              2.611
 Vibration    11          0.634              1.853              2.221
 Vibration    12          0.640              1.832              2.081
 Vibration    13          0.652              1.797              1.888
 Vibration    14          0.662              1.763              1.733
 Vibration    15          0.665              1.755              1.700
 Vibration    16          0.671              1.738              1.632
 Vibration    17          0.711              1.621              1.274
 Vibration    18          0.718              1.601              1.226
 Vibration    19          0.757              1.494              1.005
 Vibration    20          0.762              1.482              0.983
 Vibration    21          0.783              1.425              0.890
 Vibration    22          0.791              1.404              0.858
 Vibration    23          0.806              1.367              0.804
 Vibration    24          0.846              1.272              0.683
 Vibration    25          0.863              1.232              0.638
 Vibration    26          0.887              1.179              0.582
 Vibration    27          0.931              1.086              0.496

 Normal termination of Gaussian 09 at Thu Sep 30 05:36:04 2021.
 Gaussian 09:  AM64L-G09RevA.02 11-Jun-2009

 ----------------------------------------------------------------------
 #p TD(NStates=10, Root=1) b3lyp/6-31G* volume pop=NPA density=current
 Geom=AllCheck Guess=Read
 ----------------------------------------------------------------------

 CCN(C(=O)Oc1ccc(cc1)N(C)C)CC_conf_0
 -----------------------------------
 Redundant internal coordinates taken from checkpoint file:
 C13H20N2O2_f0e3_conf_0.chk
 Charge =  0 Multiplicity = 1

                         Standard orientation:
 ---------------------------------------------------------------------
 Center     Atomic      Atomic             Coordinates (Angstroms)
 Number     Number       Type             X           Y           Z
 ---------------------------------------------------------------------
      1          6           0       -4.760413   -1.450992   -1.313360
      2          6           0       -4.315359   -0.980083    0.073527
      3          7           0       -3.227470    0.000619    0.026357
      4          6           0       -1.949246   -0.476450    0.033273
      5          8           0       -1.642500   -1.654859    0.043940
      6          8           0       -1.046174    0.563700    0.039224
      7          6           0        0.323038    0.287546   -0.000692
      8          6           0        1.086113    1.011300   -0.910518
      9          6           0        2.470220    0.864089   -0.946344
     10          6           0        3.130043   -0.032267   -0.077145
     11          6           0        2.330055   -0.743387    0.845612
     12          6           0        0.947606   -0.587057    0.885135
     13          7           0        4.512065   -0.217038   -0.134109
     14          6           0        5.312867    0.717423   -0.905033
     15          6           0        5.168955   -0.937668    0.942651
     16          6           0       -3.562307    1.426549   -0.029765
     17          6           0       -3.653099    2.082540    1.351157
     18          1           0       -5.588261   -2.164640   -1.227213
     19          1           0       -3.930259   -1.946852   -1.825276
     20          1           0       -5.099545   -0.612187   -1.932489
     21          1           0       -3.971586   -1.832760    0.663097
     22          1           0       -5.151715   -0.518341    0.611132
     23          1           0        0.591699    1.702018   -1.587130
     24          1           0        3.031497    1.452977   -1.661433
     25          1           0        2.784334   -1.431859    1.547601
     26          1           0        0.358335   -1.153138    1.595833
     27          1           0        5.021360    0.702767   -1.961761
     28          1           0        6.361537    0.416864   -0.852322
     29          1           0        5.232603    1.756996   -0.544978
     30          1           0        4.794490   -1.965683    1.010734
     31          1           0        5.034706   -0.461419    1.928376
     32          1           0        6.239237   -0.993647    0.732580
     33          1           0       -4.521162    1.511287   -0.554295
     34          1           0       -2.816429    1.938435   -0.640512
     35          1           0       -4.398589    1.583382    1.980820
     36          1           0       -3.940631    3.136323    1.255988
     37          1           0       -2.685234    2.034412    1.859207
 ---------------------------------------------------------------------

 SCF Done:  E(RB3LYP) =  -767.392242000     A.U. after    1 cycles

 Excitation energies and oscillator strengths:

 Excited State   1:      Singlet-A      4.5444 eV  272.83 nm  f=0.0348  <S**2>=0.000
      62 -> 66        -0.18611
      64 -> 65         0.67883
 This state for optimization and/or second-order correction.
 Total Energy, E(TD-HF/TD-KS) =  -767.225237642
 Copying the excited state density for this state as the 1-particle RhoCI density.

 Excited State   2:      Singlet-A      5.2405 eV  236.59 nm  f=0.4867  <S**2>=0.000
      62 -> 65         0.14133
      64 -> 66         0.68244

 Excited State   3:      Singlet-A      6.0232 eV  205.85 nm  f=0.0041  <S**2>=0.000
      63 -> 65         0.69761

 Excited State   4:      Singlet-A      6.0789 eV  203.96 nm  f=0.0016  <S**2>=0.000
      62 -> 65         0.11695
      64 -> 67         0.68960

 Excited State   5:      Singlet-A      6.3501 eV  195.25 nm  f=0.0206  <S**2>=0.000
      60 -> 65         0.42102
      61 -> 65         0.10925
      62 -> 66         0.42299
      63 -> 66        -0.28487
      64 -> 65         0.10571

 Excited State   6:      Singlet-A      6.3703 eV  194.63 nm  f=0.0083  <S**2>=0.000
      64 -> 68        -0.41433
      64 -> 69         0.55900

 Excited State   7:      Singlet-A      6.4347 eV  192.68 nm  f=0.1094  <S**2>=0.000
      60 -> 65         0.22630
      62 -> 65        -0.16289
      62 -> 66         0.21805
      63 -> 66         0.59454

 Excited State   8:      Singlet-A      6.5277 eV  189.93 nm  f=0.2000  <S**2>=0.000
      60 -> 66        -0.10092
      61 -> 65         0.50239
      62 -> 65         0.42172
      63 -> 66         0.16921

 Excited State   9:      Singlet-A      6.6408 eV  186.70 nm  f=0.0010  <S**2>=0.000
      60 -> 65        -0.21601
      60 -> 66        -0.11349
      61 -> 66         0.48830
      61 -> 67        -0.32970
      62 -> 66         0.12488
      62 -> 67        -0.16023
      63 -> 66         0.14394
      63 -> 67         0.12911

 Excited State  10:      Singlet-A      6.8372 eV  181.34 nm  f=0.0655  <S**2>=0.000
      61 -> 65         0.20046
      62 -> 65        -0.19395
      64 -> 68         0.50578
      64 -> 69         0.37523

 The electronic state is 1-A.
 Alpha  occ. eigenvalues --  -19.18273 -19.10615 -14.35598 -14.34652 -10.32062
 Alpha  occ. eigenvalues --  -10.22850 -10.22140 -10.21857 -10.21659 -10.21418
 Alpha  occ. eigenvalues --  -10.21366 -10.18011 -10.17835 -10.17803 -10.17681
 Alpha  occ. eigenvalues --  -10.17570 -10.17438  -1.09271  -1.00233  -0.93988
 Alpha  occ. eigenvalues --   -0.93208  -0.83420  -0.76779  -0.75155  -0.74239
 Alpha  occ. eigenvalues --   -0.72784  -0.71654  -0.66877  -0.63917  -0.63273
 Alpha  occ. eigenvalues --   -0.60464  -0.58246  -0.54748  -0.52066  -0.51315
 Alpha  occ. eigenvalues --   -0.48705  -0.48197  -0.45979  -0.45757  -0.44870
 Alpha  occ. eigenvalues --   -0.44206  -0.43806  -0.43170  -0.42028  -0.41578
 Alpha  occ. eigenvalues --   -0.40596  -0.40364  -0.39801  -0.39165  -0.38506
 Alpha  occ. eigenvalues --   -0.37898  -0.37396  -0.36829  -0.36650  -0.35253
 Alpha  occ. eigenvalues --   -0.34905  -0.34313  -0.33510  -0.30308  -0.26555
 Alpha  occ. eigenvalues --   -0.26224  -0.23869  -0.23341  -0.18091
 Alpha virt. eigenvalues --    0.01011   0.02504   0.06516   0.08615   0.08701
 Alpha virt. eigenvalues --    0.11012   0.12154   0.12213   0.12826   0.13100
 Alpha virt. eigenvalues --    0.14551   0.15226   0.15709   0.15947   0.16479

 Mulliken atomic charges:
              1
     1  C   -0.443056
     2  C   -0.141557
     3  N   -0.440323
     4  C    0.789930
     5  O   -0.513771
     6  O   -0.554909
     7  C    0.375921
     8  C   -0.220137
     9  C   -0.227314
    10  C    0.349906
    11  C   -0.233124
    12  C   -0.188912
    13  N   -0.404088
    14  C   -0.323696
    15  C   -0.324181
    16  C   -0.139057
    17  C   -0.442610
    18  H    0.142838
    19  H    0.175680
    20  H    0.142142
    21  H    0.179711
    22  H    0.139704
    23  H    0.104471
    24  H    0.096054
    25  H    0.097668
    26  H    0.123596
    27  H    0.195731
    28  H    0.164921
    29  H    0.188518
    30  H    0.197672
    31  H    0.189186
    32  H    0.164458
    33  H    0.144086
    34  H    0.175639
    35  H    0.146138
    36  H    0.142898
    37  H    0.169867
 Sum of Mulliken atomic charges =  -0.00000

 Dipole moment (field-independent basis, Debye):
    X=              3.5381    Y=              1.7944    Z=              0.2364  Tot=              3.9742
 Quadrupole moment (field-independent basis, Debye-Ang):
   XX=            -51.7267   YY=           -105.0390   ZZ=           -100.8837
   XY=             -4.1441   XZ=              0.3930   YZ=             -3.7621

 Summary of Natural Population Analysis:

                                       Natural Population
                Natural  -----------------------------------------------
    Atom  No    Charge         Core      Valence    Rydberg      Total
 -----------------------------------------------------------------------
      C    1   -0.68780      1.99945     4.68097    0.00737     6.68780
      C    2   -0.25393      1.99935     4.23909    0.01549     6.25393
      N    3   -0.50265      1.99930     5.48979    0.01356     7.50265
      C    4    0.94366      1.99937     3.01123    0.04575     5.05634
      O    5   -0.64378      1.99978     6.62504    0.01896     8.64378
      O    6   -0.54835      1.99969     6.53835    0.01031     8.54835
      C    7    0.36318      1.99866     3.61570    0.02245     5.63682
      C    8   -0.35406      1.99903     4.33465    0.02039     6.35406
      C    9   -0.33411      1.99909     4.31685    0.01817     6.33411
      C   10    0.14061      1.99901     3.84026    0.02012     5.85939
      C   11   -0.33294      1.99909     4.31575    0.01810     6.33294
      C   12   -0.34948      1.99902     4.33120    0.01926     6.34948
      N   13   -0.25797      1.99933     5.24817    0.01048     7.25797
      C   14   -0.48298      1.99945     4.47125    0.01228     6.48298
      C   15   -0.48315      1.99945     4.47143    0.01227     6.48315
      C   16   -0.25830      1.99935     4.24380    0.01515     6.25830
      C   17   -0.68729      1.99945     4.68043    0.00740     6.68729
      H   18    0.23214      0.00000     0.76695    0.00090     0.76786
      H   19    0.24419      0.00000     0.75449    0.00132     0.75581
      H   20    0.22274      0.00000     0.77631    0.00095     0.77726
      H   21    0.25682      0.00000     0.74115    0.00203     0.74318
      H   22    0.22452      0.00000     0.77411    0.00137     0.77548
      H   23    0.23020      0.00000     0.76859    0.00120     0.76980
      H   24    0.21644      0.00000     0.78249    0.00106     0.78356
      H   25    0.21701      0.00000     0.78191    0.00107     0.78299
      H   26    0.24292      0.00000     0.75597    0.00111     0.75708
      H   27    0.25149      0.00000     0.74663    0.00187     0.74851
      H   28    0.23490      0.00000     0.76437    0.00073     0.76510
      H   29    0.24435      0.00000     0.75340    0.00224     0.75565
      H   30    0.25259      0.00000     0.74559    0.00182     0.74741
      H   31    0.24494      0.00000     0.75282    0.00225     0.75506
      H   32    0.23462      0.00000     0.76466    0.00072     0.76538
      H   33    0.22784      0.00000     0.77071    0.00145     0.77216
      H   34    0.25329      0.00000     0.74514    0.00157     0.74671
      H   35    0.22544      0.00000     0.77361    0.00095     0.77456
      H   36    0.23208      0.00000     0.76696    0.00096     0.76792
      H   37    0.24079      0.00000     0.75790    0.00131     0.75921
 =======================================================================
   * Total *   -0.00000     33.98786    93.69773    0.31441   128.00000

 Normal termination of Gaussian 09 at Thu Sep 30 11:37:35 2021.
