 Gaussian 09, Revision A.02,

 -----------------------------------
 #p opt b3lyp/6-31G* scf=(xqc,tight)
 -----------------------------------

 ------------------------------
 COCc1ccc2c(c1)ccc(c2)OC_conf_0
 ------------------------------
 Symbolic Z-matrix:
 Charge =  0 Multiplicity = 1

 SCF Done:  E(RB3LYP) =  -654.238202039     A.U. after   14 cycles
 SCF Done:  E(RB3LYP) =  -654.242980760     A.U. after   12 cycles
 SCF Done:  E(RB3LYP) =  -654.243357707     A.U. after   11 cycles
 SCF Done:  E(RB3LYP) =  -654.243433972     A.U. after   10 cycles
 SCF Done:  E(RB3LYP) =  -654.243503377     A.U. after   11 cycles
 SCF Done:  E(RB3LYP) =  -654.243572985     A.U. after   11 cycles
 SCF Done:  E(RB3LYP) =  -654.243631272     A.U. after   11 cycles
 SCF Done:  E(RB3LYP) =  -654.243662895     A.U. after   11 cycles
 SCF Done:  E(RB3LYP) =  -654.243670285     A.U. after   11 cycles
 SCF Done:  E(RB3LYP) =  -654.243671508     A.U. after   15 cycles
 SCF Done:  E(RB3LYP) =  -654.243671646     A.U. after    7 cycles
 SCF Done:  E(RB3LYP) =  -654.243671669     A.U. after    7 cycles
 Optimization completed.
    -- Stationary point found.
 Normal termination of Gaussian 09 at Thu Sep 30 22:38:27 2021.

 ----------------------------------------------------------------------
 #p freq b3lyp/6-31G* volume NMR pop=NPA density=current Geom=AllCheck
 Guess=Read
 ----------------------------------------------------------------------

 COCc1ccc2c(c1)ccc(c2)OC_conf_0
 ------------------------------
 Redundant internal coordinates taken from checkpoint file:
 C13H14O2_7fea_conf_0.chk
 Charge =  0 Multiplicity = 1

 SCF Done:  E(RB3LYP) =  -654.243671669     A.U. after    1 cycles

  1  C    Isotropic =   132.6180   Anisotropy =    80.0506

  2  O    Isotropic =   312.0625   Anisotropy =    15.2956

  3  C    Isotropic =   117.8593   Anisotropy =    73.3444

  4  C    Isotropic =    62.1975   Anisotropy =   156.2286

  5  C    Isotropic =    72.6837   Anisotropy =   151.7449

  6  C    Isotropic =    69.2765   Anisotropy =   140.4141

  7  C    Isotropic =    63.3211   Anisotropy =   192.4040

  8  C    Isotropic =    67.9227   Anisotropy =   190.8969

  9  C    Isotropic =    71.5585   Anisotropy =   150.4864

 10  C    Isotropic =    65.9668   Anisotropy =   144.3696

 11  C    Isotropic =    84.9499   Anisotropy =   144.4107

 12  C    Isotropic =    41.3598   Anisotropy =   121.9679

 13  C    Isotropic =    82.4093   Anisotropy =   112.5346

 14  O    Isotropic =   241.4092   Anisotropy =    68.5931

 15  C    Isotropic =   137.3309   Anisotropy =    65.1173

 16  H    Isotropic =    28.4256   Anisotropy =     9.0364

 17  H    Isotropic =    28.8734   Anisotropy =     8.5740

 18  H    Isotropic =    28.8732   Anisotropy =     8.5753

 19  H    Isotropic =    27.6056   Anisotropy =     6.0667

 20  H    Isotropic =    27.6055   Anisotropy =     6.0587

 21  H    Isotropic =    25.2220   Anisotropy =     7.2502

 22  H    Isotropic =    24.7568   Anisotropy =     7.2148

 23  H    Isotropic =    24.4487   Anisotropy =    11.5324

 24  H    Isotropic =    24.5821   Anisotropy =     7.8403

 25  H    Isotropic =    25.3794   Anisotropy =     8.0546

 26  H    Isotropic =    25.2483   Anisotropy =     8.0240

 27  H    Isotropic =    28.2347   Anisotropy =     8.2886

 28  H    Isotropic =    28.5105   Anisotropy =     8.3055

 29  H    Isotropic =    28.5085   Anisotropy =     8.3078

  Exact polarizability: 240.401  16.233 147.080   0.009   0.000  65.574
 Approx polarizability: 341.057  28.426 258.903   0.027   0.000  98.487

                     1                      2                      3
                     A                      A                      A
 Frequencies --    25.6152                48.5087                67.9371
 Red. masses --     2.7851                 2.5836                 2.9810
 Frc consts  --     0.0011                 0.0036                 0.0081
 IR Inten    --     2.3393                 6.9702                 0.0159

                     4                      5                      6
                     A                      A                      A
 Frequencies --    98.6649               108.9153               180.2416
 Red. masses --     4.0562                 3.9303                 2.8625
 Frc consts  --     0.0233                 0.0275                 0.0548
 IR Inten    --     1.7453                 2.2944                 0.4675

                     7                      8                      9
                     A                      A                      A
 Frequencies --   205.6308               206.7780               229.5742
 Red. masses --     2.8717                 3.9953                 1.1682
 Frc consts  --     0.0715                 0.1006                 0.0363
 IR Inten    --     0.1745                 0.3634                 3.3137

                    10                     11                     12
                     A                      A                      A
 Frequencies --   254.7504               285.2247               323.3595
 Red. masses --     1.3492                 4.3989                 3.5926
 Frc consts  --     0.0516                 0.2108                 0.2213
 IR Inten    --     1.3094                 0.5456                 2.3327

                    13                     14                     15
                     A                      A                      A
 Frequencies --   360.6542               414.9022               420.7283
 Red. masses --     4.3667                 3.4729                 5.3262
 Frc consts  --     0.3346                 0.3522                 0.5555
 IR Inten    --     0.0011                 0.0862                 0.2525

                    16                     17                     18
                     A                      A                      A
 Frequencies --   439.7856               488.4236               530.7960
 Red. masses --     4.0158                 2.6981                 6.3240
 Frc consts  --     0.4576                 0.3792                 1.0498
 IR Inten    --     1.3445                 7.5540                 1.2076

                    19                     20                     21
                     A                      A                      A
 Frequencies --   555.7056               564.8052               622.8248
 Red. masses --     3.0335                 4.5389                 5.6674
 Frc consts  --     0.5519                 0.8531                 1.2953
 IR Inten    --     0.5244                13.3241                 5.0333

                    22                     23                     24
                     A                      A                      A
 Frequencies --   659.1197               701.4836               763.6191
 Red. masses --     3.4379                 5.5729                 3.1159
 Frc consts  --     0.8800                 1.6157                 1.0705
 IR Inten    --     0.8743                 2.9641                 0.4587

                    25                     26                     27
                     A                      A                      A
 Frequencies --   773.8091               814.1041               817.6592
 Red. masses --     5.5052                 1.4220                 1.4784
 Frc consts  --     1.9422                 0.5553                 0.5823
 IR Inten    --     3.0846                 6.1422                24.1244

                    28                     29                     30
                     A                      A                      A
 Frequencies --   851.0914               884.6535               911.5889
 Red. masses --     4.0583                 1.5289                 1.3473
 Frc consts  --     1.7320                 0.7050                 0.6596
 IR Inten    --     3.0801                34.5611                12.3721

                    31                     32                     33
                     A                      A                      A
 Frequencies --   950.9660               955.1010               961.8039
 Red. masses --     1.3163                 4.7805                 1.2843
 Frc consts  --     0.7013                 2.5693                 0.7000
 IR Inten    --     1.8618                 9.1618                 0.6396

                    34                     35                     36
                     A                      A                      A
 Frequencies --   989.2161              1010.9041              1055.0318
 Red. masses --     3.3408                 4.4302                 1.6983
 Frc consts  --     1.9261                 2.6674                 1.1137
 IR Inten    --     2.7481                20.7018                 0.0717

                    37                     38                     39
                     A                      A                      A
 Frequencies --  1081.1446              1156.4371              1170.8205
 Red. masses --     3.5158                 2.4634                 2.0450
 Frc consts  --     2.4213                 1.9410                 1.6517
 IR Inten    --    46.7196                83.7673                61.1213

                    40                     41                     42
                     A                      A                      A
 Frequencies --  1182.7481              1187.2928              1193.6013
 Red. masses --     1.2683                 1.6691                 1.2723
 Frc consts  --     1.0454                 1.3862                 1.0680
 IR Inten    --     0.7036                55.1720                 2.5324

                    43                     44                     45
                     A                      A                      A
 Frequencies --  1200.0871              1203.7968              1213.6597
 Red. masses --     1.6477                 1.4054                 1.5892
 Frc consts  --     1.3982                 1.1999                 1.3792
 IR Inten    --    42.6169                45.3725                 5.1275

                    46                     47                     48
                     A                      A                      A
 Frequencies --  1236.6121              1272.7570              1273.9271
 Red. masses --     1.7915                 2.0070                 1.0849
 Frc consts  --     1.6141                 1.9156                 1.0374
 IR Inten    --   121.9121                51.3993                 4.0090

                    49                     50                     51
                     A                      A                      A
 Frequencies --  1294.4847              1315.2902              1379.8577
 Red. masses --     1.7838                 2.9486                 2.1197
 Frc consts  --     1.7611                 3.0054                 2.3779
 IR Inten    --     8.9530               294.0657                 0.7231

                    52                     53                     54
                     A                      A                      A
 Frequencies --  1408.8313              1425.1320              1435.7110
 Red. masses --     3.8807                 2.3391                 2.7356
 Frc consts  --     4.5381                 2.7990                 3.3223
 IR Inten    --    32.7860                 8.4097                63.5796

                    55                     56                     57
                     A                      A                      A
 Frequencies --  1463.0251              1499.4978              1502.1360
 Red. masses --     2.8460                 1.2339                 1.1718
 Frc consts  --     3.5891                 1.6347                 1.5578
 IR Inten    --    19.9132                13.1252                 3.0604

                    58                     59                     60
                     A                      A                      A
 Frequencies --  1513.7713              1520.9392              1528.7518
 Red. masses --     1.0477                 1.0488                 1.0886
 Frc consts  --     1.4145                 1.4295                 1.4990
 IR Inten    --     5.1861                 4.9384                 7.5068

                    61                     62                     63
                     A                      A                      A
 Frequencies --  1532.6353              1539.9082              1552.7845
 Red. masses --     1.1804                 1.8008                 1.1541
 Frc consts  --     1.6337                 2.5160                 1.6395
 IR Inten    --    69.8112                 1.6018                 7.6217

                    64                     65                     66
                     A                      A                      A
 Frequencies --  1561.4862              1622.9391              1670.5520
 Red. masses --     3.2197                 6.9770                 5.6863
 Frc consts  --     4.6254                10.8274                 9.3497
 IR Inten    --    46.0713                10.3046               117.9694

                    67                     68                     69
                     A                      A                      A
 Frequencies --  1694.6302              2948.4944              2964.3671
 Red. masses --     6.2390                 1.0537                 1.1051
 Frc consts  --    10.5563                 5.3971                 5.7218
 IR Inten    --    24.1131                41.3301                67.1271

                    70                     71                     72
                     A                      A                      A
 Frequencies --  2989.7011              3022.6355              3032.1303
 Red. masses --     1.0377                 1.0350                 1.1051
 Frc consts  --     5.4650                 5.5711                 5.9862
 IR Inten    --   103.5772                72.9791                67.7799

                    73                     74                     75
                     A                      A                      A
 Frequencies --  3080.7973              3138.1391              3154.0317
 Red. masses --     1.1067                 1.0964                 1.0993
 Frc consts  --     6.1890                 6.3615                 6.4429
 IR Inten    --    46.5370                31.2514                31.5716

                    76                     77                     78
                     A                      A                      A
 Frequencies --  3166.5309              3184.8332              3190.2932
 Red. masses --     1.0867                 1.0890                 1.0943
 Frc consts  --     6.4198                 6.5081                 6.5619
 IR Inten    --    12.0315                10.9175                24.1903

                    79                     80                     81
                     A                      A                      A
 Frequencies --  3203.3548              3217.6233              3227.0540
 Red. masses --     1.0905                 1.0898                 1.0914
 Frc consts  --     6.5929                 6.6477                 6.6962
 IR Inten    --    10.1626                 2.6937                14.7686

 - Thermochemistry -
 -------------------
 Temperature   298.150 Kelvin.  Pressure   1.00000 Atm.
 Atom     1 has atomic number  6 and mass  12.00000

 Molecular mass:   202.09938 amu.
 Principal axes and moments of inertia in atomic units:
                           1         2         3
     Eigenvalues --   949.030897060.925437975.68790
           X            0.99998   0.00549  -0.00000
           Y           -0.00549   0.99998  -0.00001
           Z            0.00000   0.00001   1.00000
 This molecule is an asymmetric top.
 Rotational symmetry number  1.
 Warning -- assumption of classical behavior for rotation
           may cause significant error
 Rotational temperatures (Kelvin)      0.09127     0.01227     0.01086
 Rotational constants (GHZ):           1.90167     0.25560     0.22628
 Zero-point vibrational energy     633358.1 (Joules/Mol)
                                  151.37622 (Kcal/Mol)
 Warning -- explicit consideration of  20 degrees of freedom as
           vibrations may cause significant error
 Vibrational temperatures:     36.85    69.79    97.75   141.96   156.70
          (Kelvin)            259.33   295.86   297.51   330.31   366.53
                              410.37   465.24   518.90   596.95   605.33
                              632.75   702.73   763.70   799.54   812.63
                              896.10   948.33  1009.28  1098.68  1113.34
                             1171.31  1176.43  1224.53  1272.82  1311.57
                             1368.23  1374.18  1383.82  1423.26  1454.46
                             1517.95  1555.52  1663.85  1684.55  1701.71
                             1708.25  1717.32  1726.66  1731.99  1746.18
                             1779.21  1831.21  1832.89  1862.47  1892.41
                             1985.30  2026.99  2050.44  2065.67  2104.96
                             2157.44  2161.24  2177.98  2188.29  2199.53
                             2205.12  2215.58  2234.11  2246.63  2335.04
                             2403.55  2438.19  4242.22  4265.06  4301.51
                             4348.89  4362.55  4432.57  4515.08  4537.94
                             4555.93  4582.26  4590.11  4608.91  4629.44
                             4643.01

 Zero-point correction=                           0.241233 (Hartree/Particle)
 Thermal correction to Energy=                    0.255005
 Thermal correction to Enthalpy=                  0.255950
 Thermal correction to Gibbs Free Energy=         0.199492
 Sum of electronic and zero-point Energies=           -654.002438
 Sum of electronic and thermal Energies=              -653.988666
 Sum of electronic and thermal Enthalpies=            -653.987722
 Sum of electronic and thermal Free Energies=         -654.044180

                     E (Thermal)             CV                S
                      KCal/Mol        Cal/Mol-Kelvin    Cal/Mol-Kelvin
 Total                  160.018             52.028            118.825
 Electronic               0.000              0.000              0.000
 Translational            0.889              2.981             41.815
 Rotational               0.889              2.981             32.347
 Vibrational            158.241             46.066             44.663
 Vibration     1          0.593              1.985              6.143
 Vibration     2          0.595              1.978              4.877
 Vibration     3          0.598              1.970              4.212
 Vibration     4          0.604              1.950              3.481
 Vibration     5          0.606              1.942              3.288
 Vibration     6          0.629              1.867              2.326
 Vibration     7          0.640              1.832              2.082
 Vibration     8          0.641              1.830              2.072
 Vibration     9          0.652              1.796              1.882
 Vibration    10          0.665              1.755              1.697
 Vibration    11          0.683              1.701              1.502
 Vibration    12          0.708              1.629              1.293
 Vibration    13          0.735              1.553              1.119
 Vibration    14          0.778              1.438              0.909
 Vibration    15          0.783              1.425              0.890
 Vibration    16          0.800              1.383              0.827
 Vibration    17          0.844              1.276              0.688
 Vibration    18          0.886              1.182              0.585
 Vibration    19          0.911              1.127              0.532
 Vibration    20          0.921              1.107              0.514

 Normal termination of Gaussian 09 at Thu Sep 30 23:38:19 2021.
 Gaussian 09:  AM64L-G09RevA.02 11-Jun-2009

 ----------------------------------------------------------------------
 #p TD(NStates=10, Root=1) b3lyp/6-31G* volume pop=NPA density=current
 Geom=AllCheck Guess=Read
 ----------------------------------------------------------------------

 COCc1ccc2c(c1)ccc(c2)OC_conf_0
 ------------------------------
 Redundant internal coordinates taken from checkpoint file:
 C13H14O2_7fea_conf_0.chk
 Charge =  0 Multiplicity = 1

                         Standard orientation:
 ---------------------------------------------------------------------
 Center     Atomic      Atomic             Coordinates (Angstroms)
 Number     Number       Type             X           Y           Z
 ---------------------------------------------------------------------
      1          6           0        5.367558   -1.130587   -0.000028
      2          8           0        3.969547   -0.944773   -0.000587
      3          6           0        3.600446    0.417059    0.000486
      4          6           0        2.096199    0.562078    0.000232
      5          6           0        1.537389    1.871182    0.000135
      6          6           0        0.177961    2.064522   -0.000014
      7          6           0       -0.717250    0.956677   -0.000112
      8          6           0       -0.158093   -0.362976   -0.000006
      9          6           0        1.254446   -0.526176    0.000181
     10          6           0       -1.046997   -1.465727   -0.000108
     11          6           0       -2.415092   -1.291964   -0.000293
     12          6           0       -2.961609    0.017608   -0.000368
     13          6           0       -2.121255    1.117091   -0.000285
     14          8           0       -4.304159    0.280871   -0.000650
     15          6           0       -5.211248   -0.808497    0.000871
     16          1           0        5.549140   -2.208437   -0.000794
     17          1           0        5.837750   -0.689090    0.893739
     18          1           0        5.838651   -0.687664   -0.892614
     19          1           0        4.026010    0.927802   -0.883294
     20          1           0        4.025600    0.926257    0.885358
     21          1           0        2.203149    2.732520    0.000189
     22          1           0       -0.233201    3.071234   -0.000075
     23          1           0        1.674027   -1.526995    0.000253
     24          1           0       -0.633901   -2.471694   -0.000056
     25          1           0       -3.063824   -2.160393   -0.000432
     26          1           0       -2.559283    2.111107   -0.000340
     27          1           0       -6.208959   -0.365103    0.001426
     28          1           0       -5.095695   -1.434428    0.895948
     29          1           0       -5.097287   -1.435646   -0.893566
 ---------------------------------------------------------------------

 SCF Done:  E(RB3LYP) =  -654.243671669     A.U. after    1 cycles

 Excitation energies and oscillator strengths:

 Excited State   1:      Singlet-A      4.0527 eV  305.93 nm  f=0.0525  <S**2>=0.000
      53 -> 55         0.13585
      53 -> 56         0.16649
      54 -> 55         0.65168
      54 -> 56        -0.15996
 This state for optimization and/or second-order correction.
 Total Energy, E(TD-HF/TD-KS) =  -654.094737731
 Copying the excited state density for this state as the 1-particle RhoCI density.

 Excited State   2:      Singlet-A      4.5224 eV  274.15 nm  f=0.0120  <S**2>=0.000
      53 -> 55         0.49410
      54 -> 55        -0.21740
      54 -> 56        -0.45000

 Excited State   3:      Singlet-A      5.5466 eV  223.53 nm  f=0.2048  <S**2>=0.000
      51 -> 55        -0.38758
      52 -> 55         0.30665
      53 -> 55        -0.22147
      54 -> 56        -0.20942
      54 -> 57         0.39355

 Excited State   4:      Singlet-A      5.5655 eV  222.77 nm  f=0.4969  <S**2>=0.000
      51 -> 55         0.14548
      52 -> 55         0.55142
      53 -> 55         0.27750
      54 -> 56         0.29529

 Excited State   5:      Singlet-A      5.7640 eV  215.10 nm  f=0.6129  <S**2>=0.000
      51 -> 55        -0.18891
      52 -> 55        -0.30165
      53 -> 55         0.27399
      53 -> 56         0.14920
      54 -> 56         0.33414
      54 -> 57         0.37758

 Excited State   6:      Singlet-A      5.8780 eV  210.93 nm  f=0.0674  <S**2>=0.000
      50 -> 55         0.15490
      51 -> 55        -0.23554
      51 -> 56         0.16700
      53 -> 56         0.51610
      53 -> 57        -0.13331
      54 -> 55        -0.11046
      54 -> 57        -0.27467

 Excited State   7:      Singlet-A      6.1576 eV  201.35 nm  f=0.2789  <S**2>=0.000
      51 -> 55         0.35593
      51 -> 56        -0.14693
      52 -> 56         0.17756
      53 -> 55        -0.16040
      53 -> 56         0.37273
      53 -> 57         0.27923
      54 -> 56        -0.12902
      54 -> 57         0.19695

 Excited State   8:      Singlet-A      6.4640 eV  191.81 nm  f=0.0458  <S**2>=0.000
      51 -> 55        -0.21748
      52 -> 56         0.60903
      53 -> 57         0.17315
      54 -> 57        -0.17239

 Excited State   9:      Singlet-A      6.4966 eV  190.84 nm  f=0.0413  <S**2>=0.000
      50 -> 55         0.33592
      51 -> 55        -0.19645
      51 -> 56        -0.22193
      52 -> 56        -0.25048
      53 -> 57         0.45726

 Excited State  10:      Singlet-A      6.7059 eV  184.89 nm  f=0.0330  <S**2>=0.000
      50 -> 55         0.50351
      51 -> 55         0.11394
      51 -> 56         0.38328
      52 -> 56         0.13017
      53 -> 56        -0.10404
      54 -> 57         0.19609

 The electronic state is 1-A.
 Alpha  occ. eigenvalues --  -19.17323 -19.15081 -10.24263 -10.23920 -10.23562
 Alpha  occ. eigenvalues --  -10.22917 -10.19025 -10.18807 -10.18773 -10.18692
 Alpha  occ. eigenvalues --  -10.18590 -10.18453 -10.18231 -10.17699 -10.17608
 Alpha  occ. eigenvalues --   -1.05871  -1.03597  -0.86390  -0.81768  -0.76837
 Alpha  occ. eigenvalues --   -0.75680  -0.72332  -0.71288  -0.67845  -0.64803
 Alpha  occ. eigenvalues --   -0.61491  -0.59023  -0.57979  -0.52556  -0.50806
 Alpha  occ. eigenvalues --   -0.50194  -0.48129  -0.47676  -0.46509  -0.46057
 Alpha  occ. eigenvalues --   -0.44532  -0.43762  -0.43102  -0.41097  -0.40834
 Alpha  occ. eigenvalues --   -0.39797  -0.38892  -0.38179  -0.37723  -0.34224
 Alpha  occ. eigenvalues --   -0.34187  -0.33313  -0.32186  -0.31435  -0.29475
 Alpha  occ. eigenvalues --   -0.26787  -0.25704  -0.22467  -0.19445
 Alpha virt. eigenvalues --   -0.02863   0.00498   0.04248   0.09012   0.09739
 Alpha virt. eigenvalues --    0.10528   0.11012   0.12192   0.13468   0.13681
 Alpha virt. eigenvalues --    0.14475   0.14982   0.15707   0.16484   0.16776

 Mulliken atomic charges:
              1
     1  C   -0.189467
     2  O   -0.464252
     3  C   -0.062840
     4  C    0.126720
     5  C   -0.203054
     6  C   -0.212330
     7  C    0.151132
     8  C    0.154870
     9  C   -0.264317
    10  C   -0.216714
    11  C   -0.220217
    12  C    0.387129
    13  C   -0.262635
    14  O   -0.469413
    15  C   -0.223294
    16  H    0.160782
    17  H    0.131518
    18  H    0.131521
    19  H    0.140641
    20  H    0.140655
    21  H    0.103832
    22  H    0.116773
    23  H    0.144871
    24  H    0.126293
    25  H    0.117291
    26  H    0.138376
    27  H    0.176536
    28  H    0.169802
    29  H    0.169790
 Sum of Mulliken atomic charges =  -0.00000

 Dipole moment (field-independent basis, Debye):
    X=             -0.9469    Y=             -0.8178    Z=              0.0032  Tot=              1.2512
 Quadrupole moment (field-independent basis, Debye-Ang):
   XX=            -56.9487   YY=            -83.5278   ZZ=            -91.6457
   XY=              6.4230   XZ=             -0.0030   YZ=             -0.0013

 Summary of Natural Population Analysis:

                                       Natural Population
                Natural  -----------------------------------------------
    Atom  No    Charge         Core      Valence    Rydberg      Total
 -----------------------------------------------------------------------
      C    1   -0.30651      1.99946     4.29276    0.01429     6.30651
      O    2   -0.56894      1.99979     6.55692    0.01223     8.56894
      C    3   -0.10911      1.99921     4.09291    0.01700     6.10911
      C    4    0.01052      1.99902     3.97448    0.01598     5.98948
      C    5   -0.30123      1.99906     4.28686    0.01531     6.30123
      C    6   -0.22827      1.99907     4.21337    0.01583     6.22827
      C    7   -0.05504      1.99903     4.04078    0.01522     6.05504
      C    8   -0.04323      1.99903     4.02900    0.01520     6.04323
      C    9   -0.23788      1.99899     4.22390    0.01500     6.23788
      C   10   -0.20829      1.99908     4.19295    0.01626     6.20829
      C   11   -0.38349      1.99904     4.36957    0.01487     6.38349
      C   12    0.36355      1.99879     3.61516    0.02249     5.63645
      C   13   -0.24655      1.99900     4.23146    0.01609     6.24655
      O   14   -0.45643      1.99975     6.44511    0.01157     8.45643
      C   15   -0.32218      1.99942     4.30883    0.01393     6.32218
      H   16    0.22132      0.00000     0.77806    0.00062     0.77868
      H   17    0.18904      0.00000     0.80889    0.00207     0.81096
      H   18    0.18905      0.00000     0.80889    0.00206     0.81095
      H   19    0.21371      0.00000     0.78379    0.00250     0.78629
      H   20    0.21372      0.00000     0.78378    0.00250     0.78628
      H   21    0.22504      0.00000     0.77396    0.00100     0.77496
      H   22    0.22718      0.00000     0.77171    0.00112     0.77282
      H   23    0.24658      0.00000     0.75186    0.00156     0.75342
      H   24    0.23227      0.00000     0.76662    0.00111     0.76773
      H   25    0.23115      0.00000     0.76800    0.00085     0.76885
      H   26    0.24161      0.00000     0.75679    0.00160     0.75839
      H   27    0.23125      0.00000     0.76821    0.00053     0.76875
      H   28    0.21559      0.00000     0.78250    0.00191     0.78441
      H   29    0.21558      0.00000     0.78252    0.00191     0.78442
 =======================================================================
   * Total *    0.00000     29.98772    77.75965    0.25263   108.00000

 Normal termination of Gaussian 09 at Fri Oct  1 03:22:58 2021.
