 Gaussian 09, Revision A.02,

 -----------------------------------
 #p opt b3lyp/6-31G* scf=(xqc,tight)
 -----------------------------------

 --------------------------------------
 COC(=O)c1ccc(cc1)OC(=O)C(C)(C)C_conf_0
 --------------------------------------
 Symbolic Z-matrix:
 Charge =  0 Multiplicity = 1

 SCF Done:  E(RB3LYP) =  -805.938854672     A.U. after   15 cycles
 SCF Done:  E(RB3LYP) =  -805.945251371     A.U. after   13 cycles
 SCF Done:  E(RB3LYP) =  -805.946167156     A.U. after   13 cycles
 SCF Done:  E(RB3LYP) =  -805.946410528     A.U. after   13 cycles
 SCF Done:  E(RB3LYP) =  -805.946164922     A.U. after   12 cycles
 SCF Done:  E(RB3LYP) =  -805.946959129     A.U. after   12 cycles
 SCF Done:  E(RB3LYP) =  -805.947344740     A.U. after   11 cycles
 SCF Done:  E(RB3LYP) =  -805.947458889     A.U. after   11 cycles
 SCF Done:  E(RB3LYP) =  -805.947465264     A.U. after   10 cycles
 SCF Done:  E(RB3LYP) =  -805.947476450     A.U. after   10 cycles
 SCF Done:  E(RB3LYP) =  -805.947493398     A.U. after   11 cycles
 SCF Done:  E(RB3LYP) =  -805.947496167     A.U. after    9 cycles
 SCF Done:  E(RB3LYP) =  -805.947498826     A.U. after   10 cycles
 SCF Done:  E(RB3LYP) =  -805.947500441     A.U. after    9 cycles
 SCF Done:  E(RB3LYP) =  -805.947501146     A.U. after    9 cycles
 SCF Done:  E(RB3LYP) =  -805.947501263     A.U. after    7 cycles
 SCF Done:  E(RB3LYP) =  -805.947501275     A.U. after    6 cycles
 SCF Done:  E(RB3LYP) =  -805.947501257     A.U. after    6 cycles
 Optimization completed.
    -- Stationary point found.
 Normal termination of Gaussian 09 at Wed Sep 29 05:27:02 2021.

 ----------------------------------------------------------------------
 #p freq b3lyp/6-31G* volume NMR pop=NPA density=current Geom=AllCheck
 Guess=Read
 ----------------------------------------------------------------------

 COC(=O)c1ccc(cc1)OC(=O)C(C)(C)C_conf_0
 --------------------------------------
 Redundant internal coordinates taken from checkpoint file:
 C13H16O4_0910_conf_0.chk
 Charge =  0 Multiplicity = 1

 SCF Done:  E(RB3LYP) =  -805.947501257     A.U. after    1 cycles

  1  C    Isotropic =   139.0599   Anisotropy =    62.6281

  2  O    Isotropic =   167.3769   Anisotropy =   130.6284

  3  C    Isotropic =    32.8528   Anisotropy =    74.6354

  4  O    Isotropic =   -43.9229   Anisotropy =   573.9760

  5  C    Isotropic =    69.2615   Anisotropy =   146.2316

  6  C    Isotropic =    65.4015   Anisotropy =   169.8240

  7  C    Isotropic =    74.0445   Anisotropy =   152.8984

  8  C    Isotropic =    41.5048   Anisotropy =   115.7398

  9  C    Isotropic =    76.3085   Anisotropy =   138.8793

 10  C    Isotropic =    63.1433   Anisotropy =   175.3295

 11  O    Isotropic =   106.1940   Anisotropy =   173.7612

 12  C    Isotropic =    22.9494   Anisotropy =    75.8866

 13  O    Isotropic =   -64.9970   Anisotropy =   577.3959

 14  C    Isotropic =   148.7388   Anisotropy =    24.3180

 15  C    Isotropic =   162.3743   Anisotropy =    37.0732

 16  C    Isotropic =   162.9596   Anisotropy =    31.2408

 17  C    Isotropic =   162.1711   Anisotropy =    38.2663

 18  H    Isotropic =    28.7017   Anisotropy =     7.2984

 19  H    Isotropic =    28.3007   Anisotropy =     8.4216

 20  H    Isotropic =    28.3197   Anisotropy =     8.4552

 21  H    Isotropic =    24.2739   Anisotropy =     8.4465

 22  H    Isotropic =    24.7777   Anisotropy =     9.4559

 23  H    Isotropic =    25.3688   Anisotropy =     7.1543

 24  H    Isotropic =    24.0175   Anisotropy =     7.3498

 25  H    Isotropic =    30.8716   Anisotropy =     8.0607

 26  H    Isotropic =    30.4664   Anisotropy =     6.2802

 27  H    Isotropic =    31.1038   Anisotropy =     7.8383

 28  H    Isotropic =    30.6559   Anisotropy =     8.1653

 29  H    Isotropic =    31.4725   Anisotropy =     7.8014

 30  H    Isotropic =    30.6633   Anisotropy =     7.9220

 31  H    Isotropic =    30.3855   Anisotropy =     7.4800

 32  H    Isotropic =    30.8694   Anisotropy =     7.9857

 33  H    Isotropic =    31.0944   Anisotropy =     7.9264

  Exact polarizability: 222.133   0.749 139.852   1.799  -4.352  88.893
 Approx polarizability: 274.665  -4.396 242.521   6.549  -6.143 133.285

                     1                      2                      3
                     A                      A                      A
 Frequencies --    14.3748                31.4949                42.1546
 Red. masses --     3.6716                 4.6923                 4.5546
 Frc consts  --     0.0004                 0.0027                 0.0048
 IR Inten    --     1.1070                 0.0964                 0.6654

                     4                      5                      6
                     A                      A                      A
 Frequencies --    54.5170                78.0870               103.7346
 Red. masses --     5.1676                 4.6301                 3.1448
 Frc consts  --     0.0090                 0.0166                 0.0199
 IR Inten    --     1.7455                 0.7608                 0.4582

                     7                      8                      9
                     A                      A                      A
 Frequencies --   128.8656               148.6169               168.6169
 Red. masses --     1.2762                 4.1727                 3.8443
 Frc consts  --     0.0125                 0.0543                 0.0644
 IR Inten    --     0.2755                 0.2120                 3.1600

                    10                     11                     12
                     A                      A                      A
 Frequencies --   195.9679               201.0493               230.1282
 Red. masses --     4.9990                 1.1334                 1.6063
 Frc consts  --     0.1131                 0.0270                 0.0501
 IR Inten    --     1.2084                 0.4864                 1.0831

                    13                     14                     15
                     A                      A                      A
 Frequencies --   258.5273               271.8772               279.9144
 Red. masses --     1.1184                 1.7568                 2.1421
 Frc consts  --     0.0440                 0.0765                 0.0989
 IR Inten    --     0.5908                 1.2480                 3.2099

                    16                     17                     18
                     A                      A                      A
 Frequencies --   321.3382               334.5033               355.3691
 Red. masses --     4.1112                 4.0561                 3.4494
 Frc consts  --     0.2501                 0.2674                 0.2567
 IR Inten    --    14.2080                 1.6143                 8.9636

                    19                     20                     21
                     A                      A                      A
 Frequencies --   362.2529               377.9845               405.5403
 Red. masses --     3.6029                 2.6577                 6.1958
 Frc consts  --     0.2786                 0.2237                 0.6004
 IR Inten    --     0.5535                 0.7559                11.2855

                    22                     23                     24
                     A                      A                      A
 Frequencies --   422.8051               461.5030               499.8426
 Red. masses --     3.1110                 3.6508                 5.3102
 Frc consts  --     0.3277                 0.4581                 0.7817
 IR Inten    --     0.0334                 3.0060                 2.2283

                    25                     26                     27
                     A                      A                      A
 Frequencies --   520.0336               585.5049               645.8524
 Red. masses --     3.1800                 3.7536                 7.0323
 Frc consts  --     0.5067                 0.7582                 1.7283
 IR Inten    --     3.0272                 3.0533                 0.8472

                    28                     29                     30
                     A                      A                      A
 Frequencies --   661.1755               697.8766               754.9374
 Red. masses --     6.1894                 4.2401                 6.0625
 Frc consts  --     1.5942                 1.2167                 2.0357
 IR Inten    --     6.3918                12.9977                 3.0255

                    31                     32                     33
                     A                      A                      A
 Frequencies --   767.5927               803.6109               816.5794
 Red. masses --     5.0086                 4.3278                 4.6200
 Frc consts  --     1.7387                 1.6467                 1.8151
 IR Inten    --    28.9229                 0.7456                 3.5539

                    34                     35                     36
                     A                      A                      A
 Frequencies --   841.0959               851.1374               872.6378
 Red. masses --     1.3097                 4.0835                 2.1479
 Frc consts  --     0.5459                 1.7430                 0.9637
 IR Inten    --     0.8609                 7.4270                16.8080

                    37                     38                     39
                     A                      A                      A
 Frequencies --   909.0734               948.5637               956.8908
 Red. masses --     3.4948                 1.7551                 1.6334
 Frc consts  --     1.7016                 0.9304                 0.8812
 IR Inten    --    19.1417                 1.4996                 3.5878

                    40                     41                     42
                     A                      A                      A
 Frequencies --   971.1838               981.7128               985.5717
 Red. masses --     1.3238                 1.1983                 1.3051
 Frc consts  --     0.7356                 0.6804                 0.7469
 IR Inten    --     0.2289                 0.0111                 0.2639

                    43                     44                     45
                     A                      A                      A
 Frequencies --  1004.5480              1038.7731              1058.1620
 Red. masses --     7.2862                 2.6615                 1.4782
 Frc consts  --     4.3320                 1.6920                 0.9752
 IR Inten    --     3.0884                17.8677                58.5276

                    46                     47                     48
                     A                      A                      A
 Frequencies --  1060.5203              1133.5645              1138.6754
 Red. masses --     1.4418                 2.6158                 1.7189
 Frc consts  --     0.9554                 1.9803                 1.3131
 IR Inten    --    10.2926               584.7133               234.7058

                    49                     50                     51
                     A                      A                      A
 Frequencies --  1151.8870              1185.2053              1196.7130
 Red. masses --     3.0470                 1.2724                 1.2761
 Frc consts  --     2.3820                 1.0531                 1.0767
 IR Inten    --    37.9571                 0.8576               179.5879

                    52                     53                     54
                     A                      A                      A
 Frequencies --  1223.7727              1241.5022              1243.1725
 Red. masses --     1.5803                 2.9563                 3.1605
 Frc consts  --     1.3944                 2.6847                 2.8778
 IR Inten    --    47.9798               100.8286               137.9293

                    55                     56                     57
                     A                      A                      A
 Frequencies --  1265.0534              1306.7314              1313.7919
 Red. masses --     2.9376                 3.1164                 5.0227
 Frc consts  --     2.7699                 3.1353                 5.1078
 IR Inten    --    50.2842               147.4516               431.3260

                    58                     59                     60
                     A                      A                      A
 Frequencies --  1335.2898              1363.9900              1422.7659
 Red. masses --     1.3001                10.4933                 1.2068
 Frc consts  --     1.3658                11.5023                 1.4393
 IR Inten    --     1.4591                 1.1738                 3.8412

                    61                     62                     63
                     A                      A                      A
 Frequencies --  1430.4766              1457.8138              1459.1895
 Red. masses --     1.2300                 3.1471                 1.2212
 Frc consts  --     1.4829                 3.9406                 1.5320
 IR Inten    --     4.1628                20.8131                15.4854

                    64                     65                     66
                     A                      A                      A
 Frequencies --  1492.7811              1507.5264              1511.6723
 Red. masses --     1.2123                 1.0482                 1.0485
 Frc consts  --     1.5917                 1.4036                 1.4116
 IR Inten    --    24.3077                 0.0323                 5.7680

                    67                     68                     69
                     A                      A                      A
 Frequencies --  1514.9717              1520.5646              1524.7913
 Red. masses --     1.0451                 1.0455                 1.0486
 Frc consts  --     1.4132                 1.4242                 1.4365
 IR Inten    --     0.1945                 0.0897                 8.5676

                    70                     71                     72
                     A                      A                      A
 Frequencies --  1529.0972              1531.9901              1549.2542
 Red. masses --     1.0490                 1.0540                 1.2131
 Frc consts  --     1.4451                 1.4575                 1.7155
 IR Inten    --     5.9928                 7.4703                58.8547

                    73                     74                     75
                     A                      A                      A
 Frequencies --  1552.9224              1635.8701              1662.1873
 Red. masses --     1.9511                 7.3682                 5.8362
 Frc consts  --     2.7722                11.6174                 9.5004
 IR Inten    --    14.3234                16.3731                97.7213

                    76                     77                     78
                     A                      A                      A
 Frequencies --  1799.9354              1833.6498              3050.9913
 Red. masses --    11.6628                12.6685                 1.0355
 Frc consts  --    22.2621                25.0963                 5.6793
 IR Inten    --   244.9118               175.1104                26.9096

                    79                     80                     81
                     A                      A                      A
 Frequencies --  3053.3652              3062.2434              3074.5869
 Red. masses --     1.0361                 1.0365                 1.0295
 Frc consts  --     5.6911                 5.7265                 5.7338
 IR Inten    --    10.8687                26.6139                41.0330

                    82                     83                     84
                     A                      A                      A
 Frequencies --  3115.0573              3117.1064              3130.0213
 Red. masses --     1.1032                 1.1024                 1.1018
 Frc consts  --     6.3073                 6.3110                 6.3600
 IR Inten    --    11.4710                23.4519                38.9207

                    85                     86                     87
                     A                      A                      A
 Frequencies --  3139.2390              3140.4390              3143.7030
 Red. masses --     1.1025                 1.1022                 1.1011
 Frc consts  --     6.4017                 6.4047                 6.4118
 IR Inten    --     4.2281                19.6920                43.5406

                    88                     89                     90
                     A                      A                      A
 Frequencies --  3148.8802              3180.3658              3215.7757
 Red. masses --     1.1075                 1.1071                 1.0891
 Frc consts  --     6.4700                 6.5976                 6.6355
 IR Inten    --    21.5105                17.6420                 3.7277

                    91                     92                     93
                     A                      A                      A
 Frequencies --  3232.3823              3233.3100              3259.6487
 Red. masses --     1.0934                 1.0903                 1.0936
 Frc consts  --     6.7310                 6.7157                 6.8463
 IR Inten    --     3.8715                 0.6000                 1.7884

 - Thermochemistry -
 -------------------
 Temperature   298.150 Kelvin.  Pressure   1.00000 Atm.
 Atom     1 has atomic number  6 and mass  12.00000

 Molecular mass:   236.10486 amu.
 Principal axes and moments of inertia in atomic units:
                           1         2         3
     Eigenvalues --  1135.70724********************
           X            0.99997   0.00738   0.00131
           Y           -0.00735   0.99979  -0.01928
           Z           -0.00146   0.01927   0.99981
 This molecule is an asymmetric top.
 Rotational symmetry number  1.
 Warning -- assumption of classical behavior for rotation
           may cause significant error
 Rotational temperatures (Kelvin)      0.07626     0.00821     0.00777
 Rotational constants (GHZ):           1.58909     0.17097     0.16191
 Zero-point vibrational energy     710677.6 (Joules/Mol)
                                  169.85603 (Kcal/Mol)
 Warning -- explicit consideration of  26 degrees of freedom as
           vibrations may cause significant error
 Vibrational temperatures:     20.68    45.31    60.65    78.44   112.35
          (Kelvin)            149.25   185.41   213.83   242.60   281.95
                              289.26   331.10   371.96   391.17   402.73
                              462.33   481.28   511.30   521.20   543.83
                              583.48   608.32   664.00   719.16   748.21
                              842.41   929.24   951.28  1004.09  1086.19
                             1104.39  1156.22  1174.87  1210.15  1224.60
                             1255.53  1307.95  1364.77  1376.75  1397.32
                             1412.46  1418.02  1445.32  1494.56  1522.46
                             1525.85  1630.94  1638.30  1657.31  1705.24
                             1721.80  1760.73  1786.24  1788.65  1820.13
                             1880.09  1890.25  1921.18  1962.47  2047.04
                             2058.13  2097.47  2099.45  2147.78  2168.99
                             2174.96  2179.70  2187.75  2193.83  2200.03
                             2204.19  2229.03  2234.31  2353.65  2391.51
                             2589.70  2638.21  4389.69  4393.11  4405.88
                             4423.64  4481.87  4484.82  4503.40  4516.66
                             4518.39  4523.08  4530.53  4575.83  4626.78
                             4650.67  4652.01  4689.90

 Zero-point correction=                           0.270683 (Hartree/Particle)
 Thermal correction to Energy=                    0.288257
 Thermal correction to Enthalpy=                  0.289201
 Thermal correction to Gibbs Free Energy=         0.223160
 Sum of electronic and zero-point Energies=           -805.676818
 Sum of electronic and thermal Energies=              -805.659244
 Sum of electronic and thermal Enthalpies=            -805.658300
 Sum of electronic and thermal Free Energies=         -805.724341

                     E (Thermal)             CV                S
                      KCal/Mol        Cal/Mol-Kelvin    Cal/Mol-Kelvin
 Total                  180.884             64.347            138.996
 Electronic               0.000              0.000              0.000
 Translational            0.889              2.981             42.279
 Rotational               0.889              2.981             33.257
 Vibrational            179.107             58.385             63.459
 Vibration     1          0.593              1.986              7.290
 Vibration     2          0.594              1.983              5.733
 Vibration     3          0.595              1.980              5.155
 Vibration     4          0.596              1.976              4.646
 Vibration     5          0.599              1.964              3.938
 Vibration     6          0.605              1.946              3.383
 Vibration     7          0.611              1.924              2.963
 Vibration     8          0.618              1.904              2.690
 Vibration     9          0.625              1.881              2.451
 Vibration    10          0.636              1.846              2.171
 Vibration    11          0.638              1.838              2.123
 Vibration    12          0.652              1.795              1.878
 Vibration    13          0.667              1.748              1.672
 Vibration    14          0.675              1.725              1.584
 Vibration    15          0.680              1.711              1.534
 Vibration    16          0.707              1.633              1.303
 Vibration    17          0.716              1.607              1.238
 Vibration    18          0.731              1.564              1.142
 Vibration    19          0.736              1.550              1.112
 Vibration    20          0.748              1.517              1.047
 Vibration    21          0.771              1.458              0.943
 Vibration    22          0.785              1.421              0.882
 Vibration    23          0.819              1.335              0.762
 Vibration    24          0.855              1.250              0.659
 Vibration    25          0.875              1.206              0.610
 Vibration    26          0.943              1.063              0.475

 Normal termination of Gaussian 09 at Wed Sep 29 06:37:50 2021.
 Gaussian 09:  AM64L-G09RevA.02 11-Jun-2009

 ----------------------------------------------------------------------
 #p TD(NStates=10, Root=1) b3lyp/6-31G* volume pop=NPA density=current
 Geom=AllCheck Guess=Read
 ----------------------------------------------------------------------

 COC(=O)c1ccc(cc1)OC(=O)C(C)(C)C_conf_0
 --------------------------------------
 Redundant internal coordinates taken from checkpoint file:
 C13H16O4_0910_conf_0.chk
 Charge =  0 Multiplicity = 1

                         Standard orientation:
 ---------------------------------------------------------------------
 Center     Atomic      Atomic             Coordinates (Angstroms)
 Number     Number       Type             X           Y           Z
 ---------------------------------------------------------------------
      1          6           0       -5.926465   -0.984346    0.029062
      2          8           0       -4.493678   -0.940285    0.099462
      3          6           0       -3.946026    0.287865   -0.058191
      4          8           0       -4.609459    1.289661   -0.245030
      5          6           0       -2.460366    0.263251    0.023716
      6          6           0       -1.734720   -0.914658    0.248490
      7          6           0       -0.344199   -0.891933    0.319468
      8          6           0        0.320330    0.326033    0.157408
      9          6           0       -0.387150    1.509578   -0.063226
     10          6           0       -1.774612    1.475926   -0.129077
     11          8           0        1.697934    0.465435    0.286263
     12          6           0        2.576331   -0.437324   -0.270416
     13          8           0        2.227069   -1.397347   -0.911697
     14          6           0        4.021554   -0.035197    0.037853
     15          6           0        4.217988    0.008129    1.570151
     16          6           0        4.961306   -1.077093   -0.589386
     17          6           0        4.297458    1.361398   -0.564227
     18          1           0       -6.193726   -2.032037    0.170824
     19          1           0       -6.274840   -0.626498   -0.943496
     20          1           0       -6.369453   -0.364620    0.813349
     21          1           0       -2.263122   -1.853258    0.370282
     22          1           0        0.213781   -1.803480    0.486615
     23          1           0        0.161389    2.439022   -0.176998
     24          1           0       -2.346614    2.381742   -0.299558
     25          1           0        4.017826   -0.969171    2.024465
     26          1           0        3.560194    0.745974    2.037657
     27          1           0        5.255508    0.277636    1.798159
     28          1           0        4.774746   -2.075861   -0.183240
     29          1           0        6.002801   -0.807561   -0.381666
     30          1           0        4.826984   -1.130931   -1.673827
     31          1           0        3.643271    2.121335   -0.128081
     32          1           0        4.150929    1.361374   -1.650453
     33          1           0        5.336819    1.646848   -0.365766
 ---------------------------------------------------------------------

 SCF Done:  E(RB3LYP) =  -805.947501257     A.U. after    2 cycles

 Excitation energies and oscillator strengths:

 Excited State   1:      Singlet-A      4.8523 eV  255.52 nm  f=0.0006  <S**2>=0.000
      61 -> 64         0.67967
      61 -> 66         0.11467
      61 -> 67         0.11539
 This state for optimization and/or second-order correction.
 Total Energy, E(TD-HF/TD-KS) =  -805.769182843
 Copying the excited state density for this state as the 1-particle RhoCI density.

 Excited State   2:      Singlet-A      4.9728 eV  249.32 nm  f=0.0070  <S**2>=0.000
      62 -> 64         0.60066
      63 -> 65        -0.35521

 Excited State   3:      Singlet-A      5.1508 eV  240.71 nm  f=0.4790  <S**2>=0.000
      62 -> 65         0.14251
      63 -> 64         0.67944

 Excited State   4:      Singlet-A      5.3340 eV  232.44 nm  f=0.0033  <S**2>=0.000
      60 -> 64         0.56741
      60 -> 66        -0.32002
      62 -> 66        -0.17638
      63 -> 65         0.15897

 Excited State   5:      Singlet-A      5.9817 eV  207.27 nm  f=0.0009  <S**2>=0.000
      60 -> 64         0.31403
      60 -> 66         0.39364
      62 -> 64         0.10366
      62 -> 66         0.28259
      63 -> 66        -0.34533

 Excited State   6:      Singlet-A      6.0874 eV  203.67 nm  f=0.0032  <S**2>=0.000
      60 -> 64         0.19698
      60 -> 66         0.19519
      62 -> 66         0.23766
      63 -> 65        -0.13906
      63 -> 66         0.55862

 Excited State   7:      Singlet-A      6.2792 eV  197.45 nm  f=0.0348  <S**2>=0.000
      59 -> 64        -0.26066
      60 -> 64         0.10538
      61 -> 65         0.45086
      62 -> 64        -0.22331
      63 -> 65        -0.34862
      63 -> 66        -0.15336

 Excited State   8:      Singlet-A      6.2906 eV  197.10 nm  f=0.0309  <S**2>=0.000
      59 -> 64         0.23945
      61 -> 65         0.53237
      62 -> 64         0.18396
      63 -> 65         0.27275
      63 -> 66         0.14120

 Excited State   9:      Singlet-A      6.4508 eV  192.20 nm  f=0.1081  <S**2>=0.000
      59 -> 64         0.48220
      60 -> 65         0.26415
      60 -> 66        -0.12532
      62 -> 64        -0.12846
      62 -> 65         0.17681
      62 -> 66         0.24993
      63 -> 65        -0.21801

 Excited State  10:      Singlet-A      6.4899 eV  191.04 nm  f=0.1384  <S**2>=0.000
      59 -> 64        -0.25964
      60 -> 65         0.49899
      60 -> 66         0.15721
      62 -> 65         0.34618
      63 -> 65         0.10061

 The electronic state is 1-A.
 Alpha  occ. eigenvalues --  -19.20931 -19.19177 -19.14910 -19.13203 -10.32491
 Alpha  occ. eigenvalues --  -10.31375 -10.26534 -10.24002 -10.22017 -10.20582
 Alpha  occ. eigenvalues --  -10.20432 -10.20285 -10.20115 -10.20047 -10.18761
 Alpha  occ. eigenvalues --  -10.18760 -10.17928  -1.11541  -1.09972  -1.03336
 Alpha  occ. eigenvalues --   -1.01001  -0.86869  -0.83015  -0.77796  -0.75991
 Alpha  occ. eigenvalues --   -0.72670  -0.69718  -0.69281  -0.67253  -0.62603
 Alpha  occ. eigenvalues --   -0.60990  -0.57327  -0.55991  -0.52942  -0.49987
 Alpha  occ. eigenvalues --   -0.49063  -0.48343  -0.47971  -0.46841  -0.45572
 Alpha  occ. eigenvalues --   -0.44871  -0.44391  -0.43920  -0.43465  -0.43044
 Alpha  occ. eigenvalues --   -0.41063  -0.40324  -0.39597  -0.39101  -0.38845
 Alpha  occ. eigenvalues --   -0.37400  -0.37083  -0.36566  -0.35695  -0.35135
 Alpha  occ. eigenvalues --   -0.34045  -0.33973  -0.32584  -0.30075  -0.27950
 Alpha  occ. eigenvalues --   -0.27262  -0.26093  -0.24843
 Alpha virt. eigenvalues --   -0.04601  -0.01042   0.00102   0.06251   0.07832
 Alpha virt. eigenvalues --    0.09149   0.11598   0.12174   0.13046   0.13155
 Alpha virt. eigenvalues --    0.14672   0.14813   0.15166   0.15588   0.15921

 Mulliken atomic charges:
              1
     1  C   -0.242214
     2  O   -0.428927
     3  C    0.568264
     4  O   -0.293301
     5  C    0.065110
     6  C   -0.205324
     7  C   -0.142835
     8  C    0.318188
     9  C   -0.175212
    10  C   -0.201052
    11  O   -0.536280
    12  C    0.630336
    13  O   -0.470605
    14  C   -0.005748
    15  C   -0.450241
    16  C   -0.433228
    17  C   -0.449807
    18  H    0.190253
    19  H    0.180734
    20  H    0.180089
    21  H    0.135396
    22  H    0.151374
    23  H    0.130909
    24  H    0.128236
    25  H    0.148007
    26  H    0.165298
    27  H    0.143715
    28  H    0.153004
    29  H    0.133793
    30  H    0.155520
    31  H    0.161822
    32  H    0.150597
    33  H    0.144130
 Sum of Mulliken atomic charges =  -0.00000

 Dipole moment (field-independent basis, Debye):
    X=             -4.0431    Y=              0.2903    Z=              0.9539  Tot=              4.1643
 Quadrupole moment (field-independent basis, Debye-Ang):
   XX=            -61.3181   YY=            -98.9149   ZZ=           -102.4636
   XY=              9.7629   XZ=              2.1481   YZ=             -3.5656

 Summary of Natural Population Analysis:

                                       Natural Population
                Natural  -----------------------------------------------
    Atom  No    Charge         Core      Valence    Rydberg      Total
 -----------------------------------------------------------------------
      C    1   -0.32783      1.99943     4.31419    0.01421     6.32783
      O    2   -0.47548      1.99977     6.46507    0.01065     8.47548
      C    3    0.67610      1.99931     3.28661    0.03798     5.32390
      O    4   -0.24715      1.99981     6.22886    0.01848     8.24715
      C    5   -0.21958      1.99888     4.20459    0.01611     6.21958
      C    6   -0.23196      1.99905     4.21857    0.01434     6.23196
      C    7   -0.25926      1.99901     4.24655    0.01370     6.25926
      C    8    0.24878      1.99872     3.73021    0.02228     5.75122
      C    9   -0.25859      1.99903     4.24532    0.01424     6.25859
      C   10   -0.23658      1.99906     4.22377    0.01375     6.23658
      O   11   -0.54843      1.99969     6.53764    0.01110     8.54843
      C   12    0.83919      1.99928     3.11264    0.04889     5.16081
      O   13   -0.58656      1.99977     6.56684    0.01994     8.58656
      C   14   -0.15080      1.99905     4.13938    0.01237     6.15080
      C   15   -0.66865      1.99938     4.65955    0.00972     6.66865
      C   16   -0.66927      1.99940     4.65883    0.01105     6.66927
      C   17   -0.66794      1.99938     4.65884    0.00972     6.66794
      H   18    0.23707      0.00000     0.76260    0.00033     0.76293
      H   19    0.21833      0.00000     0.78036    0.00130     0.78167
      H   20    0.21800      0.00000     0.78069    0.00131     0.78200
      H   21    0.24381      0.00000     0.75535    0.00085     0.75619
      H   22    0.25712      0.00000     0.74183    0.00105     0.74288
      H   23    0.24356      0.00000     0.75526    0.00118     0.75644
      H   24    0.23300      0.00000     0.76657    0.00043     0.76700
      H   25    0.23432      0.00000     0.76475    0.00093     0.76568
      H   26    0.24515      0.00000     0.75376    0.00109     0.75485
      H   27    0.23168      0.00000     0.76718    0.00114     0.76832
      H   28    0.24117      0.00000     0.75777    0.00106     0.75883
      H   29    0.22775      0.00000     0.77131    0.00094     0.77225
      H   30    0.24260      0.00000     0.75633    0.00107     0.75740
      H   31    0.24300      0.00000     0.75582    0.00118     0.75700
      H   32    0.23563      0.00000     0.76345    0.00091     0.76437
      H   33    0.23183      0.00000     0.76710    0.00108     0.76817
 =======================================================================
   * Total *   -0.00000     33.98802    91.69758    0.31440   126.00000

 Normal termination of Gaussian 09 at Wed Sep 29 12:19:18 2021.
