 Gaussian 09, Revision A.02,

 -----------------------------------
 #p opt b3lyp/6-31G* scf=(xqc,tight)
 -----------------------------------

 -----------------------------------
 CCN(C(=O)Oc1cccc(c1)N(C)C)CC_conf_0
 -----------------------------------
 Symbolic Z-matrix:
 Charge =  0 Multiplicity = 1

 SCF Done:  E(RB3LYP) =  -767.383664351     A.U. after   15 cycles
 SCF Done:  E(RB3LYP) =  -767.390181153     A.U. after   13 cycles
 SCF Done:  E(RB3LYP) =  -767.391358878     A.U. after   14 cycles
 SCF Done:  E(RB3LYP) =  -767.391923047     A.U. after   12 cycles
 SCF Done:  E(RB3LYP) =  -767.392734028     A.U. after   12 cycles
 SCF Done:  E(RB3LYP) =  -767.393036821     A.U. after   12 cycles
 SCF Done:  E(RB3LYP) =  -767.393212702     A.U. after   15 cycles
 SCF Done:  E(RB3LYP) =  -767.393277518     A.U. after   11 cycles
 SCF Done:  E(RB3LYP) =  -767.393316920     A.U. after   11 cycles
 SCF Done:  E(RB3LYP) =  -767.393334943     A.U. after   11 cycles
 SCF Done:  E(RB3LYP) =  -767.393338846     A.U. after    8 cycles
 SCF Done:  E(RB3LYP) =  -767.393341618     A.U. after    8 cycles
 SCF Done:  E(RB3LYP) =  -767.393343475     A.U. after    9 cycles
 SCF Done:  E(RB3LYP) =  -767.393344085     A.U. after    8 cycles
 SCF Done:  E(RB3LYP) =  -767.393344316     A.U. after    7 cycles
 SCF Done:  E(RB3LYP) =  -767.393344405     A.U. after    7 cycles
 Optimization completed.
    -- Stationary point found.
 Normal termination of Gaussian 09 at Thu Sep 30 02:41:43 2021.

 ----------------------------------------------------------------------
 #p freq b3lyp/6-31G* volume NMR pop=NPA density=current Geom=AllCheck
 Guess=Read
 ----------------------------------------------------------------------

 CCN(C(=O)Oc1cccc(c1)N(C)C)CC_conf_0
 -----------------------------------
 Redundant internal coordinates taken from checkpoint file:
 C13H20N2O2_0fc4_conf_0.chk
 Charge =  0 Multiplicity = 1

 SCF Done:  E(RB3LYP) =  -767.393344405     A.U. after    1 cycles

  1  C    Isotropic =   175.5417   Anisotropy =    21.4728

  2  C    Isotropic =   146.6182   Anisotropy =    42.8228

  3  N    Isotropic =   159.2347   Anisotropy =    69.1817

  4  C    Isotropic =    46.7543   Anisotropy =    77.1526

  5  O    Isotropic =    63.3238   Anisotropy =   382.6624

  6  O    Isotropic =   142.8287   Anisotropy =   117.5506

  7  C    Isotropic =    43.7656   Anisotropy =   106.7466

  8  C    Isotropic =    83.9049   Anisotropy =   138.4105

  9  C    Isotropic =    67.2847   Anisotropy =   161.2792

 10  C    Isotropic =    87.9561   Anisotropy =   135.6348

 11  C    Isotropic =    49.5304   Anisotropy =   147.4367

 12  C    Isotropic =    91.7564   Anisotropy =   113.4582

 13  N    Isotropic =   204.1202   Anisotropy =    83.4463

 14  C    Isotropic =   149.9640   Anisotropy =    51.6884

 15  C    Isotropic =   149.8297   Anisotropy =    52.8108

 16  C    Isotropic =   147.4099   Anisotropy =    40.6114

 17  C    Isotropic =   174.7536   Anisotropy =    22.1532

 18  H    Isotropic =    31.4541   Anisotropy =    10.7233

 19  H    Isotropic =    31.1471   Anisotropy =     6.9278

 20  H    Isotropic =    30.7550   Anisotropy =     6.4246

 21  H    Isotropic =    29.5452   Anisotropy =     6.6165

 22  H    Isotropic =    28.3132   Anisotropy =     6.1636

 23  H    Isotropic =    25.4606   Anisotropy =     8.2066

 24  H    Isotropic =    25.1914   Anisotropy =     4.6403

 25  H    Isotropic =    26.0644   Anisotropy =     7.9275

 26  H    Isotropic =    26.3272   Anisotropy =    11.3099

 27  H    Isotropic =    29.0000   Anisotropy =     8.3398

 28  H    Isotropic =    29.3585   Anisotropy =     8.5605

 29  H    Isotropic =    29.7151   Anisotropy =     7.8939

 30  H    Isotropic =    28.9371   Anisotropy =     9.1973

 31  H    Isotropic =    29.7120   Anisotropy =     8.2096

 32  H    Isotropic =    29.3369   Anisotropy =     9.2425

 33  H    Isotropic =    28.3817   Anisotropy =     5.9043

 34  H    Isotropic =    29.3821   Anisotropy =     6.3312

 35  H    Isotropic =    30.7682   Anisotropy =     5.8493

 36  H    Isotropic =    31.4138   Anisotropy =    10.2832

 37  H    Isotropic =    31.0229   Anisotropy =     7.4023

  Exact polarizability: 217.342  -2.854 157.608   3.184 -10.695 107.028
 Approx polarizability: 277.468  -3.070 251.040  10.948 -21.565 153.170

                     1                      2                      3
                     A                      A                      A
 Frequencies --    20.5104                33.6806                49.3360
 Red. masses --     3.8285                 3.5781                 3.5185
 Frc consts  --     0.0009                 0.0024                 0.0050
 IR Inten    --     0.1722                 1.1131                 0.9036

                     4                      5                      6
                     A                      A                      A
 Frequencies --    57.4594                65.3417                96.1348
 Red. masses --     2.7139                 2.6958                 4.4391
 Frc consts  --     0.0053                 0.0068                 0.0242
 IR Inten    --     0.2673                 0.0823                 0.6523

                     7                      8                      9
                     A                      A                      A
 Frequencies --   104.5586               109.6853               116.9911
 Red. masses --     2.9580                 3.3460                 4.1927
 Frc consts  --     0.0191                 0.0237                 0.0338
 IR Inten    --     6.1986                 4.6002                 0.3211

                    10                     11                     12
                     A                      A                      A
 Frequencies --   160.0156               184.3406               220.6919
 Red. masses --     1.3729                 1.7549                 1.8702
 Frc consts  --     0.0207                 0.0351                 0.0537
 IR Inten    --     1.3456                 0.4619                 0.9846

                    13                     14                     15
                     A                      A                      A
 Frequencies --   232.6356               240.0904               261.5091
 Red. masses --     1.1205                 1.7250                 3.5718
 Frc consts  --     0.0357                 0.0586                 0.1439
 IR Inten    --     0.1811                 1.9507                 0.6218

                    16                     17                     18
                     A                      A                      A
 Frequencies --   270.4167               285.2637               328.4879
 Red. masses --     1.6310                 2.7107                 2.7097
 Frc consts  --     0.0703                 0.1300                 0.1723
 IR Inten    --     1.7256                 3.7282                 2.0275

                    19                     20                     21
                     A                      A                      A
 Frequencies --   347.4721               385.3443               415.2456
 Red. masses --     2.9381                 3.0522                 3.2093
 Frc consts  --     0.2090                 0.2670                 0.3260
 IR Inten    --     4.9211                11.0840                 4.1018

                    22                     23                     24
                     A                      A                      A
 Frequencies --   442.6650               467.8066               499.7611
 Red. masses --     3.0612                 3.1995                 3.4133
 Frc consts  --     0.3534                 0.4125                 0.5023
 IR Inten    --     5.0842                 1.3124                 3.2492

                    25                     26                     27
                     A                      A                      A
 Frequencies --   513.3268               555.5528               606.9935
 Red. masses --     3.6273                 3.4107                 4.4815
 Frc consts  --     0.5631                 0.6202                 0.9728
 IR Inten    --     2.5624                 0.3029                 4.1084

                    28                     29                     30
                     A                      A                      A
 Frequencies --   618.7456               656.3911               696.1122
 Red. masses --     5.1501                 4.4561                 2.1180
 Frc consts  --     1.1617                 1.1312                 0.6047
 IR Inten    --     4.5349                 0.5416                 7.6762

                    31                     32                     33
                     A                      A                      A
 Frequencies --   736.8822               745.6044               768.3056
 Red. masses --     5.3821                 8.7309                 1.4721
 Frc consts  --     1.7219                 2.8597                 0.5120
 IR Inten    --     1.4269                15.8706                36.6269

                    34                     35                     36
                     A                      A                      A
 Frequencies --   790.9814               793.4961               824.5368
 Red. masses --     1.3616                 1.1744                 2.0357
 Frc consts  --     0.5019                 0.4357                 0.8154
 IR Inten    --    12.4439                 3.3111                 3.5460

                    37                     38                     39
                     A                      A                      A
 Frequencies --   847.2413               869.6553               888.4294
 Red. masses --     1.6431                 1.9298                 3.9430
 Frc consts  --     0.6949                 0.8599                 1.8337
 IR Inten    --    15.9092                11.5884                 2.5628

                    40                     41                     42
                     A                      A                      A
 Frequencies --   953.4934               957.8540               970.3298
 Red. masses --     2.3056                 1.2569                 2.7478
 Frc consts  --     1.2350                 0.6794                 1.5243
 IR Inten    --     2.3403                 0.2657                15.4043

                    43                     44                     45
                     A                      A                      A
 Frequencies --  1002.6073              1024.8851              1072.0337
 Red. masses --     3.7359                 3.3032                 2.6537
 Frc consts  --     2.2127                 2.0442                 1.7969
 IR Inten    --     5.7349                85.5662                49.7403

                    46                     47                     48
                     A                      A                      A
 Frequencies --  1091.4053              1103.6762              1117.1641
 Red. masses --     1.5356                 1.9195                 1.7817
 Frc consts  --     1.0777                 1.3776                 1.3101
 IR Inten    --    22.0816                16.1109                11.8356

                    49                     50                     51
                     A                      A                      A
 Frequencies --  1126.0883              1127.0990              1152.5709
 Red. masses --     1.6359                 1.7102                 1.2338
 Frc consts  --     1.2222                 1.2801                 0.9657
 IR Inten    --     1.8571                28.7512                 2.6632

                    52                     53                     54
                     A                      A                      A
 Frequencies --  1156.0873              1183.5463              1196.7256
 Red. masses --     1.3593                 1.7291                 2.2190
 Frc consts  --     1.0704                 1.4270                 1.8724
 IR Inten    --    55.9064                 5.9020               425.7883

                    55                     56                     57
                     A                      A                      A
 Frequencies --  1210.1309              1247.4172              1264.0313
 Red. masses --     1.1942                 2.4796                 2.6422
 Frc consts  --     1.0303                 2.2733                 2.4873
 IR Inten    --    50.8436               285.4675                14.6046

                    58                     59                     60
                     A                      A                      A
 Frequencies --  1283.8517              1310.3104              1347.5659
 Red. masses --     3.0087                 1.5878                 1.7225
 Frc consts  --     2.9219                 1.6062                 1.8430
 IR Inten    --   153.0970               268.1350                 2.7885

                    61                     62                     63
                     A                      A                      A
 Frequencies --  1358.6909              1371.2673              1391.5180
 Red. masses --     1.3125                 5.3453                 3.0564
 Frc consts  --     1.4276                 5.9220                 3.4869
 IR Inten    --    21.9407                19.0950                83.7399

                    64                     65                     66
                     A                      A                      A
 Frequencies --  1400.3115              1420.8286              1437.0096
 Red. masses --     1.2873                 1.2833                 1.3040
 Frc consts  --     1.4872                 1.5263                 1.5865
 IR Inten    --    20.5614                10.6892                16.5753

                    67                     68                     69
                     A                      A                      A
 Frequencies --  1438.6083              1459.8882              1471.3589
 Red. masses --     1.2595                 2.0067                 1.1979
 Frc consts  --     1.5358                 2.5198                 1.5280
 IR Inten    --    23.9628               300.4887                 3.8321

                    70                     71                     72
                     A                      A                      A
 Frequencies --  1497.4110              1505.5552              1511.7502
 Red. masses --     1.9795                 1.0736                 1.0683
 Frc consts  --     2.6151                 1.4338                 1.4385
 IR Inten    --    21.7281                 5.3007                 9.3697

                    73                     74                     75
                     A                      A                      A
 Frequencies --  1515.2962              1519.0129              1521.3452
 Red. masses --     1.3376                 1.1058                 1.0449
 Frc consts  --     1.8096                 1.5034                 1.4248
 IR Inten    --    20.6446                19.4333                 2.8685

                    76                     77                     78
                     A                      A                      A
 Frequencies --  1523.7463              1527.8452              1533.7492
 Red. masses --     1.0761                 1.1036                 1.0596
 Frc consts  --     1.4721                 1.5179                 1.4686
 IR Inten    --     0.8978                37.8308                 7.8511

                    79                     80                     81
                     A                      A                      A
 Frequencies --  1537.6155              1544.7801              1553.6652
 Red. masses --     1.1143                 1.1276                 1.8581
 Frc consts  --     1.5522                 1.5854                 2.6426
 IR Inten    --    34.6434                 4.9465                35.3747

                    82                     83                     84
                     A                      A                      A
 Frequencies --  1561.5146              1630.6997              1674.3658
 Red. masses --     1.1588                 5.7656                 6.0112
 Frc consts  --     1.6647                 9.0332                 9.9292
 IR Inten    --   112.0355                51.0495               204.5249

                    85                     86                     87
                     A                      A                      A
 Frequencies --  1809.6498              2988.8123              2997.3686
 Red. masses --    11.3178                 1.0526                 1.0570
 Frc consts  --    21.8374                 5.5402                 5.5950
 IR Inten    --   368.9366                73.2960                90.1979

                    88                     89                     90
                     A                      A                      A
 Frequencies --  3051.3961              3052.5997              3060.0220
 Red. masses --     1.0364                 1.0362                 1.0681
 Frc consts  --     5.6855                 5.6891                 5.8927
 IR Inten    --    18.8813                19.5274                31.1430

                    91                     92                     93
                     A                      A                      A
 Frequencies --  3070.1360              3073.3028              3076.1137
 Red. masses --     1.0686                 1.0854                 1.0861
 Frc consts  --     5.9346                 6.0399                 6.0549
 IR Inten    --    40.6309                26.7979                46.2644

                    94                     95                     96
                     A                      A                      A
 Frequencies --  3111.8653              3114.0556              3132.9530
 Red. masses --     1.1018                 1.1020                 1.0973
 Frc consts  --     6.2864                 6.2961                 6.3458
 IR Inten    --    18.9182                21.7833                20.4303

                    97                     98                     99
                     A                      A                      A
 Frequencies --  3133.7172              3136.6621              3145.5261
 Red. masses --     1.0974                 1.0989                 1.1018
 Frc consts  --     6.3495                 6.3698                 6.4231
 IR Inten    --    21.1656                 3.1811                18.2235

                   100                    101                    102
                     A                      A                      A
 Frequencies --  3146.8940              3148.3028              3190.0495
 Red. masses --     1.1025                 1.0960                 1.0889
 Frc consts  --     6.4330                 6.4004                 6.5289
 IR Inten    --    43.3200                44.9637                18.1848

                   103                    104                    105
                     A                      A                      A
 Frequencies --  3234.4008              3244.7999              3259.5145
 Red. masses --     1.0905                 1.0894                 1.0932
 Frc consts  --     6.7214                 6.7582                 6.8432
 IR Inten    --    16.3732                 4.4746                 1.0064

 - Thermochemistry -
 -------------------
 Temperature   298.150 Kelvin.  Pressure   1.00000 Atm.
 Atom     1 has atomic number  6 and mass  12.00000

 Molecular mass:   236.15248 amu.
 Principal axes and moments of inertia in atomic units:
                           1         2         3
     Eigenvalues --  1940.278778711.822059343.71128
           X            1.00000   0.00054   0.00089
           Y           -0.00054   1.00000  -0.00302
           Z           -0.00089   0.00302   1.00000
 This molecule is an asymmetric top.
 Rotational symmetry number  1.
 Warning -- assumption of classical behavior for rotation
           may cause significant error
 Rotational temperatures (Kelvin)      0.04464     0.00994     0.00927
 Rotational constants (GHZ):           0.93015     0.20716     0.19315
 Zero-point vibrational energy     839135.8 (Joules/Mol)
                                  200.55826 (Kcal/Mol)
 Warning -- explicit consideration of  28 degrees of freedom as
           vibrations may cause significant error
 Vibrational temperatures:     29.51    48.46    70.98    82.67    94.01
          (Kelvin)            138.32   150.44   157.81   168.32   230.23
                              265.22   317.53   334.71   345.44   376.25
                              389.07   410.43   472.62   499.93   554.42
                              597.45   636.90   673.07   719.04   738.56
                              799.32   873.33   890.24   944.40  1001.55
                             1060.21  1072.76  1105.42  1138.04  1141.66
                             1186.32  1218.99  1251.24  1278.25  1371.86
                             1378.14  1396.09  1442.53  1474.58  1542.42
                             1570.29  1587.94  1607.35  1620.19  1621.64
                             1658.29  1663.35  1702.86  1721.82  1741.11
                             1794.75  1818.66  1847.17  1885.24  1938.84
                             1954.85  1972.95  2002.08  2014.73  2044.25
                             2067.53  2069.83  2100.45  2116.95  2154.44
                             2166.16  2175.07  2180.17  2185.52  2188.87
                             2192.33  2198.23  2206.72  2212.28  2222.59
                             2235.37  2246.67  2346.21  2409.04  2603.68
                             4300.23  4312.54  4390.27  4392.00  4402.68
                             4417.24  4421.79  4425.84  4477.27  4480.43
                             4507.62  4508.71  4512.95  4525.70  4527.67
                             4529.70  4589.76  4653.58  4668.54  4689.71

 Zero-point correction=                           0.319610 (Hartree/Particle)
 Thermal correction to Energy=                    0.338061
 Thermal correction to Enthalpy=                  0.339005
 Thermal correction to Gibbs Free Energy=         0.271178
 Sum of electronic and zero-point Energies=           -767.073734
 Sum of electronic and thermal Energies=              -767.055284
 Sum of electronic and thermal Enthalpies=            -767.054340
 Sum of electronic and thermal Free Energies=         -767.122166

                     E (Thermal)             CV                S
                      KCal/Mol        Cal/Mol-Kelvin    Cal/Mol-Kelvin
 Total                  212.136             67.323            142.754
 Electronic               0.000              0.000              0.000
 Translational            0.889              2.981             42.279
 Rotational               0.889              2.981             33.423
 Vibrational            210.359             61.362             67.051
 Vibration     1          0.593              1.986              6.584
 Vibration     2          0.594              1.983              5.600
 Vibration     3          0.595              1.978              4.844
 Vibration     4          0.596              1.975              4.543
 Vibration     5          0.597              1.971              4.289
 Vibration     6          0.603              1.952              3.531
 Vibration     7          0.605              1.946              3.368
 Vibration     8          0.606              1.941              3.274
 Vibration     9          0.608              1.935              3.149
 Vibration    10          0.622              1.891              2.550
 Vibration    11          0.631              1.861              2.284
 Vibration    12          0.647              1.810              1.953
 Vibration    13          0.653              1.791              1.859
 Vibration    14          0.657              1.779              1.802
 Vibration    15          0.669              1.743              1.652
 Vibration    16          0.674              1.728              1.594
 Vibration    17          0.683              1.701              1.502
 Vibration    18          0.712              1.619              1.268
 Vibration    19          0.725              1.580              1.178
 Vibration    20          0.754              1.501              1.018
 Vibration    21          0.779              1.437              0.908
 Vibration    22          0.802              1.377              0.818
 Vibration    23          0.825              1.321              0.744
 Vibration    24          0.855              1.251              0.659
 Vibration    25          0.868              1.220              0.626
 Vibration    26          0.911              1.128              0.533
 Vibration    27          0.966              1.017              0.438
 Vibration    28          0.979              0.992              0.419

 Normal termination of Gaussian 09 at Thu Sep 30 03:55:51 2021.
 Gaussian 09:  AM64L-G09RevA.02 11-Jun-2009

 ----------------------------------------------------------------------
 #p TD(NStates=10, Root=1) b3lyp/6-31G* volume pop=NPA density=current
 Geom=AllCheck Guess=Read
 ----------------------------------------------------------------------

 CCN(C(=O)Oc1cccc(c1)N(C)C)CC_conf_0
 -----------------------------------
 Redundant internal coordinates taken from checkpoint file:
 C13H20N2O2_0fc4_conf_0.chk
 Charge =  0 Multiplicity = 1

                         Standard orientation:
 ---------------------------------------------------------------------
 Center     Atomic      Atomic             Coordinates (Angstroms)
 Number     Number       Type             X           Y           Z
 ---------------------------------------------------------------------
      1          6           0        4.569294   -0.098685   -1.917855
      2          6           0        4.251240   -0.389162   -0.448938
      3          7           0        2.985936    0.203625   -0.006438
      4          6           0        1.855224   -0.545757   -0.153088
      5          8           0        1.812199   -1.658503   -0.643884
      6          8           0        0.761547    0.136549    0.336072
      7          6           0       -0.504670   -0.450273    0.307982
      8          6           0       -0.742186   -1.745119    0.762949
      9          6           0       -2.066493   -2.181042    0.781536
     10          6           0       -3.118359   -1.365915    0.372321
     11          6           0       -2.871565   -0.055507   -0.095322
     12          6           0       -1.532222    0.389210   -0.109410
     13          7           0       -3.905071    0.766676   -0.538195
     14          6           0       -3.634928    2.173648   -0.776177
     15          6           0       -5.278839    0.375261   -0.273339
     16          6           0        2.998307    1.557439    0.555438
     17          6           0        3.152815    1.580072    2.078947
     18          1           0        5.533319   -0.541291   -2.194687
     19          1           0        4.623555    0.979090   -2.111219
     20          1           0        3.795747   -0.528157   -2.561516
     21          1           0        5.042699    0.000778    0.201632
     22          1           0        4.189466   -1.467390   -0.287255
     23          1           0        0.072845   -2.384666    1.073107
     24          1           0       -2.288238   -3.185741    1.132147
     25          1           0       -4.128599   -1.753363    0.417811
     26          1           0       -1.266143    1.385959   -0.436193
     27          1           0       -2.873196    2.299460   -1.554584
     28          1           0       -3.290066    2.705912    0.125922
     29          1           0       -4.547541    2.657142   -1.131110
     30          1           0       -5.509896   -0.585902   -0.746966
     31          1           0       -5.951093    1.121165   -0.702772
     32          1           0       -5.502576    0.286584    0.802619
     33          1           0        2.078982    2.068054    0.263061
     34          1           0        3.828738    2.094160    0.082178
     35          1           0        2.304226    1.080119    2.555629
     36          1           0        3.193583    2.613254    2.443661
     37          1           0        4.072444    1.073321    2.393195
 ---------------------------------------------------------------------

 SCF Done:  E(RB3LYP) =  -767.393344405     A.U. after    1 cycles

 Excitation energies and oscillator strengths:

 Excited State   1:      Singlet-A      4.6784 eV  265.01 nm  f=0.0438  <S**2>=0.000
      63 -> 66        -0.20432
      64 -> 65         0.66877
 This state for optimization and/or second-order correction.
 Total Energy, E(TD-HF/TD-KS) =  -767.221415738
 Copying the excited state density for this state as the 1-particle RhoCI density.

 Excited State   2:      Singlet-A      5.4097 eV  229.19 nm  f=0.2118  <S**2>=0.000
      63 -> 65         0.19844
      64 -> 66         0.66801

 Excited State   3:      Singlet-A      6.0479 eV  205.00 nm  f=0.1783  <S**2>=0.000
      62 -> 65         0.37622
      63 -> 65         0.54453
      64 -> 67        -0.15619

 Excited State   4:      Singlet-A      6.0913 eV  203.54 nm  f=0.1914  <S**2>=0.000
      62 -> 65         0.13802
      63 -> 66         0.34997
      64 -> 65         0.11598
      64 -> 67         0.56222

 Excited State   5:      Singlet-A      6.2329 eV  198.92 nm  f=0.0911  <S**2>=0.000
      60 -> 65         0.21518
      61 -> 65         0.21952
      63 -> 66         0.48698
      64 -> 65         0.13060
      64 -> 67        -0.35209

 Excited State   6:      Singlet-A      6.3772 eV  194.42 nm  f=0.2916  <S**2>=0.000
      60 -> 65         0.21089
      60 -> 66         0.12118
      62 -> 65         0.53505
      63 -> 65        -0.28196
      63 -> 67        -0.15300
      64 -> 66         0.12926

 Excited State   7:      Singlet-A      6.4838 eV  191.22 nm  f=0.0082  <S**2>=0.000
      64 -> 68         0.23675
      64 -> 69         0.66254

 Excited State   8:      Singlet-A      6.5084 eV  190.50 nm  f=0.0503  <S**2>=0.000
      61 -> 65         0.51669
      61 -> 66         0.16752
      61 -> 67         0.19598
      62 -> 66        -0.32735
      63 -> 66        -0.17740

 Excited State   9:      Singlet-A      6.5476 eV  189.36 nm  f=0.0669  <S**2>=0.000
      60 -> 65        -0.15573
      61 -> 65         0.20334
      61 -> 66         0.16565
      61 -> 67         0.13050
      62 -> 65         0.10287
      62 -> 66         0.57726
      63 -> 65        -0.13234

 Excited State  10:      Singlet-A      6.9224 eV  179.11 nm  f=0.0303  <S**2>=0.000
      61 -> 65        -0.33847
      61 -> 66         0.45356
      61 -> 67         0.28123
      63 -> 67         0.26148

 The electronic state is 1-A.
 Alpha  occ. eigenvalues --  -19.18527 -19.10791 -14.35765 -14.34866 -10.32305
 Alpha  occ. eigenvalues --  -10.23813 -10.22287 -10.22170 -10.21771 -10.21557
 Alpha  occ. eigenvalues --  -10.21518 -10.17956 -10.17944 -10.17557 -10.17346
 Alpha  occ. eigenvalues --  -10.17165 -10.16734  -1.09530  -1.00519  -0.94198
 Alpha  occ. eigenvalues --   -0.93370  -0.83313  -0.76916  -0.75368  -0.74031
 Alpha  occ. eigenvalues --   -0.73098  -0.71586  -0.65739  -0.65275  -0.64025
 Alpha  occ. eigenvalues --   -0.59757  -0.58788  -0.54143  -0.52213  -0.49968
 Alpha  occ. eigenvalues --   -0.48867  -0.48300  -0.46943  -0.46100  -0.45819
 Alpha  occ. eigenvalues --   -0.44207  -0.43944  -0.43300  -0.42412  -0.41705
 Alpha  occ. eigenvalues --   -0.40568  -0.40234  -0.39620  -0.39195  -0.38729
 Alpha  occ. eigenvalues --   -0.37749  -0.37403  -0.36815  -0.36031  -0.35386
 Alpha  occ. eigenvalues --   -0.34994  -0.34596  -0.33514  -0.30737  -0.27277
 Alpha  occ. eigenvalues --   -0.26208  -0.23765  -0.22500  -0.18555
 Alpha virt. eigenvalues --    0.01267   0.02508   0.06362   0.08498   0.08679
 Alpha virt. eigenvalues --    0.10928   0.11996   0.12156   0.12625   0.13161
 Alpha virt. eigenvalues --    0.14457   0.15102   0.15685   0.15959   0.16456

 Mulliken atomic charges:
              1
     1  C   -0.441611
     2  C   -0.139628
     3  N   -0.441292
     4  C    0.778150
     5  O   -0.528601
     6  O   -0.563678
     7  C    0.313467
     8  C   -0.109506
     9  C   -0.198753
    10  C   -0.199282
    11  C    0.338728
    12  C   -0.272125
    13  N   -0.406796
    14  C   -0.323391
    15  C   -0.324721
    16  C   -0.133631
    17  C   -0.441648
    18  H    0.140346
    19  H    0.139264
    20  H    0.173468
    21  H    0.135818
    22  H    0.177933
    23  H    0.148875
    24  H    0.107718
    25  H    0.099102
    26  H    0.104731
    27  H    0.197528
    28  H    0.189779
    29  H    0.166626
    30  H    0.196766
    31  H    0.166264
    32  H    0.189463
    33  H    0.167670
    34  H    0.140538
    35  H    0.168220
    36  H    0.138472
    37  H    0.145739
 Sum of Mulliken atomic charges =  -0.00000

 Dipole moment (field-independent basis, Debye):
    X=             -3.7722    Y=              5.0042    Z=             -0.0078  Tot=              6.2666
 Quadrupole moment (field-independent basis, Debye-Ang):
   XX=            -66.0122   YY=           -100.1986   ZZ=           -104.5901
   XY=             -4.9788   XZ=              5.3461   YZ=             -4.6851

 Summary of Natural Population Analysis:

                                       Natural Population
                Natural  -----------------------------------------------
    Atom  No    Charge         Core      Valence    Rydberg      Total
 -----------------------------------------------------------------------
      C    1   -0.68732      1.99945     4.68054    0.00733     6.68732
      C    2   -0.25333      1.99935     4.23835    0.01563     6.25333
      N    3   -0.50939      1.99930     5.49645    0.01364     7.50939
      C    4    0.93133      1.99937     3.02328    0.04602     5.06867
      O    5   -0.65881      1.99978     6.63996    0.01907     8.65881
      O    6   -0.56205      1.99970     6.55193    0.01043     8.56205
      C    7    0.22960      1.99873     3.74686    0.02481     5.77040
      C    8   -0.18210      1.99901     4.16903    0.01407     6.18210
      C    9   -0.31750      1.99914     4.29849    0.01987     6.31750
      C   10   -0.32466      1.99908     4.30810    0.01748     6.32466
      C   11    0.14673      1.99903     3.83382    0.02042     5.85327
      C   12   -0.37073      1.99900     4.35291    0.01883     6.37073
      N   13   -0.26041      1.99933     5.25057    0.01051     7.26041
      C   14   -0.48324      1.99945     4.47152    0.01227     6.48324
      C   15   -0.48261      1.99945     4.47093    0.01223     6.48261
      C   16   -0.25619      1.99935     4.24160    0.01524     6.25619
      C   17   -0.68671      1.99945     4.67987    0.00739     6.68671
      H   18    0.23055      0.00000     0.76845    0.00100     0.76945
      H   19    0.22106      0.00000     0.77795    0.00099     0.77894
      H   20    0.24297      0.00000     0.75566    0.00137     0.75703
      H   21    0.22194      0.00000     0.77657    0.00149     0.77806
      H   22    0.25616      0.00000     0.74177    0.00206     0.74384
      H   23    0.24966      0.00000     0.74908    0.00126     0.75034
      H   24    0.22657      0.00000     0.77263    0.00080     0.77343
      H   25    0.21725      0.00000     0.78168    0.00107     0.78275
      H   26    0.22586      0.00000     0.77257    0.00157     0.77414
      H   27    0.25240      0.00000     0.74579    0.00181     0.74760
      H   28    0.24512      0.00000     0.75274    0.00214     0.75488
      H   29    0.23601      0.00000     0.76330    0.00068     0.76399
      H   30    0.25163      0.00000     0.74649    0.00189     0.74837
      H   31    0.23575      0.00000     0.76353    0.00071     0.76425
      H   32    0.24470      0.00000     0.75295    0.00235     0.75530
      H   33    0.24936      0.00000     0.74899    0.00165     0.75064
      H   34    0.22578      0.00000     0.77270    0.00151     0.77422
      H   35    0.24000      0.00000     0.75865    0.00135     0.76000
      H   36    0.22935      0.00000     0.76963    0.00102     0.77065
      H   37    0.22532      0.00000     0.77372    0.00096     0.77468
 =======================================================================
   * Total *   -0.00000     33.98797    93.69908    0.31295   128.00000

 Normal termination of Gaussian 09 at Thu Sep 30 10:09:26 2021.
