 Gaussian 09, Revision A.02,

 -----------------------------------
 #p opt b3lyp/6-31G* scf=(xqc,tight)
 -----------------------------------

 ----------------------------------
 COCOc1cccc(c1)OC(=O)N(CC)CC_conf_0
 ----------------------------------
 Symbolic Z-matrix:
 Charge =  0 Multiplicity = 1

 SCF Done:  E(RB3LYP) =  -862.460785840     A.U. after   15 cycles
 SCF Done:  E(RB3LYP) =  -862.468089572     A.U. after   15 cycles
 SCF Done:  E(RB3LYP) =  -862.468384093     A.U. after   15 cycles
 SCF Done:  E(RB3LYP) =  -862.469058764     A.U. after   15 cycles
 SCF Done:  E(RB3LYP) =  -862.469462912     A.U. after   11 cycles
 SCF Done:  E(RB3LYP) =  -862.469670570     A.U. after   12 cycles
 SCF Done:  E(RB3LYP) =  -862.469804649     A.U. after   12 cycles
 SCF Done:  E(RB3LYP) =  -862.469866228     A.U. after   10 cycles
 SCF Done:  E(RB3LYP) =  -862.469918943     A.U. after   11 cycles
 SCF Done:  E(RB3LYP) =  -862.469924951     A.U. after   10 cycles
 SCF Done:  E(RB3LYP) =  -862.469928105     A.U. after   10 cycles
 SCF Done:  E(RB3LYP) =  -862.469928750     A.U. after    8 cycles
 SCF Done:  E(RB3LYP) =  -862.469928921     A.U. after    7 cycles
 SCF Done:  E(RB3LYP) =  -862.469929052     A.U. after    7 cycles
 SCF Done:  E(RB3LYP) =  -862.469929130     A.U. after    7 cycles
 SCF Done:  E(RB3LYP) =  -862.469929182     A.U. after    6 cycles
 Optimization completed.
    -- Stationary point found.
 Normal termination of Gaussian 09 at Thu Sep 30 21:43:55 2021.

 ----------------------------------------------------------------------
 #p freq b3lyp/6-31G* volume NMR pop=NPA density=current Geom=AllCheck
 Guess=Read
 ----------------------------------------------------------------------

 COCOc1cccc(c1)OC(=O)N(CC)CC_conf_0
 ----------------------------------
 Redundant internal coordinates taken from checkpoint file:
 C13H19NO4_d833_conf_0.chk
 Charge =  0 Multiplicity = 1

 SCF Done:  E(RB3LYP) =  -862.469929182     A.U. after    1 cycles

  1  C    Isotropic =   134.6030   Anisotropy =    74.8015

  2  O    Isotropic =   283.7103   Anisotropy =    42.0296

  3  C    Isotropic =    97.1519   Anisotropy =    37.1287

  4  O    Isotropic =   200.8080   Anisotropy =    55.1267

  5  C    Isotropic =    41.1945   Anisotropy =   123.7014

  6  C    Isotropic =    89.6818   Anisotropy =   134.2074

  7  C    Isotropic =    67.1941   Anisotropy =   163.2548

  8  C    Isotropic =    79.9951   Anisotropy =   144.4752

  9  C    Isotropic =    43.4466   Anisotropy =   110.0621

 10  C    Isotropic =    86.6318   Anisotropy =   110.0856

 11  O    Isotropic =   140.9428   Anisotropy =   141.9881

 12  C    Isotropic =    47.0475   Anisotropy =    78.4998

 13  O    Isotropic =    59.6075   Anisotropy =   384.3717

 14  N    Isotropic =   157.4840   Anisotropy =    67.4355

 15  C    Isotropic =   142.6661   Anisotropy =    47.1421

 16  C    Isotropic =   171.9741   Anisotropy =    24.6418

 17  C    Isotropic =   141.4173   Anisotropy =    49.5776

 18  C    Isotropic =   173.1159   Anisotropy =    23.5073

 19  H    Isotropic =    29.2567   Anisotropy =     7.3541

 20  H    Isotropic =    28.6106   Anisotropy =     8.2781

 21  H    Isotropic =    28.2188   Anisotropy =     7.3381

 22  H    Isotropic =    26.8412   Anisotropy =     4.5078

 23  H    Isotropic =    27.3456   Anisotropy =     4.5262

 24  H    Isotropic =    26.2559   Anisotropy =     6.8074

 25  H    Isotropic =    25.1657   Anisotropy =     4.6059

 26  H    Isotropic =    25.2423   Anisotropy =     8.5622

 27  H    Isotropic =    25.9424   Anisotropy =     8.7995

 28  H    Isotropic =    29.5030   Anisotropy =     6.4658

 29  H    Isotropic =    28.2454   Anisotropy =     4.5761

 30  H    Isotropic =    30.8519   Anisotropy =     6.6341

 31  H    Isotropic =    31.2393   Anisotropy =    10.0066

 32  H    Isotropic =    30.4690   Anisotropy =     6.4686

 33  H    Isotropic =    28.1477   Anisotropy =     6.6756

 34  H    Isotropic =    29.6280   Anisotropy =     6.4847

 35  H    Isotropic =    30.4344   Anisotropy =     5.4611

 36  H    Isotropic =    31.3717   Anisotropy =    10.5231

 37  H    Isotropic =    31.0788   Anisotropy =     6.4842

  Exact polarizability: 215.840  -1.160 160.185   3.779   1.421 100.222
 Approx polarizability: 267.881  -1.700 248.916  14.725   3.675 150.118

                     1                      2                      3
                     A                      A                      A
 Frequencies --    17.7825                33.1597                37.3189
 Red. masses --     4.1079                 4.5212                 3.6915
 Frc consts  --     0.0008                 0.0029                 0.0030
 IR Inten    --     0.1092                 1.8228                 0.7450

                     4                      5                      6
                     A                      A                      A
 Frequencies --    42.9776                58.7995                83.9739
 Red. masses --     2.9573                 2.9398                 2.8953
 Frc consts  --     0.0032                 0.0060                 0.0120
 IR Inten    --     0.0653                 1.0865                 0.2790

                     7                      8                      9
                     A                      A                      A
 Frequencies --    87.4867               105.4271               132.5688
 Red. masses --     4.0148                 4.0025                 4.0543
 Frc consts  --     0.0181                 0.0262                 0.0420
 IR Inten    --     1.6257                 1.9573                 0.7733

                    10                     11                     12
                     A                      A                      A
 Frequencies --   145.8352               151.4289               195.7708
 Red. masses --     3.7843                 1.2698                 2.0137
 Frc consts  --     0.0474                 0.0172                 0.0455
 IR Inten    --     6.0545                 0.2028                 3.5424

                    13                     14                     15
                     A                      A                      A
 Frequencies --   214.2882               227.1993               242.5552
 Red. masses --     2.1700                 1.7559                 2.2904
 Frc consts  --     0.0587                 0.0534                 0.0794
 IR Inten    --     0.3848                 0.0626                 1.1349

                    16                     17                     18
                     A                      A                      A
 Frequencies --   251.7174               259.8617               304.3277
 Red. masses --     2.7987                 1.9977                 3.0223
 Frc consts  --     0.1045                 0.0795                 0.1649
 IR Inten    --     1.6610                 0.6268                 3.2651

                    19                     20                     21
                     A                      A                      A
 Frequencies --   335.6282               365.5506               404.1732
 Red. masses --     4.0671                 3.7926                 2.7969
 Frc consts  --     0.2699                 0.2986                 0.2692
 IR Inten    --     0.8008                 9.7704                11.9370

                    22                     23                     24
                     A                      A                      A
 Frequencies --   443.3431               455.2041               467.3723
 Red. masses --     3.4095                 3.4071                 3.2784
 Frc consts  --     0.3948                 0.4160                 0.4219
 IR Inten    --     3.8443                 2.8777                 2.7829

                    25                     26                     27
                     A                      A                      A
 Frequencies --   485.8882               503.1090               600.7661
 Red. masses --     3.0255                 4.0964                 4.8018
 Frc consts  --     0.4208                 0.6109                 1.0211
 IR Inten    --     5.5711                 4.0454                 5.9598

                    28                     29                     30
                     A                      A                      A
 Frequencies --   612.3994               644.4722               653.9465
 Red. masses --     5.5210                 6.5894                 4.2384
 Frc consts  --     1.2199                 1.6125                 1.0679
 IR Inten    --     3.4630                 0.1374                 1.9737

                    31                     32                     33
                     A                      A                      A
 Frequencies --   691.7568               747.9000               769.1288
 Red. masses --     2.4585                 9.4496                 1.5093
 Frc consts  --     0.6932                 3.1142                 0.5261
 IR Inten    --     7.0193                13.4705                41.0812

                    34                     35                     36
                     A                      A                      A
 Frequencies --   779.8083               790.3257               798.9324
 Red. masses --     1.7472                 1.2251                 2.9082
 Frc consts  --     0.6260                 0.4508                 1.0937
 IR Inten    --    10.0300                 9.1104                 1.8686

                    37                     38                     39
                     A                      A                      A
 Frequencies --   827.5937               864.0285               879.4159
 Red. masses --     2.2239                 1.4551                 1.7047
 Frc consts  --     0.8974                 0.6400                 0.7768
 IR Inten    --     1.5286                 5.5932                18.5967

                    40                     41                     42
                     A                      A                      A
 Frequencies --   926.8560               954.7342               958.0579
 Red. masses --     3.0460                 2.4234                 1.2674
 Frc consts  --     1.5417                 1.3015                 0.6854
 IR Inten    --    19.5282                 7.8151                 0.2012

                    43                     44                     45
                     A                      A                      A
 Frequencies --   976.4479               989.9330              1015.4984
 Red. masses --     4.1869                 3.2511                 5.5091
 Frc consts  --     2.3520                 1.8771                 3.3472
 IR Inten    --    30.8040                 7.1452                 3.7317

                    46                     47                     48
                     A                      A                      A
 Frequencies --  1046.8233              1068.2192              1104.2153
 Red. masses --     4.3088                 2.6371                 1.9487
 Frc consts  --     2.7820                 1.7730                 1.3999
 IR Inten    --   354.7308                67.4639                 4.8181

                    49                     50                     51
                     A                      A                      A
 Frequencies --  1120.7708              1124.4669              1125.8650
 Red. masses --     1.7877                 1.6449                 1.5849
 Frc consts  --     1.3231                 1.2254                 1.1836
 IR Inten    --    49.2952                42.0649                 9.9859

                    52                     53                     54
                     A                      A                      A
 Frequencies --  1139.0505              1171.7118              1185.0144
 Red. masses --     1.5569                 1.7675                 1.3905
 Frc consts  --     1.1901                 1.4297                 1.1504
 IR Inten    --    50.7682               327.4584                 9.3012

                    55                     56                     57
                     A                      A                      A
 Frequencies --  1193.7001              1207.7952              1220.0087
 Red. masses --     2.2988                 1.5058                 1.6763
 Frc consts  --     1.9299                 1.2942                 1.4700
 IR Inten    --   507.5538               123.8119               105.8398

                    58                     59                     60
                     A                      A                      A
 Frequencies --  1248.0799              1262.4458              1304.0675
 Red. masses --     2.4197                 2.6527                 2.9165
 Frc consts  --     2.2208                 2.4909                 2.9222
 IR Inten    --   101.1410                35.8443               159.0699

                    61                     62                     63
                     A                      A                      A
 Frequencies --  1317.2748              1323.7905              1327.7839
 Red. masses --     1.6689                 1.2245                 1.8689
 Frc consts  --     1.7062                 1.2643                 1.9413
 IR Inten    --   180.6903                14.0177                93.7461

                    64                     65                     66
                     A                      A                      A
 Frequencies --  1366.7852              1367.7741              1403.7452
 Red. masses --     1.3921                 4.6201                 1.2286
 Frc consts  --     1.5322                 5.0924                 1.4264
 IR Inten    --    31.6904                29.0895                 8.9422

                    67                     68                     69
                     A                      A                      A
 Frequencies --  1420.4346              1434.5919              1440.0668
 Red. masses --     1.3255                 1.2892                 1.3029
 Frc consts  --     1.5757                 1.5633                 1.5919
 IR Inten    --    42.3034                44.4891                59.2956

                    70                     71                     72
                     A                      A                      A
 Frequencies --  1451.7308              1457.3945              1497.8302
 Red. masses --     1.2190                 1.7232                 1.4661
 Frc consts  --     1.5137                 2.1565                 1.9380
 IR Inten    --   139.4485               150.0874                22.3432

                    73                     74                     75
                     A                      A                      A
 Frequencies --  1503.8767              1509.9327              1514.9643
 Red. masses --     1.0700                 1.8582                 1.0821
 Frc consts  --     1.4257                 2.4961                 1.4632
 IR Inten    --     5.5892                20.6940                 6.0785

                    76                     77                     78
                     A                      A                      A
 Frequencies --  1517.6400              1522.5800              1526.9919
 Red. masses --     1.0480                 1.1761                 1.0482
 Frc consts  --     1.4222                 1.6063                 1.4400
 IR Inten    --     0.6573                57.2819                10.7587

                    79                     80                     81
                     A                      A                      A
 Frequencies --  1532.7796              1536.2717              1537.9222
 Red. masses --     1.0670                 1.4698                 1.2948
 Frc consts  --     1.4770                 2.0438                 1.8044
 IR Inten    --    12.1883                25.0290                45.1232

                    82                     83                     84
                     A                      A                      A
 Frequencies --  1540.9795              1553.8612              1639.9826
 Red. masses --     1.1297                 1.1620                 6.2339
 Frc consts  --     1.5806                 1.6530                 9.8785
 IR Inten    --     1.9404                 3.3148                44.8483

                    85                     86                     87
                     A                      A                      A
 Frequencies --  1672.2043              1808.7664              2967.9372
 Red. masses --     6.2948                11.4301                 1.0664
 Frc consts  --    10.3708                22.0327                 5.5348
 IR Inten    --   144.8355               364.9673                51.7661

                    88                     89                     90
                     A                      A                      A
 Frequencies --  3017.8284              3055.3800              3057.6189
 Red. masses --     1.0446                 1.0363                 1.0367
 Frc consts  --     5.6054                 5.7001                 5.7104
 IR Inten    --    54.1521                10.4337                32.3617

                    91                     92                     93
                     A                      A                      A
 Frequencies --  3068.0025              3076.1051              3082.5044
 Red. masses --     1.0652                 1.0638                 1.0973
 Frc consts  --     5.9071                 5.9305                 6.1429
 IR Inten    --     2.6312                64.1044                42.7903

                    94                     95                     96
                     A                      A                      A
 Frequencies --  3099.5506              3113.9673              3119.8423
 Red. masses --     1.0925                 1.1028                 1.1022
 Frc consts  --     6.1843                 6.3005                 6.3209
 IR Inten    --    34.5040                16.6432                11.0075

                    97                     98                     99
                     A                      A                      A
 Frequencies --  3127.5766              3130.4349              3145.2696
 Red. masses --     1.0995                 1.0979                 1.1038
 Frc consts  --     6.3365                 6.3393                 6.4334
 IR Inten    --    39.9525                20.5034                16.8915

                   100                    101                    102
                     A                      A                      A
 Frequencies --  3149.7007              3156.4035              3196.0105
 Red. masses --     1.1044                 1.1027                 1.0888
 Frc consts  --     6.4555                 6.4730                 6.5526
 IR Inten    --    47.4476                33.1029                14.3753

                   103                    104                    105
                     A                      A                      A
 Frequencies --  3228.9590              3231.1753              3260.0327
 Red. masses --     1.0918                 1.0916                 1.0932
 Frc consts  --     6.7071                 6.7149                 6.8454
 IR Inten    --    13.7997                 1.3157                 0.8266

 - Thermochemistry -
 -------------------
 Temperature   298.150 Kelvin.  Pressure   1.00000 Atm.
 Atom     1 has atomic number  6 and mass  12.00000

 Molecular mass:   253.13141 amu.
 Principal axes and moments of inertia in atomic units:
                           1         2         3
     Eigenvalues --  2094.75361********************
           X            0.99995  -0.00645  -0.00702
           Y            0.00640   0.99995  -0.00771
           Z            0.00707   0.00766   0.99995
 This molecule is an asymmetric top.
 Rotational symmetry number  1.
 Warning -- assumption of classical behavior for rotation
           may cause significant error
 Rotational temperatures (Kelvin)      0.04135     0.00774     0.00692
 Rotational constants (GHZ):           0.86155     0.16136     0.14419
 Zero-point vibrational energy     819856.1 (Joules/Mol)
                                  195.95031 (Kcal/Mol)
 Warning -- explicit consideration of  28 degrees of freedom as
           vibrations may cause significant error
 Vibrational temperatures:     25.59    47.71    53.69    61.84    84.60
          (Kelvin)            120.82   125.87   151.69   190.74   209.82
                              217.87   281.67   308.31   326.89   348.98
                              362.16   373.88   437.86   482.89   525.95
                              581.51   637.87   654.94   672.44   699.08
                              723.86   864.37   881.11   927.25   940.88
                              995.28  1076.06  1106.60  1121.97  1137.10
                             1149.48  1190.72  1243.14  1265.28  1333.54
                             1373.65  1378.43  1404.89  1424.29  1461.07
                             1506.14  1536.93  1588.72  1612.54  1617.86
                             1619.87  1638.84  1685.83  1704.97  1717.47
                             1737.75  1755.32  1795.71  1816.38  1876.26
                             1895.26  1904.64  1910.38  1966.50  1967.92
                             2019.67  2043.69  2064.06  2071.93  2088.71
                             2096.86  2155.04  2163.74  2172.45  2179.69
                             2183.54  2190.65  2197.00  2205.33  2210.35
                             2212.72  2217.12  2235.66  2359.57  2405.93
                             2602.41  4270.19  4341.98  4396.00  4399.23
                             4414.17  4425.82  4435.03  4459.56  4480.30
                             4488.75  4499.88  4503.99  4525.34  4531.71
                             4541.35  4598.34  4645.75  4648.93  4690.45

 Zero-point correction=                           0.312267 (Hartree/Particle)
 Thermal correction to Energy=                    0.331381
 Thermal correction to Enthalpy=                  0.332325
 Thermal correction to Gibbs Free Energy=         0.261965
 Sum of electronic and zero-point Energies=           -862.157662
 Sum of electronic and thermal Energies=              -862.138548
 Sum of electronic and thermal Enthalpies=            -862.137604
 Sum of electronic and thermal Free Energies=         -862.207964

                     E (Thermal)             CV                S
                      KCal/Mol        Cal/Mol-Kelvin    Cal/Mol-Kelvin
 Total                  207.945             69.019            148.085
 Electronic               0.000              0.000              0.000
 Translational            0.889              2.981             42.486
 Rotational               0.889              2.981             34.038
 Vibrational            206.167             63.057             71.561
 Vibration     1          0.593              1.986              6.868
 Vibration     2          0.594              1.983              5.631
 Vibration     3          0.594              1.982              5.397
 Vibration     4          0.595              1.980              5.117
 Vibration     5          0.596              1.974              4.497
 Vibration     6          0.601              1.960              3.796
 Vibration     7          0.601              1.958              3.716
 Vibration     8          0.605              1.945              3.351
 Vibration     9          0.613              1.921              2.908
 Vibration    10          0.617              1.907              2.726
 Vibration    11          0.619              1.901              2.654
 Vibration    12          0.636              1.846              2.172
 Vibration    13          0.644              1.819              2.007
 Vibration    14          0.651              1.800              1.901
 Vibration    15          0.659              1.775              1.784
 Vibration    16          0.664              1.760              1.719
 Vibration    17          0.668              1.746              1.663
 Vibration    18          0.695              1.665              1.393
 Vibration    19          0.717              1.604              1.233
 Vibration    20          0.739              1.543              1.098
 Vibration    21          0.769              1.461              0.947
 Vibration    22          0.803              1.376              0.816
 Vibration    23          0.814              1.349              0.780
 Vibration    24          0.825              1.322              0.745
 Vibration    25          0.842              1.281              0.694
 Vibration    26          0.858              1.243              0.650
 Vibration    27          0.959              1.030              0.448
 Vibration    28          0.972              1.006              0.429

 Normal termination of Gaussian 09 at Thu Sep 30 23:02:05 2021.
 Gaussian 09:  AM64L-G09RevA.02 11-Jun-2009

 ----------------------------------------------------------------------
 #p TD(NStates=10, Root=1) b3lyp/6-31G* volume pop=NPA density=current
 Geom=AllCheck Guess=Read
 ----------------------------------------------------------------------

 COCOc1cccc(c1)OC(=O)N(CC)CC_conf_0
 ----------------------------------
 Redundant internal coordinates taken from checkpoint file:
 C13H19NO4_d833_conf_0.chk
 Charge =  0 Multiplicity = 1

                         Standard orientation:
 ---------------------------------------------------------------------
 Center     Atomic      Atomic             Coordinates (Angstroms)
 Number     Number       Type             X           Y           Z
 ---------------------------------------------------------------------
      1          6           0        5.615810    1.963192   -0.248697
      2          8           0        5.518000    0.965638    0.762483
      3          6           0        4.663424   -0.071266    0.448710
      4          8           0        3.324052    0.420507    0.429409
      5          6           0        2.319467   -0.434664    0.074026
      6          6           0        2.490880   -1.800753   -0.182617
      7          6           0        1.377536   -2.569974   -0.534874
      8          6           0        0.105188   -2.016401   -0.637602
      9          6           0       -0.042226   -0.652609   -0.366294
     10          6           0        1.044082    0.138313   -0.015645
     11          8           0       -1.249387    0.022287   -0.520424
     12          6           0       -2.421729   -0.528650   -0.039664
     13          8           0       -2.482704   -1.567405    0.591206
     14          7           0       -3.488451    0.253232   -0.371400
     15          6           0       -3.356961    1.516967   -1.106616
     16          6           0       -3.018917    2.728405   -0.231654
     17          6           0       -4.801345   -0.188421    0.116730
     18          6           0       -5.085888    0.173939    1.577450
     19          1           0        5.902126    1.518885   -1.214158
     20          1           0        6.396299    2.655378    0.074057
     21          1           0        4.671732    2.505361   -0.370065
     22          1           0        4.778120   -0.826305    1.235324
     23          1           0        4.896519   -0.510575   -0.537431
     24          1           0        3.464113   -2.271546   -0.107364
     25          1           0        1.511681   -3.629838   -0.733072
     26          1           0       -0.752299   -2.621597   -0.898346
     27          1           0        0.913807    1.195807    0.184915
     28          1           0       -4.307626    1.681071   -1.625720
     29          1           0       -2.589939    1.389561   -1.873632
     30          1           0       -3.795942    2.914945    0.516852
     31          1           0       -2.924828    3.626337   -0.853871
     32          1           0       -2.069071    2.572471    0.288510
     33          1           0       -4.850070   -1.273999   -0.003278
     34          1           0       -5.554819    0.254672   -0.543047
     35          1           0       -4.331346   -0.274888    2.229657
     36          1           0       -6.067895   -0.212818    1.874463
     37          1           0       -5.086999    1.257760    1.735104
 ---------------------------------------------------------------------

 SCF Done:  E(RB3LYP) =  -862.469929182     A.U. after    3 cycles

 Excitation energies and oscillator strengths:

 Excited State   1:      Singlet-A      5.1356 eV  241.42 nm  f=0.0308  <S**2>=0.000
      66 -> 70         0.16870
      67 -> 70        -0.30218
      68 -> 69         0.61072
 This state for optimization and/or second-order correction.
 Total Energy, E(TD-HF/TD-KS) =  -862.281201158
 Copying the excited state density for this state as the 1-particle RhoCI density.

 Excited State   2:      Singlet-A      5.8214 eV  212.98 nm  f=0.0180  <S**2>=0.000
      67 -> 69         0.52207
      68 -> 70         0.46581

 Excited State   3:      Singlet-A      5.9901 eV  206.98 nm  f=0.0714  <S**2>=0.000
      66 -> 69         0.57463
      67 -> 69         0.26274
      68 -> 70        -0.30206

 Excited State   4:      Singlet-A      6.2725 eV  197.66 nm  f=0.2643  <S**2>=0.000
      65 -> 69         0.16948
      65 -> 70         0.12140
      65 -> 71         0.10309
      66 -> 69        -0.13620
      66 -> 70         0.36463
      67 -> 70         0.50196
      68 -> 69         0.13535

 Excited State   5:      Singlet-A      6.3196 eV  196.19 nm  f=0.0411  <S**2>=0.000
      65 -> 69         0.45516
      65 -> 70         0.19793
      65 -> 71         0.19409
      66 -> 69        -0.19176
      66 -> 70        -0.15064
      67 -> 69         0.15829
      67 -> 70        -0.21806
      68 -> 70        -0.17364
      68 -> 71        -0.17588

 Excited State   6:      Singlet-A      6.5141 eV  190.33 nm  f=0.3072  <S**2>=0.000
      66 -> 70         0.50831
      67 -> 70        -0.22293
      67 -> 71        -0.15873
      68 -> 69        -0.24384
      68 -> 71        -0.28301

 Excited State   7:      Singlet-A      6.6135 eV  187.47 nm  f=0.4047  <S**2>=0.000
      63 -> 69         0.12985
      65 -> 69         0.39222
      66 -> 69         0.27396
      67 -> 69        -0.27724
      67 -> 71        -0.14127
      68 -> 70         0.29722
      68 -> 71         0.18930

 Excited State   8:      Singlet-A      6.7870 eV  182.68 nm  f=0.1017  <S**2>=0.000
      65 -> 69        -0.26385
      65 -> 70         0.45315
      65 -> 71         0.23943
      66 -> 69         0.10730
      67 -> 69        -0.12363
      68 -> 70         0.17823
      68 -> 71        -0.28085

 Excited State   9:      Singlet-A      6.8945 eV  179.83 nm  f=0.0560  <S**2>=0.000
      63 -> 69        -0.14599
      65 -> 69        -0.13948
      65 -> 70         0.34845
      66 -> 70         0.12795
      67 -> 70        -0.14309
      68 -> 69        -0.10046
      68 -> 71         0.49726

 Excited State  10:      Singlet-A      7.0293 eV  176.38 nm  f=0.0066  <S**2>=0.000
      64 -> 69         0.69850

 The electronic state is 1-A.
 Alpha  occ. eigenvalues --  -19.19315 -19.17639 -19.16418 -19.11472 -14.36331
 Alpha  occ. eigenvalues --  -10.32903 -10.29061 -10.25078 -10.24971 -10.23216
 Alpha  occ. eigenvalues --  -10.22634 -10.22150 -10.19176 -10.18637 -10.18342
 Alpha  occ. eigenvalues --  -10.18222 -10.18058 -10.17653  -1.10289  -1.08621
 Alpha  occ. eigenvalues --   -1.03023  -1.01251  -0.93795  -0.84823  -0.77249
 Alpha  occ. eigenvalues --   -0.75927  -0.75620  -0.73276  -0.71956  -0.66760
 Alpha  occ. eigenvalues --   -0.64904  -0.63837  -0.61010  -0.60459  -0.56566
 Alpha  occ. eigenvalues --   -0.53024  -0.51273  -0.50986  -0.50387  -0.49278
 Alpha  occ. eigenvalues --   -0.48436  -0.47212  -0.45536  -0.44743  -0.43728
 Alpha  occ. eigenvalues --   -0.43605  -0.43324  -0.42666  -0.41936  -0.41493
 Alpha  occ. eigenvalues --   -0.40013  -0.38939  -0.38509  -0.38081  -0.37436
 Alpha  occ. eigenvalues --   -0.36806  -0.36454  -0.36029  -0.34320  -0.34119
 Alpha  occ. eigenvalues --   -0.33435  -0.32073  -0.30162  -0.27995  -0.26990
 Alpha  occ. eigenvalues --   -0.24360  -0.23469  -0.21823
 Alpha virt. eigenvalues --    0.00113   0.01374   0.05489   0.08607   0.09018
 Alpha virt. eigenvalues --    0.09579   0.10795   0.12090   0.12589   0.12813
 Alpha virt. eigenvalues --    0.13071   0.14446   0.14624   0.15364   0.15741

 Mulliken atomic charges:
              1
     1  C   -0.215961
     2  O   -0.446980
     3  C    0.183054
     4  O   -0.474913
     5  C    0.350643
     6  C   -0.184543
     7  C   -0.184613
     8  C   -0.115289
     9  C    0.332894
    10  C   -0.246143
    11  O   -0.552160
    12  C    0.785005
    13  O   -0.520433
    14  N   -0.446186
    15  C   -0.131657
    16  C   -0.445052
    17  C   -0.132718
    18  C   -0.447312
    19  H    0.137986
    20  H    0.169212
    21  H    0.166632
    22  H    0.168471
    23  H    0.137544
    24  H    0.130788
    25  H    0.128281
    26  H    0.161229
    27  H    0.135825
    28  H    0.142463
    29  H    0.171982
    30  H    0.151018
    31  H    0.143812
    32  H    0.166873
    33  H    0.175447
    34  H    0.137374
    35  H    0.178976
    36  H    0.143561
    37  H    0.144887
 Sum of Mulliken atomic charges =   0.00000

 Dipole moment (field-independent basis, Debye):
    X=              0.7894    Y=              2.0466    Z=             -2.2391  Tot=              3.1346
 Quadrupole moment (field-independent basis, Debye-Ang):
   XX=            -84.7179   YY=           -103.2180   ZZ=           -109.3046
   XY=             -6.2886   XZ=             -2.1163   YZ=             -0.0815

 Summary of Natural Population Analysis:

                                       Natural Population
                Natural  -----------------------------------------------
    Atom  No    Charge         Core      Valence    Rydberg      Total
 -----------------------------------------------------------------------
      C    1   -0.32111      1.99944     4.30739    0.01428     6.32111
      O    2   -0.55940      1.99980     6.54705    0.01255     8.55940
      C    3    0.20863      1.99939     3.76474    0.02724     5.79137
      O    4   -0.46835      1.99973     6.45662    0.01200     8.46835
      C    5    0.31911      1.99882     3.65849    0.02358     5.68089
      C    6   -0.31544      1.99905     4.30028    0.01611     6.31544
      C    7   -0.28326      1.99916     4.26442    0.01967     6.28326
      C    8   -0.19926      1.99903     4.18464    0.01559     6.19926
      C    9    0.26603      1.99875     3.71124    0.02398     5.73397
      C   10   -0.34946      1.99898     4.32941    0.02107     6.34946
      O   11   -0.54497      1.99970     6.53472    0.01055     8.54497
      C   12    0.93174      1.99937     3.02305    0.04584     5.06826
      O   13   -0.64905      1.99978     6.63011    0.01916     8.64905
      N   14   -0.50021      1.99930     5.48768    0.01323     7.50021
      C   15   -0.25653      1.99934     4.24195    0.01523     6.25653
      C   16   -0.68610      1.99945     4.67935    0.00731     6.68610
      C   17   -0.25210      1.99935     4.23711    0.01563     6.25210
      C   18   -0.68755      1.99945     4.68077    0.00733     6.68755
      H   19    0.19316      0.00000     0.80509    0.00175     0.80684
      H   20    0.22530      0.00000     0.77411    0.00059     0.77470
      H   21    0.21120      0.00000     0.78700    0.00180     0.78880
      H   22    0.21857      0.00000     0.77934    0.00209     0.78143
      H   23    0.18459      0.00000     0.81191    0.00350     0.81541
      H   24    0.22851      0.00000     0.77053    0.00095     0.77149
      H   25    0.23343      0.00000     0.76576    0.00081     0.76657
      H   26    0.25348      0.00000     0.74525    0.00127     0.74652
      H   27    0.24632      0.00000     0.75223    0.00145     0.75368
      H   28    0.22863      0.00000     0.76981    0.00156     0.77137
      H   29    0.24969      0.00000     0.74846    0.00186     0.75031
      H   30    0.22556      0.00000     0.77342    0.00102     0.77444
      H   31    0.23272      0.00000     0.76627    0.00100     0.76728
      H   32    0.23841      0.00000     0.76020    0.00138     0.76159
      H   33    0.25197      0.00000     0.74593    0.00210     0.74803
      H   34    0.22516      0.00000     0.77340    0.00144     0.77484
      H   35    0.24606      0.00000     0.75261    0.00133     0.75394
      H   36    0.23285      0.00000     0.76621    0.00094     0.76715
      H   37    0.22163      0.00000     0.77733    0.00104     0.77837
 =======================================================================
   * Total *   -0.00000     35.98788    99.66388    0.34824   136.00000

 Normal termination of Gaussian 09 at Fri Oct  1 04:30:34 2021.
