 Gaussian 09, Revision A.02,

 -----------------------------------
 #p opt b3lyp/6-31G* scf=(xqc,tight)
 -----------------------------------

 ---------------------------
 COc1cccc(c1)c1ccccc1_conf_0
 ---------------------------
 Symbolic Z-matrix:
 Charge =  0 Multiplicity = 1

 SCF Done:  E(RB3LYP) =  -577.826796784     A.U. after   14 cycles
 SCF Done:  E(RB3LYP) =  -577.828440666     A.U. after   12 cycles
 SCF Done:  E(RB3LYP) =  -577.828599121     A.U. after   12 cycles
 SCF Done:  E(RB3LYP) =  -577.828614828     A.U. after   10 cycles
 SCF Done:  E(RB3LYP) =  -577.828616779     A.U. after    8 cycles
 Optimization completed.
    -- Stationary point found.
 Normal termination of Gaussian 09 at Tue Sep 28 18:57:56 2021.

 ----------------------------------------------------------------------
 #p freq b3lyp/6-31G* volume NMR pop=NPA density=current Geom=AllCheck
 Guess=Read
 ----------------------------------------------------------------------

 COc1cccc(c1)c1ccccc1_conf_0
 ---------------------------
 Redundant internal coordinates taken from checkpoint file:
 C13H12O_e894_conf_0.chk
 Charge =  0 Multiplicity = 1

 SCF Done:  E(RB3LYP) =  -577.828616779     A.U. after    1 cycles

  1  C    Isotropic =   137.4087   Anisotropy =    65.3203

  2  O    Isotropic =   237.4425   Anisotropy =    76.1557

  3  C    Isotropic =    38.4283   Anisotropy =   125.9513

  4  C    Isotropic =    87.6387   Anisotropy =   142.3427

  5  C    Isotropic =    66.7181   Anisotropy =   162.5508

  6  C    Isotropic =    76.3122   Anisotropy =   143.4288

  7  C    Isotropic =    52.4271   Anisotropy =   172.6802

  8  C    Isotropic =    79.0937   Anisotropy =   123.9822

  9  C    Isotropic =    53.9185   Anisotropy =   176.7347

 10  C    Isotropic =    68.5924   Anisotropy =   154.6714

 11  C    Isotropic =    67.8827   Anisotropy =   164.5766

 12  C    Isotropic =    69.5297   Anisotropy =   165.0896

 13  C    Isotropic =    67.9939   Anisotropy =   164.4684

 14  C    Isotropic =    68.6991   Anisotropy =   154.5728

 15  H    Isotropic =    28.2749   Anisotropy =     8.1531

 16  H    Isotropic =    28.6172   Anisotropy =     8.2499

 17  H    Isotropic =    28.5961   Anisotropy =     8.2149

 18  H    Isotropic =    25.8301   Anisotropy =     6.8812

 19  H    Isotropic =    24.9983   Anisotropy =     4.8864

 20  H    Isotropic =    25.2904   Anisotropy =     7.5691

 21  H    Isotropic =    25.3724   Anisotropy =     9.4511

 22  H    Isotropic =    24.8125   Anisotropy =     8.7660

 23  H    Isotropic =    24.9115   Anisotropy =     5.0021

 24  H    Isotropic =    25.0323   Anisotropy =     4.1989

 25  H    Isotropic =    24.9191   Anisotropy =     4.8787

 26  H    Isotropic =    24.8474   Anisotropy =     8.5435

  Exact polarizability: 216.537   5.160 136.314  -4.927   7.070  63.834
 Approx polarizability: 301.430   5.757 241.344  -9.679  14.245 100.832

                     1                      2                      3
                     A                      A                      A
 Frequencies --    50.9398                72.9617                95.8135
 Red. masses --     3.6805                 3.5217                 4.3192
 Frc consts  --     0.0056                 0.0110                 0.0234
 IR Inten    --     0.5669                 3.5338                 0.6518

                     4                      5                      6
                     A                      A                      A
 Frequencies --   114.3341               214.0130               236.6789
 Red. masses --     4.0375                 1.6708                 3.8766
 Frc consts  --     0.0311                 0.0451                 0.1279
 IR Inten    --     0.4419                 0.1947                 0.8152

                     7                      8                      9
                     A                      A                      A
 Frequencies --   276.0285               280.2281               294.5240
 Red. masses --     1.9886                 3.5390                 4.3823
 Frc consts  --     0.0893                 0.1637                 0.2240
 IR Inten    --     0.8578                 1.0907                 0.1185

                    10                     11                     12
                     A                      A                      A
 Frequencies --   364.7523               419.3589               447.3931
 Red. masses --     4.2654                 3.0339                 3.9137
 Frc consts  --     0.3344                 0.3144                 0.4615
 IR Inten    --     0.3428                 0.1938                 1.5385

                    13                     14                     15
                     A                      A                      A
 Frequencies --   484.6232               529.6077               579.2962
 Red. masses --     3.6385                 3.9312                 4.4725
 Frc consts  --     0.5035                 0.6497                 0.8843
 IR Inten    --     1.4741                 4.2564                 4.7057

                    16                     17                     18
                     A                      A                      A
 Frequencies --   626.2506               628.2749               638.7013
 Red. masses --     4.8077                 6.6697                 5.5697
 Frc consts  --     1.1109                 1.5512                 1.3387
 IR Inten    --     0.9424                 5.2539                 0.7060

                    19                     20                     21
                     A                      A                      A
 Frequencies --   709.1117               714.7520               729.9548
 Red. masses --     2.4476                 1.8107                 5.9238
 Frc consts  --     0.7251                 0.5450                 1.8597
 IR Inten    --     6.2813                17.8702                 9.3042

                    22                     23                     24
                     A                      A                      A
 Frequencies --   774.1063               797.3811               861.2530
 Red. masses --     1.6600                 1.6261                 1.2642
 Frc consts  --     0.5861                 0.6092                 0.5525
 IR Inten    --    64.7045                11.5873                 0.9608

                    25                     26                     27
                     A                      A                      A
 Frequencies --   872.4539               881.2868               894.8638
 Red. masses --     4.8010                 1.3855                 1.4512
 Frc consts  --     2.1531                 0.6340                 0.6847
 IR Inten    --    10.6764                 0.4493                16.5946

                    28                     29                     30
                     A                      A                      A
 Frequencies --   932.9155               964.5818               970.2566
 Red. masses --     1.4497                 1.2618                 1.3465
 Frc consts  --     0.7434                 0.6917                 0.7469
 IR Inten    --     0.7994                 0.5717                 0.3435

                    31                     32                     33
                     A                      A                      A
 Frequencies --   995.1211              1011.2107              1018.2464
 Red. masses --     1.2465                 6.0685                 5.9438
 Frc consts  --     0.7273                 3.6561                 3.6309
 IR Inten    --     0.1195                 0.4618                 0.4343

                    34                     35                     36
                     A                      A                      A
 Frequencies --  1047.0253              1072.8872              1093.1464
 Red. masses --     3.9969                 2.0958                 2.7606
 Frc consts  --     2.5816                 1.4214                 1.9436
 IR Inten    --    16.5213                 4.3383                54.3856

                    37                     38                     39
                     A                      A                      A
 Frequencies --  1113.2161              1129.7430              1184.5504
 Red. masses --     1.5965                 1.6198                 1.2703
 Frc consts  --     1.1657                 1.2180                 1.0502
 IR Inten    --     3.9573                 4.0300                 0.7712

                    40                     41                     42
                     A                      A                      A
 Frequencies --  1193.0299              1206.1194              1214.1060
 Red. masses --     1.0967                 1.1237                 1.4285
 Frc consts  --     0.9197                 0.9632                 1.2406
 IR Inten    --     0.0387                13.0726                15.6755

                    43                     44                     45
                     A                      A                      A
 Frequencies --  1218.0057              1254.9159              1312.9361
 Red. masses --     1.1493                 2.4254                 2.3535
 Frc consts  --     1.0046                 2.2504                 2.3903
 IR Inten    --     0.5563               122.0335                 3.5058

                    46                     47                     48
                     A                      A                      A
 Frequencies --  1332.5700              1342.9671              1362.9270
 Red. masses --     3.1689                 2.3679                 2.1527
 Frc consts  --     3.3154                 2.5162                 2.3560
 IR Inten    --   125.8895                 7.5389                19.0687

                    49                     50                     51
                     A                      A                      A
 Frequencies --  1376.8004              1468.7048              1497.5344
 Red. masses --     2.7649                 2.5259                 1.3784
 Frc consts  --     3.0879                 3.2103                 1.8213
 IR Inten    --    19.9966                36.2565                15.3219

                    52                     53                     54
                     A                      A                      A
 Frequencies --  1504.7930              1519.8199              1532.9229
 Red. masses --     2.1557                 1.0487                 1.8968
 Frc consts  --     2.8760                 1.4273                 2.6261
 IR Inten    --     0.6953                 5.1836                84.2634

                    55                     56                     57
                     A                      A                      A
 Frequencies --  1536.6854              1552.3648              1628.9147
 Red. masses --     1.1443                 2.4751                 4.8023
 Frc consts  --     1.5920                 3.5142                 7.5075
 IR Inten    --     5.0714                 3.4113                64.5607

                    58                     59                     60
                     A                      A                      A
 Frequencies --  1641.8573              1662.7481              1666.2334
 Red. masses --     5.9011                 5.5308                 6.0528
 Frc consts  --     9.3725                 9.0092                 9.9009
 IR Inten    --    17.1476                 2.3136                97.8730

                    61                     62                     63
                     A                      A                      A
 Frequencies --  3023.7318              3081.8492              3156.6076
 Red. masses --     1.0349                 1.1066                 1.0995
 Frc consts  --     5.5749                 6.1926                 6.4548
 IR Inten    --    61.8416                44.8791                27.6801

                    64                     65                     66
                     A                      A                      A
 Frequencies --  3179.6756              3185.9989              3187.2805
 Red. masses --     1.0846                 1.0871                 1.0876
 Frc consts  --     6.4607                 6.5013                 6.5094
 IR Inten    --     3.9410                 4.7478                14.1439

                    67                     68                     69
                     A                      A                      A
 Frequencies --  3197.3447              3202.6639              3209.3053
 Red. masses --     1.0909                 1.0940                 1.0944
 Frc consts  --     6.5705                 6.6116                 6.6414
 IR Inten    --    21.4271                24.1855                18.3355

                    70                     71                     72
                     A                      A                      A
 Frequencies --  3211.0704              3215.1894              3228.5871
 Red. masses --     1.0952                 1.0907                 1.0919
 Frc consts  --     6.6534                 6.6431                 6.7061
 IR Inten    --    21.5946                 2.9844                12.7576

 - Thermochemistry -
 -------------------
 Temperature   298.150 Kelvin.  Pressure   1.00000 Atm.
 Atom     1 has atomic number  6 and mass  12.00000

 Molecular mass:   184.08882 amu.
 Principal axes and moments of inertia in atomic units:
                           1         2         3
     Eigenvalues --   983.176105185.359405974.13206
           X            1.00000  -0.00049  -0.00051
           Y            0.00049   0.99995   0.00995
           Z            0.00050  -0.00995   0.99995
 This molecule is an asymmetric top.
 Rotational symmetry number  1.
 Warning -- assumption of classical behavior for rotation
           may cause significant error
 Rotational temperatures (Kelvin)      0.08810     0.01670     0.01450
 Rotational constants (GHZ):           1.83562     0.34805     0.30209
 Zero-point vibrational energy     563609.2 (Joules/Mol)
                                  134.70584 (Kcal/Mol)
 Warning -- explicit consideration of  15 degrees of freedom as
           vibrations may cause significant error
 Vibrational temperatures:     73.29   104.98   137.85   164.50   307.92
          (Kelvin)            340.53   397.14   403.19   423.75   524.80
                              603.36   643.70   697.26   761.99   833.48
                              901.03   903.95   918.95  1020.25  1028.37
                             1050.24  1113.76  1147.25  1239.15  1255.27
                             1267.97  1287.51  1342.26  1387.82  1395.98
                             1431.76  1454.90  1465.03  1506.43  1543.64
                             1572.79  1601.67  1625.45  1704.30  1716.50
                             1735.33  1746.83  1752.44  1805.54  1889.02
                             1917.27  1932.23  1960.95  1980.91  2113.14
                             2154.62  2165.06  2186.68  2205.53  2210.94
                             2233.50  2343.64  2362.26  2392.32  2397.34
                             4350.47  4434.09  4541.65  4574.84  4583.94
                             4585.78  4600.26  4607.91  4617.47  4620.01
                             4625.93  4645.21

 Zero-point correction=                           0.214667 (Hartree/Particle)
 Thermal correction to Energy=                    0.226155
 Thermal correction to Enthalpy=                  0.227099
 Thermal correction to Gibbs Free Energy=         0.176570
 Sum of electronic and zero-point Energies=           -577.613949
 Sum of electronic and thermal Energies=              -577.602462
 Sum of electronic and thermal Enthalpies=            -577.601518
 Sum of electronic and thermal Free Energies=         -577.652047

                     E (Thermal)             CV                S
                      KCal/Mol        Cal/Mol-Kelvin    Cal/Mol-Kelvin
 Total                  141.914             45.490            106.348
 Electronic               0.000              0.000              0.000
 Translational            0.889              2.981             41.537
 Rotational               0.889              2.981             31.788
 Vibrational            140.137             39.529             33.023
 Vibration     1          0.595              1.977              4.781
 Vibration     2          0.599              1.967              4.072
 Vibration     3          0.603              1.952              3.538
 Vibration     4          0.607              1.938              3.194
 Vibration     5          0.644              1.820              2.009
 Vibration     6          0.656              1.785              1.828
 Vibration     7          0.678              1.718              1.558
 Vibration     8          0.680              1.710              1.532
 Vibration     9          0.689              1.684              1.448
 Vibration    10          0.738              1.545              1.102
 Vibration    11          0.782              1.428              0.894
 Vibration    12          0.807              1.367              0.804
 Vibration    13          0.841              1.284              0.698
 Vibration    14          0.885              1.184              0.588
 Vibration    15          0.936              1.076              0.487

 Normal termination of Gaussian 09 at Tue Sep 28 19:46:33 2021.
 Gaussian 09:  AM64L-G09RevA.02 11-Jun-2009

 ----------------------------------------------------------------------
 #p TD(NStates=10, Root=1) b3lyp/6-31G* volume pop=NPA density=current
 Geom=AllCheck Guess=Read
 ----------------------------------------------------------------------

 COc1cccc(c1)c1ccccc1_conf_0
 ---------------------------
 Redundant internal coordinates taken from checkpoint file:
 C13H12O_e894_conf_0.chk
 Charge =  0 Multiplicity = 1

                         Standard orientation:
 ---------------------------------------------------------------------
 Center     Atomic      Atomic             Coordinates (Angstroms)
 Number     Number       Type             X           Y           Z
 ---------------------------------------------------------------------
      1          6           0        4.523114   -1.078847    0.264793
      2          8           0        3.127008   -1.324215    0.295504
      3          6           0        2.281411   -0.274645    0.068535
      4          6           0        2.694907    1.035936   -0.194810
      5          6           0        1.725043    2.021521   -0.402421
      6          6           0        0.368892    1.720714   -0.350094
      7          6           0       -0.054280    0.404017   -0.084459
      8          6           0        0.915583   -0.581578    0.123268
      9          6           0       -1.500415    0.065554   -0.025681
     10          6           0       -1.980771   -1.151301   -0.538243
     11          6           0       -3.337409   -1.467296   -0.482536
     12          6           0       -4.245423   -0.572316    0.086280
     13          6           0       -3.783359    0.641117    0.599058
     14          6           0       -2.426398    0.956037    0.543526
     15          1           0        5.000568   -2.039083    0.468717
     16          1           0        4.823994   -0.354433    1.033568
     17          1           0        4.848888   -0.714188   -0.718664
     18          1           0        3.746081    1.295850   -0.240391
     19          1           0        2.043182    3.038520   -0.617231
     20          1           0       -0.367027    2.494849   -0.543974
     21          1           0        0.632363   -1.602327    0.359340
     22          1           0       -1.285998   -1.843047   -1.006237
     23          1           0       -3.686686   -2.411471   -0.892539
     24          1           0       -5.303072   -0.818101    0.129408
     25          1           0       -4.479918    1.342188    1.051719
     26          1           0       -2.073802    1.891483    0.968952
 ---------------------------------------------------------------------

 SCF Done:  E(RB3LYP) =  -577.828616779     A.U. after    2 cycles

 Excitation energies and oscillator strengths:

 Excited State   1:      Singlet-A      4.6358 eV  267.45 nm  f=0.0639  <S**2>=0.000
      48 -> 50        -0.23469
      48 -> 52        -0.15970
      49 -> 50         0.61573
      49 -> 52        -0.14530
 This state for optimization and/or second-order correction.
 Total Energy, E(TD-HF/TD-KS) =  -577.658254562
 Copying the excited state density for this state as the 1-particle RhoCI density.

 Excited State   2:      Singlet-A      5.0481 eV  245.61 nm  f=0.0209  <S**2>=0.000
      47 -> 50         0.44461
      48 -> 50        -0.12885
      48 -> 51         0.28529
      49 -> 51         0.42038

 Excited State   3:      Singlet-A      5.0790 eV  244.11 nm  f=0.3365  <S**2>=0.000
      47 -> 50         0.12666
      48 -> 50         0.58975
      49 -> 50         0.27306
      49 -> 52         0.18805

 Excited State   4:      Singlet-A      5.3883 eV  230.10 nm  f=0.0148  <S**2>=0.000
      47 -> 50        -0.20311
      48 -> 51        -0.40010
      49 -> 51         0.52590

 Excited State   5:      Singlet-A      5.5761 eV  222.35 nm  f=0.0745  <S**2>=0.000
      46 -> 50        -0.19576
      48 -> 50        -0.22734
      48 -> 51        -0.14602
      48 -> 52         0.16623
      48 -> 53         0.13070
      49 -> 50         0.11340
      49 -> 52         0.51744
      49 -> 53        -0.20798

 Excited State   6:      Singlet-A      5.8920 eV  210.43 nm  f=0.1208  <S**2>=0.000
      46 -> 50        -0.10700
      46 -> 51        -0.17429
      47 -> 50        -0.40561
      47 -> 52         0.11605
      47 -> 53        -0.12043
      48 -> 51         0.43555
      48 -> 52        -0.10931
      49 -> 51         0.12602
      49 -> 52         0.18682

 Excited State   7:      Singlet-A      5.9781 eV  207.40 nm  f=0.2106  <S**2>=0.000
      46 -> 51        -0.10283
      47 -> 50        -0.13634
      48 -> 52         0.59077
      48 -> 53        -0.12669
      49 -> 52        -0.19266
      49 -> 53        -0.17633

 Excited State   8:      Singlet-A      6.0857 eV  203.73 nm  f=0.0100  <S**2>=0.000
      46 -> 50         0.56372
      47 -> 51        -0.12071
      48 -> 53         0.36615

 Excited State   9:      Singlet-A      6.3090 eV  196.52 nm  f=0.0282  <S**2>=0.000
      46 -> 51         0.22949
      47 -> 51        -0.28444
      47 -> 52         0.56387
      49 -> 53        -0.15118

 Excited State  10:      Singlet-A      6.3391 eV  195.59 nm  f=0.0408  <S**2>=0.000
      46 -> 52         0.27620
      47 -> 52         0.23128
      48 -> 52         0.13406
      49 -> 52         0.13003
      49 -> 53         0.55526

 The electronic state is 1-A.
 Alpha  occ. eigenvalues --  -19.17583 -10.24494 -10.24042 -10.19640 -10.19499
 Alpha  occ. eigenvalues --  -10.18918 -10.18705 -10.18682 -10.18615 -10.18547
 Alpha  occ. eigenvalues --  -10.18530 -10.18521 -10.18024 -10.17965  -1.06162
 Alpha  occ. eigenvalues --   -0.86084  -0.83886  -0.77108  -0.75391  -0.73975
 Alpha  occ. eigenvalues --   -0.71566  -0.69287  -0.62144  -0.60851  -0.58627
 Alpha  occ. eigenvalues --   -0.57013  -0.53386  -0.50113  -0.48391  -0.47845
 Alpha  occ. eigenvalues --   -0.46696  -0.45595  -0.44185  -0.42865  -0.41961
 Alpha  occ. eigenvalues --   -0.41423  -0.41055  -0.37667  -0.36915  -0.36521
 Alpha  occ. eigenvalues --   -0.35772  -0.34061  -0.33618  -0.32196  -0.31656
 Alpha  occ. eigenvalues --   -0.26775  -0.24634  -0.22506  -0.21435
 Alpha virt. eigenvalues --   -0.02229   0.00228   0.01000   0.03773   0.09560
 Alpha virt. eigenvalues --    0.10027   0.11135   0.12898   0.13999   0.14904
 Alpha virt. eigenvalues --    0.15540   0.15866   0.16682   0.17068   0.17479

 Mulliken atomic charges:
              1
     1  C   -0.236308
     2  O   -0.437901
     3  C    0.372761
     4  C   -0.191246
     5  C   -0.148228
     6  C   -0.134136
     7  C    0.076815
     8  C   -0.227927
     9  C    0.066632
    10  C   -0.187664
    11  C   -0.134508
    12  C   -0.157610
    13  C   -0.135654
    14  C   -0.190553
    15  H    0.189635
    16  H    0.179698
    17  H    0.179435
    18  H    0.135583
    19  H    0.143489
    20  H    0.164461
    21  H    0.155541
    22  H    0.101965
    23  H    0.107561
    24  H    0.102133
    25  H    0.107057
    26  H    0.098971
 Sum of Mulliken atomic charges =  -0.00000

 Dipole moment (field-independent basis, Debye):
    X=              7.2536    Y=              0.8251    Z=             -0.1133  Tot=              7.3012
 Quadrupole moment (field-independent basis, Debye-Ang):
   XX=            -65.3082   YY=            -75.5924   ZZ=            -84.9889
   XY=             -2.7683   XZ=              0.1999   YZ=              0.5050

 Summary of Natural Population Analysis:

                                       Natural Population
                Natural  -----------------------------------------------
    Atom  No    Charge         Core      Valence    Rydberg      Total
 -----------------------------------------------------------------------
      C    1   -0.32940      1.99942     4.31579    0.01419     6.32940
      O    2   -0.41533      1.99975     6.40399    0.01159     8.41533
      C    3    0.36384      1.99879     3.61476    0.02260     5.63616
      C    4   -0.33728      1.99904     4.32346    0.01478     6.33728
      C    5   -0.23458      1.99915     4.21832    0.01711     6.23458
      C    6   -0.11290      1.99905     4.10005    0.01380     6.11290
      C    7   -0.04364      1.99906     4.02739    0.01719     6.04364
      C    8   -0.27217      1.99900     4.25625    0.01691     6.27217
      C    9   -0.13270      1.99901     4.11737    0.01632     6.13270
      C   10   -0.24698      1.99905     4.23427    0.01366     6.24698
      C   11   -0.23317      1.99910     4.21966    0.01441     6.23317
      C   12   -0.29476      1.99909     4.27995    0.01572     6.29476
      C   13   -0.23765      1.99910     4.22399    0.01457     6.23765
      C   14   -0.24307      1.99905     4.23064    0.01338     6.24307
      H   15    0.23869      0.00000     0.76085    0.00046     0.76131
      H   16    0.22173      0.00000     0.77666    0.00161     0.77827
      H   17    0.22152      0.00000     0.77686    0.00161     0.77848
      H   18    0.23621      0.00000     0.76283    0.00096     0.76379
      H   19    0.24098      0.00000     0.75819    0.00084     0.75902
      H   20    0.24568      0.00000     0.75333    0.00099     0.75432
      H   21    0.25237      0.00000     0.74627    0.00136     0.74763
      H   22    0.22035      0.00000     0.77842    0.00123     0.77965
      H   23    0.22571      0.00000     0.77337    0.00091     0.77429
      H   24    0.22328      0.00000     0.77587    0.00085     0.77672
      H   25    0.22563      0.00000     0.77346    0.00091     0.77437
      H   26    0.21765      0.00000     0.78124    0.00112     0.78235
 =======================================================================
   * Total *    0.00000     27.98766    69.78325    0.22908    98.00000

 Normal termination of Gaussian 09 at Tue Sep 28 23:12:55 2021.
