 Gaussian 09, Revision A.02,

 -----------------------------------
 #p opt b3lyp/6-31G* scf=(xqc,tight)
 -----------------------------------

 ---------------------------------
 C[Si](Oc1cccc2c1cccc2)(C)C_conf_0
 ---------------------------------
 Symbolic Z-matrix:
 Charge =  0 Multiplicity = 1

 SCF Done:  E(RB3LYP) =  -869.821109961     A.U. after   14 cycles
 SCF Done:  E(RB3LYP) =  -869.826379783     A.U. after   12 cycles
 SCF Done:  E(RB3LYP) =  -869.827019154     A.U. after   11 cycles
 SCF Done:  E(RB3LYP) =  -869.827166697     A.U. after   11 cycles
 SCF Done:  E(RB3LYP) =  -869.827222674     A.U. after   11 cycles
 SCF Done:  E(RB3LYP) =  -869.827237173     A.U. after   10 cycles
 SCF Done:  E(RB3LYP) =  -869.827251526     A.U. after   10 cycles
 SCF Done:  E(RB3LYP) =  -869.827269851     A.U. after   10 cycles
 SCF Done:  E(RB3LYP) =  -869.827281502     A.U. after   10 cycles
 SCF Done:  E(RB3LYP) =  -869.827284853     A.U. after   10 cycles
 SCF Done:  E(RB3LYP) =  -869.827294626     A.U. after    8 cycles
 SCF Done:  E(RB3LYP) =  -869.827294976     A.U. after    8 cycles
 SCF Done:  E(RB3LYP) =  -869.827295132     A.U. after    8 cycles
 SCF Done:  E(RB3LYP) =  -869.827295141     A.U. after    8 cycles
 SCF Done:  E(RB3LYP) =  -869.827295117     A.U. after    8 cycles
 SCF Done:  E(RB3LYP) =  -869.827295021     A.U. after    8 cycles
 SCF Done:  E(RB3LYP) =  -869.827294817     A.U. after    8 cycles
 SCF Done:  E(RB3LYP) =  -869.827294675     A.U. after    7 cycles
 Optimization completed.
    -- Stationary point found.
 Normal termination of Gaussian 09 at Thu Sep 30 21:28:17 2021.

 ----------------------------------------------------------------------
 #p freq b3lyp/6-31G* volume NMR pop=NPA density=current Geom=AllCheck
 Guess=Read
 ----------------------------------------------------------------------

 C[Si](Oc1cccc2c1cccc2)(C)C_conf_0
 ---------------------------------
 Redundant internal coordinates taken from checkpoint file:
 C13H16OSi_44ef_conf_0.chk
 Charge =  0 Multiplicity = 1

 SCF Done:  E(RB3LYP) =  -869.827294675     A.U. after    1 cycles

  1  C    Isotropic =   188.4842   Anisotropy =    11.6175

  2  Si   Isotropic =   392.6083   Anisotropy =    32.2220

  3  O    Isotropic =   217.3475   Anisotropy =   109.5824

  4  C    Isotropic =    43.3417   Anisotropy =   113.0236

  5  C    Isotropic =    84.8124   Anisotropy =   121.5012

  6  C    Isotropic =    70.3358   Anisotropy =   156.9598

  7  C    Isotropic =    75.1919   Anisotropy =   134.1148

  8  C    Isotropic =    61.9244   Anisotropy =   195.4847

  9  C    Isotropic =    69.0502   Anisotropy =   176.8632

 10  C    Isotropic =    71.5641   Anisotropy =   166.3658

 11  C    Isotropic =    71.7784   Anisotropy =   159.2201

 12  C    Isotropic =    70.1376   Anisotropy =   162.0704

 13  C    Isotropic =    68.4469   Anisotropy =   143.8722

 14  C    Isotropic =   188.0395   Anisotropy =     8.9093

 15  C    Isotropic =   190.5275   Anisotropy =     9.3183

 16  H    Isotropic =    31.6461   Anisotropy =     8.7156

 17  H    Isotropic =    32.2083   Anisotropy =     9.8397

 18  H    Isotropic =    31.6838   Anisotropy =     9.0287

 19  H    Isotropic =    25.5625   Anisotropy =     9.0192

 20  H    Isotropic =    25.0225   Anisotropy =     5.6272

 21  H    Isotropic =    25.0334   Anisotropy =     6.0232

 22  H    Isotropic =    23.9576   Anisotropy =    11.0620

 23  H    Isotropic =    24.8315   Anisotropy =     5.9708

 24  H    Isotropic =    24.8518   Anisotropy =     4.8305

 25  H    Isotropic =    24.6758   Anisotropy =     6.7268

 26  H    Isotropic =    31.7153   Anisotropy =     8.2561

 27  H    Isotropic =    31.4613   Anisotropy =     8.9812

 28  H    Isotropic =    32.1237   Anisotropy =     9.7464

 29  H    Isotropic =    31.9902   Anisotropy =     8.6361

 30  H    Isotropic =    32.2598   Anisotropy =    10.0114

 31  H    Isotropic =    31.4167   Anisotropy =     8.7023

  Exact polarizability: 207.357 -11.818 181.905   3.792   0.822  84.246
 Approx polarizability: 302.737 -23.501 312.993   7.498   2.474 121.064

                     1                      2                      3
                     A                      A                      A
 Frequencies --    12.5481                42.2168                76.0627
 Red. masses --     3.8938                 2.9469                 3.5675
 Frc consts  --     0.0004                 0.0031                 0.0122
 IR Inten    --     0.5778                 0.1565                 0.1497

                     4                      5                      6
                     A                      A                      A
 Frequencies --   103.3248               126.9238               135.4499
 Red. masses --     1.1126                 1.0493                 2.9808
 Frc consts  --     0.0070                 0.0100                 0.0322
 IR Inten    --     0.0604                 0.0643                 0.0149

                     7                      8                      9
                     A                      A                      A
 Frequencies --   143.8775               162.1867               176.1057
 Red. masses --     1.0813                 2.9964                 3.7272
 Frc consts  --     0.0132                 0.0464                 0.0681
 IR Inten    --     0.0043                 0.7217                 1.2989

                    10                     11                     12
                     A                      A                      A
 Frequencies --   183.3204               198.9412               239.9679
 Red. masses --     2.7541                 2.6685                 2.9077
 Frc consts  --     0.0545                 0.0622                 0.0987
 IR Inten    --     0.3629                 0.0525                 2.4759

                    13                     14                     15
                     A                      A                      A
 Frequencies --   245.6797               292.7126               299.7036
 Red. masses --     3.3482                 3.6334                 4.5080
 Frc consts  --     0.1191                 0.1834                 0.2386
 IR Inten    --     5.3449                 5.4742                 5.5836

                    16                     17                     18
                     A                      A                      A
 Frequencies --   425.5965               431.8854               479.6757
 Red. masses --     4.6175                 3.3985                 3.4614
 Frc consts  --     0.4928                 0.3735                 0.4692
 IR Inten    --    12.4210                 1.8565                 0.1817

                    19                     20                     21
                     A                      A                      A
 Frequencies --   488.7726               525.4544               584.1593
 Red. masses --     6.2852                 6.8277                 4.0431
 Frc consts  --     0.8847                 1.1107                 0.8129
 IR Inten    --     3.8941                 0.4265                 4.4354

                    22                     23                     24
                     A                      A                      A
 Frequencies --   590.3429               604.4263               649.3383
 Red. masses --     4.8611                 4.0228                 3.3677
 Frc consts  --     0.9981                 0.8659                 0.8366
 IR Inten    --     3.8595                 5.8707                 2.5343

                    25                     26                     27
                     A                      A                      A
 Frequencies --   690.3299               697.1545               701.3805
 Red. masses --     2.2447                 2.6331                 3.7374
 Frc consts  --     0.6303                 0.7540                 1.0832
 IR Inten    --     7.1325                 3.5079                 3.9042

                    28                     29                     30
                     A                      A                      A
 Frequencies --   706.2076               745.9714               781.2195
 Red. masses --     1.2072                 1.3662                 1.4792
 Frc consts  --     0.3547                 0.4479                 0.5319
 IR Inten    --     0.6413                 0.1134                 2.9312

                    31                     32                     33
                     A                      A                      A
 Frequencies --   785.7972               789.7574               796.2365
 Red. masses --     2.6069                 1.6885                 1.9239
 Frc consts  --     0.9484                 0.6205                 0.7186
 IR Inten    --    16.3103                56.7672                23.6841

                    34                     35                     36
                     A                      A                      A
 Frequencies --   802.7728               809.4399               866.5498
 Red. masses --     5.1705                 1.9180                 1.5102
 Frc consts  --     1.9632                 0.7404                 0.6681
 IR Inten    --    13.5181                46.6418                 1.0282

                    37                     38                     39
                     A                      A                      A
 Frequencies --   887.5998               890.2249               891.7116
 Red. masses --     1.6059                 1.6542                 1.6251
 Frc consts  --     0.7454                 0.7724                 0.7613
 IR Inten    --    33.3214                87.9272                82.1111

                    40                     41                     42
                     A                      A                      A
 Frequencies --   895.9005               931.9534               955.2352
 Red. masses --     1.9995                 4.3543                 1.2874
 Frc consts  --     0.9455                 2.2282                 0.6921
 IR Inten    --   147.9288               310.9525                 0.0522

                    43                     44                     45
                     A                      A                      A
 Frequencies --   963.9789               990.3822              1050.3965
 Red. masses --     1.3061                 1.2645                 2.6202
 Frc consts  --     0.7151                 0.7308                 1.7033
 IR Inten    --     2.4139                 0.0041                15.5350

                    46                     47                     48
                     A                      A                      A
 Frequencies --  1085.6155              1120.8538              1178.8427
 Red. masses --     2.3797                 2.4045                 1.3510
 Frc consts  --     1.6525                 1.7798                 1.1062
 IR Inten    --    55.0980                90.0388                 4.0370

                    49                     50                     51
                     A                      A                      A
 Frequencies --  1188.7499              1207.4086              1247.8985
 Red. masses --     1.1454                 1.3501                 2.1714
 Frc consts  --     0.9537                 1.1596                 1.9923
 IR Inten    --     6.5782                13.2802                 1.1981

                    52                     53                     54
                     A                      A                      A
 Frequencies --  1278.2007              1309.1554              1333.4376
 Red. masses --     1.6941                 2.5496                 1.2587
 Frc consts  --     1.6307                 2.5746                 1.3186
 IR Inten    --    58.1501               212.4044                39.4923

                    55                     56                     57
                     A                      A                      A
 Frequencies --  1334.3369              1342.6600              1384.5520
 Red. masses --     1.2538                 1.2400                 3.1375
 Frc consts  --     1.3152                 1.3171                 3.5437
 IR Inten    --    40.0109                57.1991                 2.3181

                    58                     59                     60
                     A                      A                      A
 Frequencies --  1414.7639              1441.9674              1483.5836
 Red. masses --     8.8042                 2.2894                 1.0542
 Frc consts  --    10.3826                 2.8047                 1.3671
 IR Inten    --     1.2375               144.4224                 0.1302

                    61                     62                     63
                     A                      A                      A
 Frequencies --  1488.5182              1488.9931              1491.1072
 Red. masses --     2.0782                 1.0561                 1.0597
 Frc consts  --     2.7129                 1.3795                 1.3882
 IR Inten    --    29.1432                 0.1915                 0.5560

                    64                     65                     66
                     A                      A                      A
 Frequencies --  1496.1751              1497.2970              1506.2043
 Red. masses --     1.0508                 1.0516                 1.5521
 Frc consts  --     1.3859                 1.3890                 2.0746
 IR Inten    --     4.3425                 4.9438                13.6811

                    67                     68                     69
                     A                      A                      A
 Frequencies --  1510.0423              1563.0936              1630.2559
 Red. masses --     1.4050                 3.5129                 7.0129
 Frc consts  --     1.8876                 5.0568                10.9814
 IR Inten    --    46.2141                31.2747                88.3794

                    70                     71                     72
                     A                      A                      A
 Frequencies --  1652.8169              1681.3326              3044.2063
 Red. masses --     5.1086                 6.1338                 1.0364
 Frc consts  --     8.2225                10.2162                 5.6590
 IR Inten    --    21.8166                 4.8453                 3.6192

                    73                     74                     75
                     A                      A                      A
 Frequencies --  3046.4490              3048.5237              3113.8121
 Red. masses --     1.0363                 1.0358                 1.0994
 Frc consts  --     5.6666                 5.6716                 6.2806
 IR Inten    --     3.1827                 4.2092                 8.4715

                    76                     77                     78
                     A                      A                      A
 Frequencies --  3116.3054              3120.2380              3125.1005
 Red. masses --     1.0999                 1.0999                 1.1008
 Frc consts  --     6.2936                 6.3094                 6.3342
 IR Inten    --     6.6056                33.1695                 9.0823

                    79                     80                     81
                     A                      A                      A
 Frequencies --  3127.2420              3129.3055              3176.9913
 Red. masses --     1.1009                 1.1002                 1.0858
 Frc consts  --     6.3436                 6.3479                 6.4571
 IR Inten    --    13.5968                13.4378                 1.3229

                    82                     83                     84
                     A                      A                      A
 Frequencies --  3182.2135              3189.1748              3198.7135
 Red. masses --     1.0857                 1.0898                 1.0933
 Frc consts  --     6.4778                 6.5307                 6.5908
 IR Inten    --     1.4898                16.0026                36.8777

                    85                     86                     87
                     A                      A                      A
 Frequencies --  3203.7043              3215.6985              3228.9825
 Red. masses --     1.0952                 1.0930                 1.0927
 Frc consts  --     6.6229                 6.6593                 6.7122
 IR Inten    --    39.1452                21.8204                 8.5321

 - Thermochemistry -
 -------------------
 Temperature   298.150 Kelvin.  Pressure   1.00000 Atm.
 Atom     1 has atomic number  6 and mass  12.00000

 Molecular mass:   216.09704 amu.
 Principal axes and moments of inertia in atomic units:
                           1         2         3
     Eigenvalues --  1789.933935401.908216600.86842
           X            1.00000   0.00124   0.00021
           Y           -0.00124   1.00000   0.00009
           Z           -0.00021  -0.00009   1.00000
 This molecule is an asymmetric top.
 Rotational symmetry number  1.
 Warning -- assumption of classical behavior for rotation
           may cause significant error
 Rotational temperatures (Kelvin)      0.04839     0.01603     0.01312
 Rotational constants (GHZ):           1.00827     0.33409     0.27341
 Zero-point vibrational energy     666759.0 (Joules/Mol)
                                  159.35922 (Kcal/Mol)
 Warning -- explicit consideration of  23 degrees of freedom as
           vibrations may cause significant error
 Vibrational temperatures:     18.05    60.74   109.44   148.66   182.61
          (Kelvin)            194.88   207.01   233.35   253.38   263.76
                              286.23   345.26   353.48   421.15   431.21
                              612.34   621.39   690.15   703.23   756.01
                              840.47   849.37   869.63   934.25   993.23
                             1003.05  1009.13  1016.07  1073.29  1124.00
                             1130.59  1136.28  1145.61  1155.01  1164.60
                             1246.77  1277.06  1280.83  1282.97  1289.00
                             1340.87  1374.37  1386.95  1424.94  1511.28
                             1561.96  1612.66  1696.09  1710.34  1737.19
                             1795.45  1839.04  1883.58  1918.52  1919.81
                             1931.79  1992.06  2035.53  2074.67  2134.54
                             2141.64  2142.33  2145.37  2152.66  2154.27
                             2167.09  2172.61  2248.94  2345.57  2378.03
                             2419.06  4379.93  4383.16  4386.14  4480.08
                             4483.66  4489.32  4496.32  4499.40  4502.37
                             4570.98  4578.49  4588.51  4602.23  4609.41
                             4626.67  4645.78

 Zero-point correction=                           0.253955 (Hartree/Particle)
 Thermal correction to Energy=                    0.269912
 Thermal correction to Enthalpy=                  0.270856
 Thermal correction to Gibbs Free Energy=         0.209519
 Sum of electronic and zero-point Energies=           -869.573340
 Sum of electronic and thermal Energies=              -869.557383
 Sum of electronic and thermal Enthalpies=            -869.556439
 Sum of electronic and thermal Free Energies=         -869.617776

                     E (Thermal)             CV                S
                      KCal/Mol        Cal/Mol-Kelvin    Cal/Mol-Kelvin
 Total                  169.372             60.427            129.094
 Electronic               0.000              0.000              0.000
 Translational            0.889              2.981             42.015
 Rotational               0.889              2.981             32.523
 Vibrational            167.595             54.466             54.556
 Vibration     1          0.593              1.987              7.560
 Vibration     2          0.595              1.980              5.152
 Vibration     3          0.599              1.965              3.990
 Vibration     4          0.605              1.947              3.391
 Vibration     5          0.611              1.926              2.992
 Vibration     6          0.613              1.918              2.867
 Vibration     7          0.616              1.909              2.752
 Vibration     8          0.622              1.889              2.524
 Vibration     9          0.628              1.872              2.369
 Vibration    10          0.631              1.863              2.294
 Vibration    11          0.637              1.841              2.143
 Vibration    12          0.657              1.779              1.803
 Vibration    13          0.660              1.770              1.761
 Vibration    14          0.688              1.687              1.458
 Vibration    15          0.692              1.674              1.419
 Vibration    16          0.787              1.415              0.873
 Vibration    17          0.793              1.401              0.853
 Vibration    18          0.836              1.295              0.711
 Vibration    19          0.845              1.275              0.687
 Vibration    20          0.880              1.194              0.597
 Vibration    21          0.941              1.066              0.478
 Vibration    22          0.948              1.052              0.467
 Vibration    23          0.963              1.022              0.442

 Normal termination of Gaussian 09 at Thu Sep 30 22:32:48 2021.
 Gaussian 09:  AM64L-G09RevA.02 11-Jun-2009

 ----------------------------------------------------------------------
 #p TD(NStates=10, Root=1) b3lyp/6-31G* volume pop=NPA density=current
 Geom=AllCheck Guess=Read
 ----------------------------------------------------------------------

 C[Si](Oc1cccc2c1cccc2)(C)C_conf_0
 ---------------------------------
 Redundant internal coordinates taken from checkpoint file:
 C13H16OSi_44ef_conf_0.chk
 Charge =  0 Multiplicity = 1

                         Standard orientation:
 ---------------------------------------------------------------------
 Center     Atomic      Atomic             Coordinates (Angstroms)
 Number     Number       Type             X           Y           Z
 ---------------------------------------------------------------------
      1          6           0       -3.321855   -2.019777   -0.042003
      2         14           0       -2.652052   -0.265591    0.026836
      3          8           0       -0.983261   -0.477593   -0.176482
      4          6           0        0.074808    0.378758   -0.105599
      5          6           0       -0.054923    1.754720   -0.091554
      6          6           0        1.091136    2.581581   -0.021400
      7          6           0        2.353306    2.039637    0.030116
      8          6           0        2.524842    0.628974    0.011200
      9          6           0        1.374448   -0.222060   -0.057707
     10          6           0        1.553075   -1.629569   -0.076877
     11          6           0        2.815991   -2.178102   -0.029768
     12          6           0        3.956103   -1.342408    0.039100
     13          6           0        3.810968    0.026463    0.059029
     14          6           0       -3.370431    0.756979   -1.386525
     15          6           0       -3.003365    0.529051    1.699970
     16          1           0       -3.081307   -2.495590   -0.999499
     17          1           0       -4.412711   -2.030414    0.071702
     18          1           0       -2.895811   -2.639071    0.755341
     19          1           0       -1.038114    2.210546   -0.143007
     20          1           0        0.958883    3.660333   -0.010477
     21          1           0        3.231266    2.678092    0.083609
     22          1           0        0.674412   -2.262602   -0.130941
     23          1           0        2.940078   -3.257674   -0.045707
     24          1           0        4.947923   -1.785467    0.075996
     25          1           0        4.684730    0.671989    0.111476
     26          1           0       -3.095488    0.325634   -2.356140
     27          1           0       -3.030452    1.798212   -1.379384
     28          1           0       -4.466298    0.768005   -1.328000
     29          1           0       -2.615595   -0.092221    2.515562
     30          1           0       -4.083772    0.643321    1.853294
     31          1           0       -2.547551    1.520441    1.794426
 ---------------------------------------------------------------------

 SCF Done:  E(RB3LYP) =  -869.827294675     A.U. after    1 cycles

 Excitation energies and oscillator strengths:

 Excited State   1:      Singlet-A      4.2234 eV  293.57 nm  f=0.1019  <S**2>=0.000
      57 -> 60        -0.12820
      58 -> 59         0.68806
 This state for optimization and/or second-order correction.
 Total Energy, E(TD-HF/TD-KS) =  -869.672088600
 Copying the excited state density for this state as the 1-particle RhoCI density.

 Excited State   2:      Singlet-A      4.4301 eV  279.87 nm  f=0.0148  <S**2>=0.000
      57 -> 59         0.42712
      58 -> 60         0.56052

 Excited State   3:      Singlet-A      5.5693 eV  222.62 nm  f=0.0175  <S**2>=0.000
      56 -> 59         0.58501
      57 -> 60         0.14873
      58 -> 61         0.34381

 Excited State   4:      Singlet-A      5.7821 eV  214.43 nm  f=0.5679  <S**2>=0.000
      56 -> 60        -0.32636
      57 -> 59         0.46717
      57 -> 61         0.12810
      58 -> 60        -0.36943

 Excited State   5:      Singlet-A      6.1805 eV  200.61 nm  f=0.2015  <S**2>=0.000
      54 -> 59        -0.10458
      56 -> 59        -0.28825
      56 -> 60         0.29934
      57 -> 59         0.13049
      57 -> 61        -0.13322
      58 -> 61         0.50065

 Excited State   6:      Singlet-A      6.2509 eV  198.35 nm  f=0.2194  <S**2>=0.000
      56 -> 59        -0.16895
      56 -> 61         0.16418
      57 -> 60         0.64104
      58 -> 59         0.11418

 Excited State   7:      Singlet-A      6.2940 eV  196.99 nm  f=0.3292  <S**2>=0.000
      53 -> 59        -0.10676
      54 -> 59         0.12003
      55 -> 59        -0.12495
      56 -> 59         0.13527
      56 -> 60         0.43132
      57 -> 59         0.25204
      57 -> 60         0.14394
      57 -> 61        -0.21755
      58 -> 60        -0.18753
      58 -> 61        -0.27159

 Excited State   8:      Singlet-A      6.4085 eV  193.47 nm  f=0.0049  <S**2>=0.000
      52 -> 59        -0.21924
      55 -> 59         0.64316
      58 -> 61        -0.11595

 Excited State   9:      Singlet-A      6.4675 eV  191.70 nm  f=0.0003  <S**2>=0.000
      58 -> 62         0.63685
      58 -> 63        -0.27352

 Excited State  10:      Singlet-A      6.6374 eV  186.80 nm  f=0.0008  <S**2>=0.000
      58 -> 62         0.26115
      58 -> 63         0.64084
      58 -> 64        -0.10583

 The electronic state is 1-A.
 Alpha  occ. eigenvalues --  -66.15174 -19.15580 -10.24716 -10.19095 -10.18797
 Alpha  occ. eigenvalues --  -10.18614 -10.18403 -10.18260 -10.18204 -10.18103
 Alpha  occ. eigenvalues --  -10.18047 -10.17769 -10.16698 -10.16635 -10.16494
 Alpha  occ. eigenvalues --   -5.29263  -3.65385  -3.65048  -3.65034  -1.02815
 Alpha  occ. eigenvalues --   -0.85982  -0.80995  -0.75803  -0.73383  -0.71794
 Alpha  occ. eigenvalues --   -0.70449  -0.68325  -0.68167  -0.62030  -0.60884
 Alpha  occ. eigenvalues --   -0.58967  -0.53360  -0.50976  -0.49247  -0.47308
 Alpha  occ. eigenvalues --   -0.44288  -0.43363  -0.42214  -0.42122  -0.41491
 Alpha  occ. eigenvalues --   -0.41008  -0.40725  -0.40297  -0.39551  -0.39179
 Alpha  occ. eigenvalues --   -0.39086  -0.38506  -0.36880  -0.35841  -0.34886
 Alpha  occ. eigenvalues --   -0.32982  -0.32030  -0.31460  -0.29990  -0.29163
 Alpha  occ. eigenvalues --   -0.25674  -0.23618  -0.19624
 Alpha virt. eigenvalues --   -0.02599  -0.00161   0.04759   0.06703   0.07484
 Alpha virt. eigenvalues --    0.09182   0.09506   0.10585   0.11741   0.12160
 Alpha virt. eigenvalues --    0.13262   0.13805   0.13882   0.15121   0.16377

 Mulliken atomic charges:
              1
     1  C   -0.665772
     2  Si   0.886538
     3  O   -0.591590
     4  C    0.324831
     5  C   -0.188894
     6  C   -0.141232
     7  C   -0.178198
     8  C    0.139395
     9  C    0.085378
    10  C   -0.222014
    11  C   -0.132243
    12  C   -0.134005
    13  C   -0.241457
    14  C   -0.685769
    15  C   -0.681939
    16  H    0.175869
    17  H    0.165386
    18  H    0.176125
    19  H    0.141072
    20  H    0.135342
    21  H    0.140690
    22  H    0.127994
    23  H    0.115955
    24  H    0.112750
    25  H    0.107104
    26  H    0.177345
    27  H    0.168014
    28  H    0.168076
    29  H    0.177683
    30  H    0.167415
    31  H    0.170149
 Sum of Mulliken atomic charges =  -0.00000

 Dipole moment (field-independent basis, Debye):
    X=             -3.7054    Y=              1.6381    Z=              0.1871  Tot=              4.0557
 Quadrupole moment (field-independent basis, Debye-Ang):
   XX=            -89.2737   YY=            -89.7590   ZZ=            -99.2669
   XY=              3.0774   XZ=              0.1208   YZ=             -0.0449

 Summary of Natural Population Analysis:

                                       Natural Population
                Natural  -----------------------------------------------
    Atom  No    Charge         Core      Valence    Rydberg      Total
 -----------------------------------------------------------------------
      C    1   -1.22051      1.99949     5.21211    0.00891     7.22051
     Si    2    2.00654      9.99783     1.94910    0.04654    11.99346
      O    3   -0.80728      1.99976     6.79521    0.01232     8.80728
      C    4    0.38450      1.99873     3.59460    0.02217     5.61550
      C    5   -0.28606      1.99904     4.27311    0.01391     6.28606
      C    6   -0.23040      1.99912     4.21565    0.01562     6.23040
      C    7   -0.16207      1.99904     4.14814    0.01489     6.16207
      C    8   -0.05812      1.99904     4.04383    0.01525     6.05812
      C    9   -0.07740      1.99897     4.06344    0.01500     6.07740
      C   10   -0.28762      1.99907     4.27061    0.01794     6.28762
      C   11   -0.21687      1.99911     4.20226    0.01551     6.21687
      C   12   -0.24886      1.99911     4.23392    0.01584     6.24886
      C   13   -0.28307      1.99906     4.26714    0.01687     6.28307
      C   14   -1.22448      1.99948     5.21543    0.00957     7.22448
      C   15   -1.22528      1.99948     5.21639    0.00941     7.22528
      H   16    0.26018      0.00000     0.73904    0.00077     0.73982
      H   17    0.25354      0.00000     0.74588    0.00058     0.74646
      H   18    0.26020      0.00000     0.73903    0.00077     0.73980
      H   19    0.23152      0.00000     0.76742    0.00106     0.76848
      H   20    0.23811      0.00000     0.76106    0.00083     0.76189
      H   21    0.23534      0.00000     0.76351    0.00115     0.76466
      H   22    0.23596      0.00000     0.76287    0.00117     0.76404
      H   23    0.22831      0.00000     0.77082    0.00087     0.77169
      H   24    0.22849      0.00000     0.77067    0.00084     0.77151
      H   25    0.22216      0.00000     0.77671    0.00113     0.77784
      H   26    0.26105      0.00000     0.73818    0.00077     0.73895
      H   27    0.25183      0.00000     0.74748    0.00069     0.74817
      H   28    0.25673      0.00000     0.74267    0.00060     0.74327
      H   29    0.26112      0.00000     0.73811    0.00077     0.73888
      H   30    0.25656      0.00000     0.74286    0.00059     0.74344
      H   31    0.25587      0.00000     0.74322    0.00091     0.74413
 =======================================================================
   * Total *   -0.00000     37.98632    77.75044    0.26324   116.00000

 Normal termination of Gaussian 09 at Fri Oct  1 03:00:25 2021.
