 Gaussian 09, Revision A.02,

 -----------------------------------
 #p opt b3lyp/6-31G* scf=(xqc,tight)
 -----------------------------------

 ---------------------------
 COc1ccc(cc1)c1ccccc1_conf_0
 ---------------------------
 Symbolic Z-matrix:
 Charge =  0 Multiplicity = 1

 SCF Done:  E(RB3LYP) =  -577.827258278     A.U. after   14 cycles
 SCF Done:  E(RB3LYP) =  -577.828666606     A.U. after   12 cycles
 SCF Done:  E(RB3LYP) =  -577.828791612     A.U. after   11 cycles
 SCF Done:  E(RB3LYP) =  -577.828801540     A.U. after    9 cycles
 SCF Done:  E(RB3LYP) =  -577.828802558     A.U. after    8 cycles
 SCF Done:  E(RB3LYP) =  -577.828802702     A.U. after    7 cycles
 SCF Done:  E(RB3LYP) =  -577.828802762     A.U. after    7 cycles
 SCF Done:  E(RB3LYP) =  -577.828802799     A.U. after    7 cycles
 Optimization completed.
    -- Stationary point found.
 Normal termination of Gaussian 09 at Tue Sep 28 17:53:25 2021.

 ----------------------------------------------------------------------
 #p freq b3lyp/6-31G* volume NMR pop=NPA density=current Geom=AllCheck
 Guess=Read
 ----------------------------------------------------------------------

 COc1ccc(cc1)c1ccccc1_conf_0
 ---------------------------
 Redundant internal coordinates taken from checkpoint file:
 C13H12O_ab52_conf_0.chk
 Charge =  0 Multiplicity = 1

 SCF Done:  E(RB3LYP) =  -577.828802799     A.U. after    1 cycles

  1  C    Isotropic =   137.4847   Anisotropy =    65.0453

  2  O    Isotropic =   237.6563   Anisotropy =    79.7687

  3  C    Isotropic =    39.3935   Anisotropy =   126.9321

  4  C    Isotropic =    86.0849   Anisotropy =   142.4315

  5  C    Isotropic =    67.5483   Anisotropy =   152.5223

  6  C    Isotropic =    61.3645   Anisotropy =   165.7167

  7  C    Isotropic =    67.4068   Anisotropy =   152.7698

  8  C    Isotropic =    77.8001   Anisotropy =   134.8332

  9  C    Isotropic =    54.2018   Anisotropy =   177.1251

 10  C    Isotropic =    69.3502   Anisotropy =   153.0337

 11  C    Isotropic =    67.9167   Anisotropy =   164.2137

 12  C    Isotropic =    70.3555   Anisotropy =   164.0993

 13  C    Isotropic =    67.8827   Anisotropy =   164.2783

 14  C    Isotropic =    69.2340   Anisotropy =   153.5856

 15  H    Isotropic =    28.2804   Anisotropy =     8.0428

 16  H    Isotropic =    28.6093   Anisotropy =     7.9393

 17  H    Isotropic =    28.6135   Anisotropy =     8.0331

 18  H    Isotropic =    25.7243   Anisotropy =     7.4904

 19  H    Isotropic =    24.9159   Anisotropy =     8.4489

 20  H    Isotropic =    24.8925   Anisotropy =     8.0258

 21  H    Isotropic =    25.4232   Anisotropy =     5.9428

 22  H    Isotropic =    24.9187   Anisotropy =     8.5056

 23  H    Isotropic =    24.9436   Anisotropy =     4.9193

 24  H    Isotropic =    25.0763   Anisotropy =     4.1758

 25  H    Isotropic =    24.9411   Anisotropy =     4.8789

 26  H    Isotropic =    24.9118   Anisotropy =     8.5146

  Exact polarizability: 231.989   0.901 130.057   0.737   2.406  61.835
 Approx polarizability: 321.975  -2.880 233.759   3.089   3.653  97.259

                     1                      2                      3
                     A                      A                      A
 Frequencies --    53.5494                69.6159                98.0533
 Red. masses --     3.6992                 3.8384                 4.1282
 Frc consts  --     0.0062                 0.0110                 0.0234
 IR Inten    --     1.4468                 0.0877                 0.6269

                     4                      5                      6
                     A                      A                      A
 Frequencies --   109.5870               195.8666               234.0622
 Red. masses --     4.0310                 2.7872                 2.6510
 Frc consts  --     0.0285                 0.0630                 0.0856
 IR Inten    --     2.0235                 1.4612                 1.0343

                     7                      8                      9
                     A                      A                      A
 Frequencies --   255.7467               284.5939               340.4172
 Red. masses --     1.5434                 5.4316                 4.1443
 Frc consts  --     0.0595                 0.2592                 0.2830
 IR Inten    --     0.6896                 0.9182                 1.3882

                    10                     11                     12
                     A                      A                      A
 Frequencies --   418.1477               421.7201               429.4030
 Red. masses --     3.2691                 4.2821                 3.2699
 Frc consts  --     0.3368                 0.4487                 0.3552
 IR Inten    --     0.6375                 0.4034                 0.2529

                    13                     14                     15
                     A                      A                      A
 Frequencies --   480.9783               521.6358               564.3982
 Red. masses --     4.0862                 3.4228                 2.4464
 Frc consts  --     0.5570                 0.5487                 0.4591
 IR Inten    --     0.6182                 6.5940                 2.7843

                    16                     17                     18
                     A                      A                      A
 Frequencies --   581.1875               633.0432               654.3547
 Red. masses --     5.7006                 6.4196                 6.8193
 Frc consts  --     1.1345                 1.5157                 1.7203
 IR Inten    --    23.1249                 0.1035                 1.2590

                    19                     20                     21
                     A                      A                      A
 Frequencies --   714.8809               717.7094               729.5760
 Red. masses --     2.0390                 5.1736                 3.2968
 Frc consts  --     0.6140                 1.5701                 1.0339
 IR Inten    --    19.5546                 1.0829                 5.7401

                    22                     23                     24
                     A                      A                      A
 Frequencies --   778.7544               824.6922               826.7915
 Red. masses --     1.9423                 4.3875                 1.3747
 Frc consts  --     0.6940                 1.7581                 0.5537
 IR Inten    --    44.0819                 6.0336                 5.9799

                    25                     26                     27
                     A                      A                      A
 Frequencies --   850.7167               861.0129               926.1804
 Red. masses --     1.6325                 1.2503                 1.3916
 Frc consts  --     0.6961                 0.5461                 0.7033
 IR Inten    --    35.5048                 0.0243                 1.2154

                    28                     29                     30
                     A                      A                      A
 Frequencies --   949.4913               964.1087               969.1190
 Red. masses --     1.3260                 1.3003                 1.3422
 Frc consts  --     0.7043                 0.7121                 0.7427
 IR Inten    --     0.5407                 0.3899                 0.1215

                    31                     32                     33
                     A                      A                      A
 Frequencies --   993.8306              1016.7431              1020.2653
 Red. masses --     1.2418                 5.9583                 5.1903
 Frc consts  --     0.7227                 3.6291                 3.1833
 IR Inten    --     0.1528                 0.2912                 3.6677

                    34                     35                     36
                     A                      A                      A
 Frequencies --  1042.4436              1069.2038              1083.2554
 Red. masses --     3.1425                 2.1538                 4.0005
 Frc consts  --     2.0120                 1.4507                 2.7658
 IR Inten    --     4.6251                 4.3699                52.3138

                    37                     38                     39
                     A                      A                      A
 Frequencies --  1113.5072              1146.1983              1184.7834
 Red. masses --     1.6112                 1.3220                 1.2708
 Frc consts  --     1.1770                 1.0233                 1.0510
 IR Inten    --     3.4228                 7.0632                 0.7566

                    40                     41                     42
                     A                      A                      A
 Frequencies --  1192.9319              1210.9079              1218.5026
 Red. masses --     1.0957                 1.1537                 1.3859
 Frc consts  --     0.9187                 0.9967                 1.2123
 IR Inten    --     0.0899                34.5279                10.6882

                    43                     44                     45
                     A                      A                      A
 Frequencies --  1220.0774              1297.7316              1312.7146
 Red. masses --     1.1517                 4.3934                 2.8048
 Frc consts  --     1.0101                 4.3593                 2.8477
 IR Inten    --    13.3769               252.8318                 9.0380

                    46                     47                     48
                     A                      A                      A
 Frequencies --  1320.1474              1348.0006              1354.4113
 Red. masses --     2.9824                 1.6026                 4.8645
 Frc consts  --     3.0624                 1.7157                 5.2576
 IR Inten    --    54.8469                21.7092                30.9999

                    49                     50                     51
                     A                      A                      A
 Frequencies --  1371.9436              1458.1398              1496.8542
 Red. masses --     1.7548                 2.8770                 2.1857
 Frc consts  --     1.9460                 3.6040                 2.8853
 IR Inten    --     6.4438                 2.0949                 4.7099

                    52                     53                     54
                     A                      A                      A
 Frequencies --  1500.3293              1520.6542              1533.5333
 Red. masses --     1.2561                 1.0481                 1.0920
 Frc consts  --     1.6658                 1.4280                 1.5131
 IR Inten    --    25.1372                 5.4227                71.0497

                    55                     56                     57
                     A                      A                      A
 Frequencies --  1541.6472              1570.4994              1620.3800
 Red. masses --     2.0023                 2.5931                 5.7250
 Frc consts  --     2.8038                 3.7682                 8.8565
 IR Inten    --    48.5893                70.0555                 8.5281

                    58                     59                     60
                     A                      A                      A
 Frequencies --  1639.2981              1661.7847              1673.0933
 Red. masses --     5.9416                 5.5030                 5.7392
 Frc consts  --     9.4073                 8.9536                 9.4655
 IR Inten    --     5.9879                33.0012                62.4779

                    61                     62                     63
                     A                      A                      A
 Frequencies --  3024.7437              3083.1965              3156.8792
 Red. masses --     1.0348                 1.1067                 1.0996
 Frc consts  --     5.5782                 6.1985                 6.4567
 IR Inten    --    64.2032                44.3737                30.1556

                    64                     65                     66
                     A                      A                      A
 Frequencies --  3178.8490              3185.0141              3192.6557
 Red. masses --     1.0845                 1.0873                 1.0888
 Frc consts  --     6.4566                 6.4985                 6.5387
 IR Inten    --     6.0441                 3.7331                27.9074

                    67                     68                     69
                     A                      A                      A
 Frequencies --  3194.2002              3197.7274              3202.3058
 Red. masses --     1.0890                 1.0897                 1.0931
 Frc consts  --     6.5467                 6.5653                 6.6043
 IR Inten    --     3.1770                 3.7419                39.0531

                    70                     71                     72
                     A                      A                      A
 Frequencies --  3210.1320              3215.9512              3224.7577
 Red. masses --     1.0977                 1.0939                 1.0917
 Frc consts  --     6.6649                 6.6656                 6.6891
 IR Inten    --    23.9225                 9.6032                13.6054

 - Thermochemistry -
 -------------------
 Temperature   298.150 Kelvin.  Pressure   1.00000 Atm.
 Atom     1 has atomic number  6 and mass  12.00000

 Molecular mass:   184.08882 amu.
 Principal axes and moments of inertia in atomic units:
                           1         2         3
     Eigenvalues --   691.202615923.973826463.43728
           X            0.99997   0.00789  -0.00201
           Y           -0.00788   0.99997   0.00087
           Z            0.00201  -0.00085   1.00000
 This molecule is an asymmetric top.
 Rotational symmetry number  1.
 Warning -- assumption of classical behavior for rotation
           may cause significant error
 Rotational temperatures (Kelvin)      0.12531     0.01462     0.01340
 Rotational constants (GHZ):           2.61102     0.30465     0.27922
 Zero-point vibrational energy     563797.7 (Joules/Mol)
                                  134.75089 (Kcal/Mol)
 Warning -- explicit consideration of  16 degrees of freedom as
           vibrations may cause significant error
 Vibrational temperatures:     77.05   100.16   141.08   157.67   281.81
          (Kelvin)            336.76   367.96   409.47   489.78   601.62
                              606.76   617.81   692.02   750.52   812.04
                              836.20   910.81   941.47  1028.55  1032.62
                             1049.70  1120.45  1186.55  1189.57  1223.99
                             1238.80  1332.57  1366.10  1387.14  1394.34
                             1429.90  1462.86  1467.93  1499.84  1538.34
                             1558.56  1602.09  1649.12  1704.64  1716.36
                             1742.22  1753.15  1755.42  1867.14  1888.70
                             1899.40  1939.47  1948.69  1973.92  2097.94
                             2153.64  2158.64  2187.88  2206.41  2218.08
                             2259.60  2331.36  2358.58  2390.93  2407.21
                             4351.93  4436.03  4542.04  4573.65  4582.52
                             4593.51  4595.74  4600.81  4607.40  4618.66
                             4627.03  4639.70

 Zero-point correction=                           0.214739 (Hartree/Particle)
 Thermal correction to Energy=                    0.226218
 Thermal correction to Enthalpy=                  0.227162
 Thermal correction to Gibbs Free Energy=         0.176692
 Sum of electronic and zero-point Energies=           -577.614064
 Sum of electronic and thermal Energies=              -577.602585
 Sum of electronic and thermal Enthalpies=            -577.601640
 Sum of electronic and thermal Free Energies=         -577.652111

                     E (Thermal)             CV                S
                      KCal/Mol        Cal/Mol-Kelvin    Cal/Mol-Kelvin
 Total                  141.954             45.456            106.224
 Electronic               0.000              0.000              0.000
 Translational            0.889              2.981             41.537
 Rotational               0.889              2.981             31.649
 Vibrational            140.177             39.494             33.038
 Vibration     1          0.596              1.976              4.682
 Vibration     2          0.598              1.969              4.164
 Vibration     3          0.603              1.951              3.493
 Vibration     4          0.606              1.942              3.276
 Vibration     5          0.636              1.846              2.172
 Vibration     6          0.654              1.789              1.848
 Vibration     7          0.666              1.753              1.691
 Vibration     8          0.683              1.702              1.506
 Vibration     9          0.720              1.595              1.210
 Vibration    10          0.781              1.431              0.898
 Vibration    11          0.784              1.423              0.886
 Vibration    12          0.791              1.406              0.861
 Vibration    13          0.837              1.292              0.707
 Vibration    14          0.877              1.202              0.606
 Vibration    15          0.920              1.108              0.515
 Vibration    16          0.938              1.072              0.483

 Optimization completed.
    -- Stationary point found.
 Normal termination of Gaussian 09 at Tue Sep 28 18:40:53 2021.
 Gaussian 09:  AM64L-G09RevA.02 11-Jun-2009

 ----------------------------------------------------------------------
 #p TD(NStates=10, Root=1) b3lyp/6-31G* volume pop=NPA density=current
 Geom=AllCheck Guess=Read
 ----------------------------------------------------------------------

 COc1ccc(cc1)c1ccccc1_conf_0
 ---------------------------
 Redundant internal coordinates taken from checkpoint file:
 C13H12O_ab52_conf_0.chk
 Charge =  0 Multiplicity = 1

                         Standard orientation:
 ---------------------------------------------------------------------
 Center     Atomic      Atomic             Coordinates (Angstroms)
 Number     Number       Type             X           Y           Z
 ---------------------------------------------------------------------
      1          6           0       -4.864996   -0.660558    0.211071
      2          8           0       -4.025583    0.432796   -0.122474
      3          6           0       -2.673710    0.248440   -0.070434
      4          6           0       -2.042889   -0.945663    0.295779
      5          6           0       -0.648333   -1.013655    0.312721
      6          6           0        0.151097    0.085356   -0.028842
      7          6           0       -0.507424    1.275452   -0.394046
      8          6           0       -1.892014    1.360583   -0.416089
      9          6           0        1.632706    0.000680   -0.005080
     10          6           0        2.298934   -1.168706   -0.410931
     11          6           0        3.690400   -1.249636   -0.384438
     12          6           0        4.451035   -0.160117    0.043840
     13          6           0        3.804846    1.009800    0.447229
     14          6           0        2.413127    1.087978    0.424906
     15          1           0       -5.888414   -0.297300    0.100184
     16          1           0       -4.708188   -0.989674    1.246996
     17          1           0       -4.707965   -1.512162   -0.464354
     18          1           0       -2.619281   -1.819113    0.578924
     19          1           0       -0.175750   -1.940581    0.625920
     20          1           0        0.078667    2.140886   -0.690448
     21          1           0       -2.394896    2.277251   -0.708428
     22          1           0        1.719485   -2.012572   -0.775394
     23          1           0        4.181785   -2.162998   -0.710041
     24          1           0        5.535801   -0.221891    0.062466
     25          1           0        4.385341    1.862311    0.790655
     26          1           0        1.921406    1.993744    0.769189
 ---------------------------------------------------------------------

 SCF Done:  E(RB3LYP) =  -577.828802799     A.U. after    1 cycles

 Excitation energies and oscillator strengths:

 Excited State   1:      Singlet-A      4.7452 eV  261.28 nm  f=0.5238  <S**2>=0.000
      49 -> 50         0.68462
      49 -> 51        -0.11383
 This state for optimization and/or second-order correction.
 Total Energy, E(TD-HF/TD-KS) =  -577.654419844
 Copying the excited state density for this state as the 1-particle RhoCI density.

 Excited State   2:      Singlet-A      4.8022 eV  258.18 nm  f=0.0395  <S**2>=0.000
      47 -> 50        -0.22814
      48 -> 50        -0.15633
      49 -> 50         0.12861
      49 -> 51         0.62378

 Excited State   3:      Singlet-A      4.9351 eV  251.23 nm  f=0.0086  <S**2>=0.000
      47 -> 50         0.19409
      48 -> 50        -0.28123
      49 -> 52         0.60471

 Excited State   4:      Singlet-A      5.6225 eV  220.51 nm  f=0.0223  <S**2>=0.000
      46 -> 51        -0.14651
      46 -> 52        -0.27763
      47 -> 52        -0.11963
      48 -> 50         0.52739
      49 -> 51         0.14484
      49 -> 52         0.28206

 Excited State   5:      Singlet-A      5.8361 eV  212.44 nm  f=0.0457  <S**2>=0.000
      46 -> 50         0.47819
      47 -> 50         0.33316
      48 -> 51         0.10501
      49 -> 53         0.35027

 Excited State   6:      Singlet-A      5.8784 eV  210.92 nm  f=0.0446  <S**2>=0.000
      46 -> 50        -0.31280
      46 -> 51         0.24636
      47 -> 50         0.47388
      47 -> 51         0.10529
      49 -> 51         0.21357
      49 -> 52        -0.15251
      49 -> 53        -0.13834

 Excited State   7:      Singlet-A      6.0287 eV  205.66 nm  f=0.0105  <S**2>=0.000
      47 -> 51        -0.10569
      48 -> 51         0.64717
      48 -> 52        -0.23180
      49 -> 53        -0.10732

 Excited State   8:      Singlet-A      6.1587 eV  201.32 nm  f=0.0120  <S**2>=0.000
      46 -> 50        -0.19288
      46 -> 51         0.13521
      46 -> 52        -0.12473
      47 -> 50        -0.14500
      47 -> 51         0.38837
      48 -> 52        -0.25345
      49 -> 53         0.42540

 Excited State   9:      Singlet-A      6.2364 eV  198.81 nm  f=0.0097  <S**2>=0.000
      46 -> 51        -0.24673
      47 -> 51         0.23378
      47 -> 52         0.58980
      48 -> 52         0.10975

 Excited State  10:      Singlet-A      6.2707 eV  197.72 nm  f=0.0407  <S**2>=0.000
      46 -> 50         0.18579
      46 -> 51         0.48804
      46 -> 52        -0.25402
      47 -> 50        -0.16399
      47 -> 53         0.15194
      48 -> 52         0.20385
      49 -> 53        -0.19818

 The electronic state is 1-A.
 Alpha  occ. eigenvalues --  -19.17786 -10.24592 -10.24169 -10.19424 -10.19002
 Alpha  occ. eigenvalues --  -10.18914 -10.18790 -10.18714 -10.18600 -10.18586
 Alpha  occ. eigenvalues --  -10.18469 -10.18408 -10.18398 -10.18301  -1.06352
 Alpha  occ. eigenvalues --   -0.86056  -0.83901  -0.77263  -0.74809  -0.73805
 Alpha  occ. eigenvalues --   -0.72803  -0.68840  -0.61759  -0.60894  -0.58941
 Alpha  occ. eigenvalues --   -0.57054  -0.53513  -0.51275  -0.48112  -0.47352
 Alpha  occ. eigenvalues --   -0.46840  -0.44348  -0.43944  -0.43666  -0.42136
 Alpha  occ. eigenvalues --   -0.41452  -0.41030  -0.38150  -0.37724  -0.36236
 Alpha  occ. eigenvalues --   -0.35632  -0.33786  -0.33618  -0.32278  -0.31755
 Alpha  occ. eigenvalues --   -0.25505  -0.24882  -0.24534  -0.20436
 Alpha virt. eigenvalues --   -0.01719  -0.00078   0.00474   0.04076   0.09509
 Alpha virt. eigenvalues --    0.09990   0.10911   0.13203   0.13777   0.14766
 Alpha virt. eigenvalues --    0.15381   0.15966   0.16468   0.16684   0.17933

 Mulliken atomic charges:
              1
     1  C   -0.230908
     2  O   -0.459754
     3  C    0.364987
     4  C   -0.172750
     5  C   -0.193843
     6  C    0.101790
     7  C   -0.164458
     8  C   -0.169193
     9  C    0.057155
    10  C   -0.188027
    11  C   -0.130208
    12  C   -0.158036
    13  C   -0.141370
    14  C   -0.174078
    15  H    0.184813
    16  H    0.170385
    17  H    0.169667
    18  H    0.145363
    19  H    0.145927
    20  H    0.153557
    21  H    0.152219
    22  H    0.102750
    23  H    0.111276
    24  H    0.105085
    25  H    0.109840
    26  H    0.107810
 Sum of Mulliken atomic charges =  -0.00000

 Dipole moment (field-independent basis, Debye):
    X=             -6.2182    Y=             -0.8352    Z=              0.3054  Tot=              6.2814
 Quadrupole moment (field-independent basis, Debye-Ang):
   XX=            -70.0028   YY=            -75.3517   ZZ=            -85.0783
   XY=              6.1443   XZ=             -1.7546   YZ=             -0.3627

 Summary of Natural Population Analysis:

                                       Natural Population
                Natural  -----------------------------------------------
    Atom  No    Charge         Core      Valence    Rydberg      Total
 -----------------------------------------------------------------------
      C    1   -0.32574      1.99942     4.31205    0.01427     6.32574
      O    2   -0.45027      1.99975     6.43856    0.01195     8.45027
      C    3    0.32004      1.99878     3.65850    0.02268     5.67996
      C    4   -0.26541      1.99904     4.25376    0.01261     6.26541
      C    5   -0.24860      1.99907     4.23280    0.01673     6.24860
      C    6    0.03419      1.99902     3.94990    0.01688     5.96581
      C    7   -0.19733      1.99906     4.18465    0.01362     6.19733
      C    8   -0.25889      1.99905     4.24384    0.01600     6.25889
      C    9   -0.14530      1.99901     4.12932    0.01697     6.14530
      C   10   -0.24935      1.99905     4.23513    0.01516     6.24935
      C   11   -0.22902      1.99911     4.21519    0.01473     6.22902
      C   12   -0.28828      1.99909     4.27177    0.01741     6.28828
      C   13   -0.25417      1.99911     4.23957    0.01548     6.25417
      C   14   -0.21288      1.99905     4.20006    0.01376     6.21288
      H   15    0.23645      0.00000     0.76301    0.00054     0.76355
      H   16    0.21428      0.00000     0.78354    0.00218     0.78572
      H   17    0.21398      0.00000     0.78361    0.00241     0.78602
      H   18    0.24106      0.00000     0.75801    0.00093     0.75894
      H   19    0.24544      0.00000     0.75308    0.00148     0.75456
      H   20    0.24887      0.00000     0.74998    0.00115     0.75113
      H   21    0.25122      0.00000     0.74758    0.00120     0.74878
      H   22    0.22021      0.00000     0.77816    0.00163     0.77979
      H   23    0.22743      0.00000     0.77162    0.00095     0.77257
      H   24    0.22377      0.00000     0.77519    0.00104     0.77623
      H   25    0.22720      0.00000     0.77189    0.00092     0.77280
      H   26    0.22108      0.00000     0.77764    0.00128     0.77892
 =======================================================================
   * Total *   -0.00000     27.98762    69.77841    0.23397    98.00000

 Normal termination of Gaussian 09 at Tue Sep 28 22:09:25 2021.
