 Gaussian 09, Revision A.02,

 -----------------------------------
 #p opt b3lyp/6-31G* scf=(xqc,tight)
 -----------------------------------

 ---------------------------------
 COc1ccc2c(c1)cc(cc2)OC(C)C_conf_0
 ---------------------------------
 Symbolic Z-matrix:
 Charge =  0 Multiplicity = 1

 SCF Done:  E(RB3LYP) =  -693.567676545     A.U. after   14 cycles
 SCF Done:  E(RB3LYP) =  -693.573174518     A.U. after   12 cycles
 SCF Done:  E(RB3LYP) =  -693.573574643     A.U. after   11 cycles
 SCF Done:  E(RB3LYP) =  -693.573613889     A.U. after   11 cycles
 SCF Done:  E(RB3LYP) =  -693.573629389     A.U. after   10 cycles
 SCF Done:  E(RB3LYP) =  -693.573632912     A.U. after    9 cycles
 SCF Done:  E(RB3LYP) =  -693.573635327     A.U. after    8 cycles
 SCF Done:  E(RB3LYP) =  -693.573637044     A.U. after    8 cycles
 SCF Done:  E(RB3LYP) =  -693.573637474     A.U. after    7 cycles
 Optimization completed.
    -- Stationary point found.
 Normal termination of Gaussian 09 at Tue Sep 28 16:32:05 2021.

 ----------------------------------------------------------------------
 #p freq b3lyp/6-31G* volume NMR pop=NPA density=current Geom=AllCheck
 Guess=Read
 ----------------------------------------------------------------------

 COc1ccc2c(c1)cc(cc2)OC(C)C_conf_0
 ---------------------------------
 Redundant internal coordinates taken from checkpoint file:
 C14H16O2_0a89_conf_0.chk
 Charge =  0 Multiplicity = 1

 SCF Done:  E(RB3LYP) =  -693.573637474     A.U. after    1 cycles

  1  C    Isotropic =   137.4101   Anisotropy =    65.3028

  2  O    Isotropic =   240.5996   Anisotropy =    69.9106

  3  C    Isotropic =    40.5615   Anisotropy =   122.5160

  4  C    Isotropic =    87.7095   Anisotropy =   140.0798

  5  C    Isotropic =    66.4291   Anisotropy =   144.3592

  6  C    Isotropic =    72.6280   Anisotropy =   183.3145

  7  C    Isotropic =    60.6029   Anisotropy =   191.2137

  8  C    Isotropic =    83.6186   Anisotropy =   108.4957

  9  C    Isotropic =    90.9412   Anisotropy =   115.1266

 10  C    Isotropic =    40.8641   Anisotropy =   121.2773

 11  C    Isotropic =    78.1004   Anisotropy =   129.4576

 12  C    Isotropic =    66.1009   Anisotropy =   143.0672

 13  O    Isotropic =   191.7884   Anisotropy =    72.2759

 14  C    Isotropic =   122.5481   Anisotropy =    57.0863

 15  C    Isotropic =   166.4286   Anisotropy =    33.1066

 16  C    Isotropic =   170.3290   Anisotropy =    28.0585

 17  H    Isotropic =    28.2588   Anisotropy =     8.3330

 18  H    Isotropic =    28.5295   Anisotropy =     8.4250

 19  H    Isotropic =    28.5297   Anisotropy =     8.4209

 20  H    Isotropic =    25.5781   Anisotropy =     7.5398

 21  H    Isotropic =    24.7493   Anisotropy =     6.8912

 22  H    Isotropic =    25.3958   Anisotropy =     9.1552

 23  H    Isotropic =    25.7098   Anisotropy =    11.2012

 24  H    Isotropic =    25.4652   Anisotropy =     6.8449

 25  H    Isotropic =    24.7839   Anisotropy =     6.5600

 26  H    Isotropic =    27.5227   Anisotropy =     2.6906

 27  H    Isotropic =    30.6982   Anisotropy =     6.9710

 28  H    Isotropic =    30.6255   Anisotropy =     8.3686

 29  H    Isotropic =    31.0708   Anisotropy =     8.7829

 30  H    Isotropic =    31.1413   Anisotropy =     7.2689

 31  H    Isotropic =    31.2201   Anisotropy =     8.9146

 32  H    Isotropic =    30.2555   Anisotropy =     5.9400

  Exact polarizability: 255.282   7.384 157.128  -1.350   4.350  77.345
 Approx polarizability: 369.065  23.267 267.742  -1.348  11.677 113.640

                     1                      2                      3
                     A                      A                      A
 Frequencies --    44.1070                57.0940                77.6830
 Red. masses --     3.5073                 3.0411                 3.0263
 Frc consts  --     0.0040                 0.0058                 0.0108
 IR Inten    --     2.5009                 0.3536                 2.3584

                     4                      5                      6
                     A                      A                      A
 Frequencies --   102.8806               138.1240               138.8110
 Red. masses --     3.6293                 4.6128                 3.9599
 Frc consts  --     0.0226                 0.0519                 0.0450
 IR Inten    --     0.9112                 0.3037                 0.4408

                     7                      8                      9
                     A                      A                      A
 Frequencies --   204.8866               214.3650               243.5736
 Red. masses --     2.5249                 1.0983                 1.2080
 Frc consts  --     0.0624                 0.0297                 0.0422
 IR Inten    --     1.4818                 0.1253                 0.0055

                    10                     11                     12
                     A                      A                      A
 Frequencies --   248.0060               287.5490               298.4177
 Red. masses --     1.2732                 2.6751                 4.1508
 Frc consts  --     0.0461                 0.1303                 0.2178
 IR Inten    --     0.4824                 0.3524                 0.2685

                    13                     14                     15
                     A                      A                      A
 Frequencies --   310.8676               321.4025               381.5257
 Red. masses --     3.5696                 3.6943                 4.7888
 Frc consts  --     0.2032                 0.2248                 0.4107
 IR Inten    --     0.7217                 2.7343                 1.5020

                    16                     17                     18
                     A                      A                      A
 Frequencies --   399.4736               436.8681               449.6272
 Red. masses --     3.1525                 3.1404                 3.5640
 Frc consts  --     0.2964                 0.3531                 0.4245
 IR Inten    --     1.6076                 1.7855                 1.1969

                    19                     20                     21
                     A                      A                      A
 Frequencies --   482.2787               496.8618               538.4508
 Red. masses --     2.5983                 3.1444                 4.7451
 Frc consts  --     0.3561                 0.4574                 0.8106
 IR Inten    --     7.0531                 0.6434                 2.1186

                    22                     23                     24
                     A                      A                      A
 Frequencies --   563.8926               622.2431               645.2163
 Red. masses --     4.4796                 4.6733                 7.0197
 Frc consts  --     0.8392                 1.0661                 1.7218
 IR Inten    --    12.0590                 0.3482                 6.7351

                    25                     26                     27
                     A                      A                      A
 Frequencies --   655.4624               700.7958               751.7538
 Red. masses --     2.6078                 5.2383                 3.2421
 Frc consts  --     0.6601                 1.5157                 1.0795
 IR Inten    --     0.0418                 1.3269                 2.4582

                    28                     29                     30
                     A                      A                      A
 Frequencies --   782.8226               795.6815               797.5613
 Red. masses --     4.5264                 4.8259                 1.4505
 Frc consts  --     1.6343                 1.8001                 0.5436
 IR Inten    --     8.9040                11.7639                 2.3997

                    31                     32                     33
                     A                      A                      A
 Frequencies --   836.9627               842.3720               859.0111
 Red. masses --     1.4825                 1.6538                 2.7372
 Frc consts  --     0.6119                 0.6914                 1.1900
 IR Inten    --     5.3786                39.8960                 4.2921

                    34                     35                     36
                     A                      A                      A
 Frequencies --   885.7826               939.3736               947.2165
 Red. masses --     1.5748                 1.2652                 1.3038
 Frc consts  --     0.7280                 0.6578                 0.6892
 IR Inten    --    42.8679                 0.4840                 0.7061

                    37                     38                     39
                     A                      A                      A
 Frequencies --   952.2056               960.8197               963.6731
 Red. masses --     2.1656                 1.2805                 1.7449
 Frc consts  --     1.1569                 0.6965                 0.9547
 IR Inten    --     3.0676                 0.3794                 3.7105

                    40                     41                     42
                     A                      A                      A
 Frequencies --   971.6865              1011.5603              1082.2675
 Red. masses --     3.5747                 2.8524                 3.6124
 Frc consts  --     1.9886                 1.7197                 2.4930
 IR Inten    --     4.5015                62.0445                63.6307

                    43                     44                     45
                     A                      A                      A
 Frequencies --  1156.3155              1158.8965              1168.0757
 Red. masses --     1.4353                 1.9111                 1.9982
 Frc consts  --     1.1307                 1.5123                 1.6063
 IR Inten    --     1.1727                73.6470                43.2573

                    46                     47                     48
                     A                      A                      A
 Frequencies --  1184.2426              1187.2852              1198.6398
 Red. masses --     1.2676                 1.2515                 1.5376
 Frc consts  --     1.0474                 1.0394                 1.3016
 IR Inten    --     0.6778                 4.8150               174.7767

                    49                     50                     51
                     A                      A                      A
 Frequencies --  1211.4528              1220.2288              1255.1686
 Red. masses --     1.6133                 1.8041                 3.7696
 Frc consts  --     1.3950                 1.5827                 3.4991
 IR Inten    --    21.4692                62.8320               184.3780

                    52                     53                     54
                     A                      A                      A
 Frequencies --  1275.0130              1299.2043              1311.9878
 Red. masses --     2.1391                 1.8866                 2.7629
 Frc consts  --     2.0489                 1.8762                 2.8021
 IR Inten    --    51.7500                51.8483               318.1204

                    55                     56                     57
                     A                      A                      A
 Frequencies --  1378.0876              1387.1537              1397.8310
 Red. masses --     1.8322                 1.3280                 1.3952
 Frc consts  --     2.0501                 1.5056                 1.6062
 IR Inten    --     8.8832                24.8886                10.4558

                    58                     59                     60
                     A                      A                      A
 Frequencies --  1411.4069              1431.6234              1436.1747
 Red. masses --     4.2688                 1.3507                 4.3937
 Frc consts  --     5.0102                 1.6311                 5.3394
 IR Inten    --    26.5821                13.6300                83.9609

                    61                     62                     63
                     A                      A                      A
 Frequencies --  1446.0586              1482.1475              1500.8106
 Red. masses --     1.2563                 3.8769                 1.3885
 Frc consts  --     1.5478                 5.0179                 1.8426
 IR Inten    --    18.4655                48.2596                17.4422

                    64                     65                     66
                     A                      A                      A
 Frequencies --  1511.1184              1517.4471              1520.0167
 Red. masses --     1.0543                 1.2691                 1.4613
 Frc consts  --     1.4185                 1.7218                 1.9892
 IR Inten    --     2.1976                21.7857                15.8406

                    67                     68                     69
                     A                      A                      A
 Frequencies --  1522.1251              1524.7789              1535.7444
 Red. masses --     1.0498                 1.0954                 1.0625
 Frc consts  --     1.4330                 1.5006                 1.4764
 IR Inten    --     4.8499                 0.8178                47.1628

                    70                     71                     72
                     A                      A                      A
 Frequencies --  1540.9877              1570.5882              1623.0524
 Red. masses --     1.0561                 3.2721                 7.3889
 Frc consts  --     1.4776                 4.7556                11.4682
 IR Inten    --     7.5128               122.2680                21.6851

                    73                     74                     75
                     A                      A                      A
 Frequencies --  1667.5293              1686.7121              3023.7191
 Red. masses --     5.7440                 6.3274                 1.0349
 Frc consts  --     9.4104                10.6062                 5.5746
 IR Inten    --    34.6144               299.3280                75.9075

                    76                     77                     78
                     A                      A                      A
 Frequencies --  3039.2020              3055.6843              3060.8185
 Red. masses --     1.0844                 1.0357                 1.0357
 Frc consts  --     5.9016                 5.6976                 5.7170
 IR Inten    --    17.8259                13.3739                25.2890

                    79                     80                     81
                     A                      A                      A
 Frequencies --  3082.0343              3122.7470              3132.2230
 Red. masses --     1.1067                 1.1029                 1.1023
 Frc consts  --     6.1939                 6.3368                 6.3720
 IR Inten    --    46.1284                 4.2270                43.4958

                    82                     83                     84
                     A                      A                      A
 Frequencies --  3137.5412              3140.6017              3153.5956
 Red. masses --     1.1031                 1.1017                 1.0995
 Frc consts  --     6.3981                 6.4023                 6.4423
 IR Inten    --    21.7943                30.7209                31.0998

                    85                     86                     87
                     A                      A                      A
 Frequencies --  3179.4681              3183.3119              3202.0159
 Red. masses --     1.0890                 1.0886                 1.0903
 Frc consts  --     6.4863                 6.4996                 6.5863
 IR Inten    --     1.2009                26.9553                 5.6953

                    88                     89                     90
                     A                      A                      A
 Frequencies --  3217.3548              3218.6701              3227.6151
 Red. masses --     1.0935                 1.0892                 1.0913
 Frc consts  --     6.6692                 6.6485                 6.6981
 IR Inten    --    10.6163                15.8668                14.0496

 - Thermochemistry -
 -------------------
 Temperature   298.150 Kelvin.  Pressure   1.00000 Atm.
 Atom     1 has atomic number  6 and mass  12.00000

 Molecular mass:   216.11503 amu.
 Principal axes and moments of inertia in atomic units:
                           1         2         3
     Eigenvalues --  1472.014087391.388558581.00920
           X            0.99993  -0.01177  -0.00006
           Y            0.01177   0.99992  -0.00388
           Z            0.00010   0.00388   0.99999
 This molecule is an asymmetric top.
 Rotational symmetry number  1.
 Warning -- assumption of classical behavior for rotation
           may cause significant error
 Rotational temperatures (Kelvin)      0.05884     0.01172     0.01009
 Rotational constants (GHZ):           1.22604     0.24417     0.21032
 Zero-point vibrational energy     707804.8 (Joules/Mol)
                                  169.16941 (Kcal/Mol)
 Warning -- explicit consideration of  22 degrees of freedom as
           vibrations may cause significant error
 Vibrational temperatures:     63.46    82.15   111.77   148.02   198.73
          (Kelvin)            199.72   294.79   308.42   350.45   356.82
                              413.72   429.36   447.27   462.43   548.93
                              574.75   628.56   646.91   693.89   714.87
                              774.71   811.31   895.27   928.32   943.06
                             1008.29  1081.60  1126.31  1144.81  1147.51
                             1204.20  1211.98  1235.92  1274.44  1351.55
                             1362.83  1370.01  1382.40  1386.51  1398.04
                             1455.41  1557.14  1663.68  1667.39  1680.60
                             1703.86  1708.24  1724.57  1743.01  1755.63
                             1805.91  1834.46  1869.26  1887.66  1982.76
                             1995.80  2011.16  2030.70  2059.78  2066.33
                             2080.55  2132.48  2159.33  2174.16  2183.27
                             2186.96  2190.00  2193.81  2209.59  2217.13
                             2259.72  2335.21  2399.20  2426.80  4350.45
                             4372.73  4396.44  4403.83  4434.35  4492.93
                             4506.56  4514.22  4518.62  4537.31  4574.54
                             4580.07  4606.98  4629.05  4630.94  4643.81

 Zero-point correction=                           0.269589 (Hartree/Particle)
 Thermal correction to Energy=                    0.284414
 Thermal correction to Enthalpy=                  0.285359
 Thermal correction to Gibbs Free Energy=         0.227691
 Sum of electronic and zero-point Energies=           -693.304049
 Sum of electronic and thermal Energies=              -693.289223
 Sum of electronic and thermal Enthalpies=            -693.288279
 Sum of electronic and thermal Free Energies=         -693.345946

                     E (Thermal)             CV                S
                      KCal/Mol        Cal/Mol-Kelvin    Cal/Mol-Kelvin
 Total                  178.473             57.815            121.372
 Electronic               0.000              0.000              0.000
 Translational            0.889              2.981             42.015
 Rotational               0.889              2.981             32.901
 Vibrational            176.695             51.853             46.455
 Vibration     1          0.595              1.980              5.066
 Vibration     2          0.596              1.975              4.555
 Vibration     3          0.599              1.964              3.949
 Vibration     4          0.605              1.947              3.399
 Vibration     5          0.614              1.915              2.830
 Vibration     6          0.614              1.915              2.820
 Vibration     7          0.640              1.833              2.089
 Vibration     8          0.644              1.819              2.006
 Vibration     9          0.659              1.773              1.777
 Vibration    10          0.662              1.766              1.745
 Vibration    11          0.685              1.697              1.488
 Vibration    12          0.692              1.677              1.426
 Vibration    13          0.700              1.653              1.358
 Vibration    14          0.707              1.633              1.303
 Vibration    15          0.751              1.510              1.033
 Vibration    16          0.766              1.471              0.965
 Vibration    17          0.797              1.390              0.837
 Vibration    18          0.809              1.362              0.797
 Vibration    19          0.839              1.289              0.704
 Vibration    20          0.852              1.257              0.666
 Vibration    21          0.893              1.165              0.569
 Vibration    22          0.920              1.109              0.516

 Optimization completed.
    -- Stationary point found.
 Normal termination of Gaussian 09 at Tue Sep 28 17:26:42 2021.
 Gaussian 09:  AM64L-G09RevA.02 11-Jun-2009

 ----------------------------------------------------------------------
 #p TD(NStates=10, Root=1) b3lyp/6-31G* volume pop=NPA density=current
 Geom=AllCheck Guess=Read
 ----------------------------------------------------------------------

 COc1ccc2c(c1)cc(cc2)OC(C)C_conf_0
 ---------------------------------
 Redundant internal coordinates taken from checkpoint file:
 C14H16O2_0a89_conf_0.chk
 Charge =  0 Multiplicity = 1

                         Standard orientation:
 ---------------------------------------------------------------------
 Center     Atomic      Atomic             Coordinates (Angstroms)
 Number     Number       Type             X           Y           Z
 ---------------------------------------------------------------------
      1          6           0       -5.223662   -1.302140   -0.085121
      2          8           0       -3.841179   -1.612487   -0.128956
      3          6           0       -2.936099   -0.588801   -0.060494
      4          6           0       -3.300657    0.777042    0.052347
      5          6           0       -2.314951    1.740573    0.113942
      6          6           0       -0.942613    1.403091    0.067059
      7          6           0       -0.577609    0.021758   -0.046913
      8          6           0       -1.600758   -0.951896   -0.107672
      9          6           0        0.801542   -0.334380   -0.094818
     10          6           0        1.778030    0.640226   -0.037376
     11          6           0        1.412815    2.013397    0.079751
     12          6           0        0.093026    2.376926    0.129275
     13          8           0        3.125145    0.431789   -0.096186
     14          6           0        3.655967   -0.901925   -0.206182
     15          6           0        5.051868   -0.741509   -0.798524
     16          6           0        3.672192   -1.587698    1.160479
     17          1           0       -5.745911   -2.258356   -0.156185
     18          1           0       -5.525298   -0.664424   -0.926828
     19          1           0       -5.501531   -0.810032    0.856595
     20          1           0       -4.342937    1.071596    0.090923
     21          1           0       -2.594395    2.788231    0.200761
     22          1           0       -1.350778   -2.005376   -0.194667
     23          1           0        1.054213   -1.385506   -0.175762
     24          1           0        2.209831    2.748850    0.123078
     25          1           0       -0.178406    3.426570    0.216556
     26          1           0        3.033264   -1.471951   -0.908707
     27          1           0        5.680401   -0.137955   -0.134686
     28          1           0        5.002644   -0.244198   -1.772032
     29          1           0        5.525787   -1.720267   -0.929688
     30          1           0        4.311345   -1.028361    1.852488
     31          1           0        4.066491   -2.606473    1.072114
     32          1           0        2.669008   -1.644735    1.592651
 ---------------------------------------------------------------------

 SCF Done:  E(RB3LYP) =  -693.573637474     A.U. after    2 cycles

 Excitation energies and oscillator strengths:

 Excited State   1:      Singlet-A      4.1926 eV  295.72 nm  f=0.0351  <S**2>=0.000
      57 -> 60        -0.13735
      58 -> 59         0.68907
 This state for optimization and/or second-order correction.
 Total Energy, E(TD-HF/TD-KS) =  -693.419560600
 Copying the excited state density for this state as the 1-particle RhoCI density.

 Excited State   2:      Singlet-A      4.2351 eV  292.76 nm  f=0.0456  <S**2>=0.000
      57 -> 59         0.58598
      58 -> 60         0.38679

 Excited State   3:      Singlet-A      5.4418 eV  227.83 nm  f=0.7141  <S**2>=0.000
      55 -> 59        -0.16742
      56 -> 59        -0.26199
      57 -> 59        -0.30908
      58 -> 60         0.48252
      58 -> 61        -0.26761

 Excited State   4:      Singlet-A      5.5853 eV  221.98 nm  f=0.1212  <S**2>=0.000
      55 -> 59         0.14692
      56 -> 59        -0.12486
      57 -> 60         0.62881
      57 -> 61        -0.16322
      58 -> 59         0.11281

 Excited State   5:      Singlet-A      5.8208 eV  213.00 nm  f=0.6779  <S**2>=0.000
      56 -> 59         0.21754
      57 -> 59        -0.22963
      58 -> 60         0.28989
      58 -> 61         0.54145

 Excited State   6:      Singlet-A      6.0831 eV  203.82 nm  f=0.0073  <S**2>=0.000
      55 -> 59         0.18965
      56 -> 60        -0.16962
      57 -> 60         0.13768
      57 -> 61         0.62984

 Excited State   7:      Singlet-A      6.2168 eV  199.43 nm  f=0.1077  <S**2>=0.000
      55 -> 59        -0.41701
      56 -> 59         0.44255
      56 -> 60        -0.15146
      56 -> 61         0.10122
      57 -> 60         0.21820
      58 -> 61        -0.13674

 Excited State   8:      Singlet-A      6.3975 eV  193.80 nm  f=0.1405  <S**2>=0.000
      55 -> 59         0.44979
      56 -> 59         0.38223
      58 -> 60         0.16306
      58 -> 61        -0.31705

 Excited State   9:      Singlet-A      6.8597 eV  180.74 nm  f=0.0001  <S**2>=0.000
      51 -> 59        -0.15659
      52 -> 59        -0.10236
      53 -> 59         0.31168
      54 -> 59         0.59890

 Excited State  10:      Singlet-A      6.9718 eV  177.84 nm  f=0.0006  <S**2>=0.000
      58 -> 62         0.41714
      58 -> 63         0.52697
      58 -> 64        -0.16542

 The electronic state is 1-A.
 Alpha  occ. eigenvalues --  -19.17281 -19.16835 -10.24573 -10.24255 -10.24204
 Alpha  occ. eigenvalues --  -10.23880 -10.19322 -10.18791 -10.18621 -10.18402
 Alpha  occ. eigenvalues --  -10.18376 -10.17936 -10.17914 -10.17878 -10.17608
 Alpha  occ. eigenvalues --  -10.17360  -1.05823  -1.05417  -0.86245  -0.81519
 Alpha  occ. eigenvalues --   -0.78432  -0.76584  -0.73683  -0.71658  -0.69283
 Alpha  occ. eigenvalues --   -0.68400  -0.63596  -0.59846  -0.59613  -0.57333
 Alpha  occ. eigenvalues --   -0.53404  -0.52143  -0.50777  -0.47671  -0.46468
 Alpha  occ. eigenvalues --   -0.46018  -0.45676  -0.44672  -0.43063  -0.42582
 Alpha  occ. eigenvalues --   -0.41316  -0.40397  -0.40078  -0.39264  -0.39201
 Alpha  occ. eigenvalues --   -0.38354  -0.37213  -0.36244  -0.35269  -0.34710
 Alpha  occ. eigenvalues --   -0.33878  -0.32135  -0.31917  -0.31461  -0.27413
 Alpha  occ. eigenvalues --   -0.27036  -0.20751  -0.19471
 Alpha virt. eigenvalues --   -0.02581   0.01053   0.04273   0.09321   0.09500
 Alpha virt. eigenvalues --    0.10645   0.11814   0.12132   0.12357   0.13089
 Alpha virt. eigenvalues --    0.14426   0.14661   0.15460   0.15818   0.16470

 Mulliken atomic charges:
              1
     1  C   -0.216797
     2  O   -0.487922
     3  C    0.386423
     4  C   -0.211040
     5  C   -0.235043
     6  C    0.162878
     7  C    0.137839
     8  C   -0.262872
     9  C   -0.271262
    10  C    0.381356
    11  C   -0.187482
    12  C   -0.224722
    13  O   -0.516148
    14  C    0.133471
    15  C   -0.450425
    16  C   -0.457069
    17  H    0.171435
    18  H    0.161433
    19  H    0.161401
    20  H    0.118820
    21  H    0.121541
    22  H    0.135905
    23  H    0.135268
    24  H    0.124724
    25  H    0.119536
    26  H    0.136631
    27  H    0.158620
    28  H    0.161432
    29  H    0.146070
    30  H    0.158913
    31  H    0.146111
    32  H    0.160975
 Sum of Mulliken atomic charges =  -0.00000

 Dipole moment (field-independent basis, Debye):
    X=             -0.7415    Y=             -2.0545    Z=             -0.0947  Tot=              2.1863
 Quadrupole moment (field-independent basis, Debye-Ang):
   XX=            -71.2811   YY=            -90.9616   ZZ=            -97.8003
   XY=             -3.7213   XZ=             -0.4425   YZ=              0.7294

 Summary of Natural Population Analysis:

                                       Natural Population
                Natural  -----------------------------------------------
    Atom  No    Charge         Core      Valence    Rydberg      Total
 -----------------------------------------------------------------------
      C    1   -0.31828      1.99942     4.30496    0.01390     6.31828
      O    2   -0.48391      1.99975     6.47256    0.01160     8.48391
      C    3    0.33792      1.99880     3.64050    0.02278     5.66208
      C    4   -0.36146      1.99904     4.34801    0.01441     6.36146
      C    5   -0.22303      1.99907     4.20705    0.01691     6.22303
      C    6   -0.07234      1.99902     4.05855    0.01477     6.07234
      C    7   -0.05408      1.99904     4.03933    0.01570     6.05408
      C    8   -0.22825      1.99899     4.21285    0.01641     6.22825
      C    9   -0.27276      1.99898     4.26019    0.01359     6.27276
      C   10    0.33544      1.99882     3.64268    0.02306     5.66456
      C   11   -0.30002      1.99905     4.28463    0.01634     6.30002
      C   12   -0.23409      1.99906     4.21907    0.01596     6.23409
      O   13   -0.51573      1.99973     6.50305    0.01295     8.51573
      C   14    0.08975      1.99914     3.89330    0.01781     5.91025
      C   15   -0.68903      1.99940     4.68045    0.00917     6.68903
      C   16   -0.70234      1.99940     4.69457    0.00837     6.70234
      H   17    0.22865      0.00000     0.77081    0.00054     0.77135
      H   18    0.20982      0.00000     0.78786    0.00232     0.79018
      H   19    0.20983      0.00000     0.78786    0.00231     0.79017
      H   20    0.23265      0.00000     0.76648    0.00087     0.76735
      H   21    0.22983      0.00000     0.76904    0.00113     0.77017
      H   22    0.23795      0.00000     0.76034    0.00171     0.76205
      H   23    0.22890      0.00000     0.76986    0.00123     0.77110
      H   24    0.24093      0.00000     0.75792    0.00115     0.75907
      H   25    0.22949      0.00000     0.76943    0.00108     0.77051
      H   26    0.21750      0.00000     0.77985    0.00265     0.78250
      H   27    0.23614      0.00000     0.76241    0.00145     0.76386
      H   28    0.24330      0.00000     0.75563    0.00107     0.75670
      H   29    0.23489      0.00000     0.76439    0.00071     0.76511
      H   30    0.23703      0.00000     0.76145    0.00151     0.76297
      H   31    0.23526      0.00000     0.76373    0.00101     0.76474
      H   32    0.24000      0.00000     0.75877    0.00122     0.76000
 =======================================================================
   * Total *    0.00000     31.98671    83.74758    0.26570   116.00000

 Normal termination of Gaussian 09 at Tue Sep 28 22:04:40 2021.
