 Gaussian 09, Revision A.02,

 -----------------------------------
 #p opt b3lyp/6-31G* scf=(xqc,tight)
 -----------------------------------

 -------------------------------
 CN(CCOc1ccc2c(c1)CCCC2)C_conf_0
 -------------------------------
 Symbolic Z-matrix:
 Charge =  0 Multiplicity = 1

 SCF Done:  E(RB3LYP) =  -676.100225022     A.U. after   14 cycles
 SCF Done:  E(RB3LYP) =  -676.103609071     A.U. after   12 cycles
 SCF Done:  E(RB3LYP) =  -676.104019793     A.U. after   11 cycles
 SCF Done:  E(RB3LYP) =  -676.104137970     A.U. after   10 cycles
 SCF Done:  E(RB3LYP) =  -676.104186761     A.U. after   10 cycles
 SCF Done:  E(RB3LYP) =  -676.104225979     A.U. after   11 cycles
 SCF Done:  E(RB3LYP) =  -676.104240700     A.U. after   10 cycles
 SCF Done:  E(RB3LYP) =  -676.104242526     A.U. after    9 cycles
 SCF Done:  E(RB3LYP) =  -676.104244087     A.U. after    8 cycles
 SCF Done:  E(RB3LYP) =  -676.104244956     A.U. after    8 cycles
 SCF Done:  E(RB3LYP) =  -676.104245456     A.U. after    8 cycles
 SCF Done:  E(RB3LYP) =  -676.104245572     A.U. after    7 cycles
 SCF Done:  E(RB3LYP) =  -676.104245633     A.U. after    6 cycles
 Optimization completed.
    -- Stationary point found.
 Normal termination of Gaussian 09 at Thu Sep 30 11:02:37 2021.

 ----------------------------------------------------------------------
 #p freq b3lyp/6-31G* volume NMR pop=NPA density=current Geom=AllCheck
 Guess=Read
 ----------------------------------------------------------------------

 CN(CCOc1ccc2c(c1)CCCC2)C_conf_0
 -------------------------------
 Redundant internal coordinates taken from checkpoint file:
 C14H21NO_f080_conf_0.chk
 Charge =  0 Multiplicity = 1

 SCF Done:  E(RB3LYP) =  -676.104245633     A.U. after    1 cycles

  1  C    Isotropic =   147.1839   Anisotropy =    59.1290

  2  N    Isotropic =   229.5850   Anisotropy =    33.6011

  3  C    Isotropic =   132.8810   Anisotropy =    61.7739

  4  C    Isotropic =   126.1186   Anisotropy =    57.5377

  5  O    Isotropic =   227.5755   Anisotropy =    60.6067

  6  C    Isotropic =    41.0171   Anisotropy =   121.1240

  7  C    Isotropic =    87.7652   Anisotropy =   137.1738

  8  C    Isotropic =    66.2684   Anisotropy =   145.5622

  9  C    Isotropic =    67.6876   Anisotropy =   164.5496

 10  C    Isotropic =    58.3533   Anisotropy =   174.1582

 11  C    Isotropic =    78.3515   Anisotropy =   117.4484

 12  C    Isotropic =   158.2019   Anisotropy =    19.0391

 13  C    Isotropic =   164.5232   Anisotropy =     6.5583

 14  C    Isotropic =   164.2480   Anisotropy =     6.1911

 15  C    Isotropic =   159.0606   Anisotropy =    17.1223

 16  C    Isotropic =   143.1658   Anisotropy =    66.3477

 17  H    Isotropic =    29.7699   Anisotropy =     7.8034

 18  H    Isotropic =    30.3739   Anisotropy =     7.7972

 19  H    Isotropic =    30.0427   Anisotropy =     9.2698

 20  H    Isotropic =    29.4121   Anisotropy =     5.5495

 21  H    Isotropic =    29.6123   Anisotropy =     4.8468

 22  H    Isotropic =    28.3919   Anisotropy =     7.4636

 23  H    Isotropic =    28.3557   Anisotropy =     4.7562

 24  H    Isotropic =    25.9393   Anisotropy =     8.0156

 25  H    Isotropic =    25.3743   Anisotropy =     7.3258

 26  H    Isotropic =    25.8199   Anisotropy =     9.1214

 27  H    Isotropic =    29.5570   Anisotropy =     7.5623

 28  H    Isotropic =    29.3953   Anisotropy =     6.9958

 29  H    Isotropic =    30.4724   Anisotropy =     7.5034

 30  H    Isotropic =    30.4759   Anisotropy =     9.2894

 31  H    Isotropic =    30.4595   Anisotropy =     9.3866

 32  H    Isotropic =    30.4774   Anisotropy =     7.4703

 33  H    Isotropic =    29.4366   Anisotropy =     7.4251

 34  H    Isotropic =    29.5982   Anisotropy =     7.7552

 35  H    Isotropic =    29.9462   Anisotropy =     9.6386

 36  H    Isotropic =    30.0265   Anisotropy =     8.3237

 37  H    Isotropic =    29.8626   Anisotropy =     9.0360

  Exact polarizability: 222.934  -0.871 149.703   1.478  -4.398 103.096
 Approx polarizability: 268.049   1.523 242.032   1.713 -12.406 157.151

                     1                      2                      3
                     A                      A                      A
 Frequencies --    19.9392                27.2905                60.9463
 Red. masses --     3.4432                 3.1851                 3.9098
 Frc consts  --     0.0008                 0.0014                 0.0086
 IR Inten    --     0.6732                 0.0537                 0.1927

                     4                      5                      6
                     A                      A                      A
 Frequencies --    77.5510               109.1097               119.3960
 Red. masses --     2.8871                 2.3520                 2.4619
 Frc consts  --     0.0102                 0.0165                 0.0207
 IR Inten    --     0.1500                 0.1245                 2.8591

                     7                      8                      9
                     A                      A                      A
 Frequencies --   142.0160               195.6167               212.1710
 Red. masses --     2.6333                 3.3174                 3.3857
 Frc consts  --     0.0313                 0.0748                 0.0898
 IR Inten    --     0.1779                 0.3299                 0.0452

                    10                     11                     12
                     A                      A                      A
 Frequencies --   219.7790               243.1585               270.0103
 Red. masses --     3.2428                 1.0882                 1.2606
 Frc consts  --     0.0923                 0.0379                 0.0541
 IR Inten    --     0.0724                 1.0449                 0.6839

                    13                     14                     15
                     A                      A                      A
 Frequencies --   304.3794               325.8538               346.6186
 Red. masses --     1.8847                 3.3176                 3.0053
 Frc consts  --     0.1029                 0.2076                 0.2127
 IR Inten    --     0.7868                 1.2644                 2.4638

                    16                     17                     18
                     A                      A                      A
 Frequencies --   385.7574               415.4698               435.8452
 Red. masses --     2.3083                 3.2482                 2.9724
 Frc consts  --     0.2024                 0.3303                 0.3327
 IR Inten    --     6.5987                 1.0803                 0.5026

                    19                     20                     21
                     A                      A                      A
 Frequencies --   444.2514               457.4860               476.1154
 Red. masses --     2.6895                 3.3270                 2.6402
 Frc consts  --     0.3127                 0.4103                 0.3526
 IR Inten    --     1.3617                 1.2733                 0.0916

                    22                     23                     24
                     A                      A                      A
 Frequencies --   522.7433               569.6338               602.6509
 Red. masses --     3.3579                 3.6014                 3.6713
 Frc consts  --     0.5406                 0.6885                 0.7856
 IR Inten    --     3.8111                 1.6066                 4.4187

                    25                     26                     27
                     A                      A                      A
 Frequencies --   626.8698               710.1457               739.3193
 Red. masses --     2.7854                 3.0952                 4.0291
 Frc consts  --     0.6449                 0.9197                 1.2976
 IR Inten    --     2.3604                 0.1832                 9.5435

                    28                     29                     30
                     A                      A                      A
 Frequencies --   748.0322               807.4703               836.2329
 Red. masses --     5.5581                 1.3643                 1.2808
 Frc consts  --     1.8324                 0.5241                 0.5277
 IR Inten    --     4.5290                19.8459                 1.4410

                    31                     32                     33
                     A                      A                      A
 Frequencies --   845.7550               870.1054               877.8907
 Red. masses --     1.4424                 3.2211                 2.6986
 Frc consts  --     0.6079                 1.4368                 1.2254
 IR Inten    --     5.8420                12.8283                 5.3763

                    34                     35                     36
                     A                      A                      A
 Frequencies --   883.6950               924.1240               934.4587
 Red. masses --     1.4316                 1.4474                 2.7533
 Frc consts  --     0.6587                 0.7283                 1.4165
 IR Inten    --     6.2887                 4.6393                 2.3082

                    37                     38                     39
                     A                      A                      A
 Frequencies --   946.0891               959.7071              1007.4707
 Red. masses --     1.3796                 2.6723                 2.3792
 Frc consts  --     0.7275                 1.4502                 1.4228
 IR Inten    --     1.2179                 2.0939                 1.1626

                    40                     41                     42
                     A                      A                      A
 Frequencies --  1060.5288              1073.0209              1077.0386
 Red. masses --     2.5248                 1.8933                 2.2103
 Frc consts  --     1.6731                 1.2844                 1.5106
 IR Inten    --    68.9005                17.5091                13.0720

                    43                     44                     45
                     A                      A                      A
 Frequencies --  1086.2199              1092.7816              1113.8598
 Red. masses --     2.1593                 2.3868                 1.8465
 Frc consts  --     1.5010                 1.6793                 1.3497
 IR Inten    --    22.0451                29.6378                 1.7121

                    46                     47                     48
                     A                      A                      A
 Frequencies --  1121.0508              1133.5893              1151.7482
 Red. masses --     1.6199                 1.2856                 2.1474
 Frc consts  --     1.1995                 0.9734                 1.6784
 IR Inten    --    21.6362                 8.6685                55.0596

                    49                     50                     51
                     A                      A                      A
 Frequencies --  1167.9930              1195.3947              1198.0218
 Red. masses --     1.1676                 1.4005                 1.5513
 Frc consts  --     0.9385                 1.1791                 1.3118
 IR Inten    --     1.7808                28.2501                 9.4686

                    52                     53                     54
                     A                      A                      A
 Frequencies --  1199.8903              1225.4584              1228.2511
 Red. masses --     1.5287                 2.1594                 1.6004
 Frc consts  --     1.2967                 1.9107                 1.4225
 IR Inten    --     7.1017                28.0704                 4.0838

                    55                     56                     57
                     A                      A                      A
 Frequencies --  1268.9360              1288.4721              1290.5016
 Red. masses --     1.5615                 1.3131                 1.5107
 Frc consts  --     1.4814                 1.2844                 1.4823
 IR Inten    --    26.7739                39.5983                 9.5799

                    58                     59                     60
                     A                      A                      A
 Frequencies --  1307.8657              1316.7517              1325.4466
 Red. masses --     2.6664                 2.3453                 1.3864
 Frc consts  --     2.6872                 2.3959                 1.4350
 IR Inten    --   169.0912                40.2007                90.7326

                    61                     62                     63
                     A                      A                      A
 Frequencies --  1338.7171              1343.9663              1375.3004
 Red. masses --     1.2528                 3.3668                 1.4415
 Frc consts  --     1.3229                 3.5830                 1.6064
 IR Inten    --     4.0341                20.4259                 2.5661

                    64                     65                     66
                     A                      A                      A
 Frequencies --  1378.3593              1388.1227              1392.7546
 Red. masses --     1.4424                 1.4628                 1.5114
 Frc consts  --     1.6146                 1.6607                 1.7273
 IR Inten    --    21.7217                 0.9357                14.2941

                    67                     68                     69
                     A                      A                      A
 Frequencies --  1405.6294              1452.0757              1469.4305
 Red. masses --     1.5868                 1.4774                 1.2088
 Frc consts  --     1.8472                 1.8353                 1.5378
 IR Inten    --    25.6914                 3.0643                 8.7856

                    70                     71                     72
                     A                      A                      A
 Frequencies --  1477.1904              1500.2766              1504.2447
 Red. masses --     3.2324                 1.1850                 1.1354
 Frc consts  --     4.1557                 1.5715                 1.5136
 IR Inten    --     8.4710                 0.0037                 2.3192

                    73                     74                     75
                     A                      A                      A
 Frequencies --  1512.4819              1513.5865              1520.3674
 Red. masses --     1.0883                 1.0454                 1.0875
 Frc consts  --     1.4668                 1.4111                 1.4811
 IR Inten    --     3.2495                 8.8360                 3.9688

                    76                     77                     78
                     A                      A                      A
 Frequencies --  1522.3035              1529.0411              1531.7200
 Red. masses --     1.0645                 1.0579                 1.1085
 Frc consts  --     1.4534                 1.4573                 1.5323
 IR Inten    --     2.4984                23.7527                 2.3357

                    79                     80                     81
                     A                      A                      A
 Frequencies --  1534.4992              1541.4118              1546.5627
 Red. masses --     1.1057                 1.0575                 1.6096
 Frc consts  --     1.5340                 1.4803                 2.2684
 IR Inten    --     6.9531                13.5184               119.9260

                    82                     83                     84
                     A                      A                      A
 Frequencies --  1558.1472              1628.2586              1673.0527
 Red. masses --     1.4150                 6.4247                 6.2377
 Frc consts  --     2.0241                10.0357                10.2872
 IR Inten    --    16.5856                29.9726                92.3309

                    85                     86                     87
                     A                      A                      A
 Frequencies --  2934.1164              2939.7753              2952.8271
 Red. masses --     1.0612                 1.0652                 1.0699
 Frc consts  --     5.3828                 5.4236                 5.4963
 IR Inten    --    40.7802                71.8933               128.8439

                    88                     89                     90
                     A                      A                      A
 Frequencies --  3005.8773              3012.6988              3024.8958
 Red. masses --     1.0703                 1.0702                 1.0554
 Frc consts  --     5.6976                 5.7229                 5.6899
 IR Inten    --    31.9584                19.0727                33.1977

                    91                     92                     93
                     A                      A                      A
 Frequencies --  3028.3598              3033.8065              3060.0797
 Red. masses --     1.0678                 1.0613                 1.0911
 Frc consts  --     5.7697                 5.7553                 6.0198
 IR Inten    --    19.5173                30.3204                45.7032

                    94                     95                     96
                     A                      A                      A
 Frequencies --  3065.6313              3066.1708              3078.2084
 Red. masses --     1.1039                 1.0919                 1.0927
 Frc consts  --     6.1126                 6.0485                 6.1002
 IR Inten    --    27.8782                33.0016                93.1032

                    97                     98                     99
                     A                      A                      A
 Frequencies --  3078.3382              3081.4834              3087.9337
 Red. masses --     1.0737                 1.1052                 1.0714
 Frc consts  --     5.9948                 6.1833                 6.0189
 IR Inten    --    16.2633                59.0073                38.8154

                   100                    101                    102
                     A                      A                      A
 Frequencies --  3096.7985              3123.4462              3131.6451
 Red. masses --     1.0926                 1.1036                 1.1024
 Frc consts  --     6.1734                 6.3437                 6.3700
 IR Inten    --    35.0752                36.8108                42.5920

                   103                    104                    105
                     A                      A                      A
 Frequencies --  3169.9901              3191.7455              3224.2325
 Red. masses --     1.0889                 1.0901                 1.0913
 Frc consts  --     6.4471                 6.5432                 6.6842
 IR Inten    --    22.3271                 7.6764                15.0179

 - Thermochemistry -
 -------------------
 Temperature   298.150 Kelvin.  Pressure   1.00000 Atm.
 Atom     1 has atomic number  6 and mass  12.00000

 Molecular mass:   219.16231 amu.
 Principal axes and moments of inertia in atomic units:
                           1         2         3
     Eigenvalues --   946.35629********************
           X            1.00000  -0.00072  -0.00142
           Y            0.00073   0.99998   0.00664
           Z            0.00141  -0.00664   0.99998
 This molecule is an asymmetric top.
 Rotational symmetry number  1.
 Warning -- assumption of classical behavior for rotation
           may cause significant error
 Rotational temperatures (Kelvin)      0.09152     0.00821     0.00774
 Rotational constants (GHZ):           1.90704     0.17114     0.16137
 Zero-point vibrational energy     865196.4 (Joules/Mol)
                                  206.78689 (Kcal/Mol)
 Warning -- explicit consideration of  24 degrees of freedom as
           vibrations may cause significant error
 Vibrational temperatures:     28.69    39.26    87.69   111.58   156.98
          (Kelvin)            171.78   204.33   281.45   305.27   316.21
                              349.85   388.48   437.93   468.83   498.71
                              555.02   597.77   627.08   639.18   658.22
                              685.02   752.11   819.57   867.08   901.92
                             1021.74  1063.71  1076.25  1161.77  1203.15
                             1216.85  1251.89  1263.09  1271.44  1329.61
                             1344.48  1361.21  1380.80  1449.52  1525.86
                             1543.84  1549.62  1562.83  1572.27  1602.59
                             1612.94  1630.98  1657.11  1680.48  1719.90
                             1723.68  1726.37  1763.16  1767.18  1825.71
                             1853.82  1856.74  1881.72  1894.51  1907.02
                             1926.11  1933.67  1978.75  1983.15  1997.20
                             2003.86  2022.38  2089.21  2114.18  2125.34
                             2158.56  2164.27  2176.12  2177.71  2187.47
                             2190.25  2199.95  2203.80  2207.80  2217.75
                             2225.16  2241.82  2342.70  2407.15  4221.53
                             4229.68  4248.45  4324.78  4334.60  4352.14
                             4357.13  4364.97  4402.77  4410.75  4411.53
                             4428.85  4429.04  4433.56  4442.84  4455.60
                             4493.94  4505.73  4560.90  4592.20  4638.95

 Zero-point correction=                           0.329536 (Hartree/Particle)
 Thermal correction to Energy=                    0.345366
 Thermal correction to Enthalpy=                  0.346310
 Thermal correction to Gibbs Free Energy=         0.284806
 Sum of electronic and zero-point Energies=           -675.774710
 Sum of electronic and thermal Energies=              -675.758880
 Sum of electronic and thermal Enthalpies=            -675.757936
 Sum of electronic and thermal Free Energies=         -675.819440

                     E (Thermal)             CV                S
                      KCal/Mol        Cal/Mol-Kelvin    Cal/Mol-Kelvin
 Total                  216.720             60.630            129.447
 Electronic               0.000              0.000              0.000
 Translational            0.889              2.981             42.057
 Rotational               0.889              2.981             33.078
 Vibrational            214.943             54.669             54.311
 Vibration     1          0.593              1.986              6.640
 Vibration     2          0.593              1.984              6.017
 Vibration     3          0.597              1.973              4.426
 Vibration     4          0.599              1.964              3.952
 Vibration     5          0.606              1.942              3.285
 Vibration     6          0.609              1.933              3.110
 Vibration     7          0.615              1.911              2.777
 Vibration     8          0.636              1.846              2.174
 Vibration     9          0.643              1.822              2.025
 Vibration    10          0.647              1.811              1.961
 Vibration    11          0.659              1.774              1.780
 Vibration    12          0.674              1.728              1.596
 Vibration    13          0.695              1.665              1.393
 Vibration    14          0.710              1.624              1.281
 Vibration    15          0.725              1.582              1.182
 Vibration    16          0.754              1.501              1.017
 Vibration    17          0.779              1.437              0.907
 Vibration    18          0.796              1.392              0.840
 Vibration    19          0.804              1.374              0.813
 Vibration    20          0.816              1.344              0.773
 Vibration    21          0.833              1.303              0.721
 Vibration    22          0.878              1.200              0.604
 Vibration    23          0.926              1.097              0.505
 Vibration    24          0.961              1.026              0.445

 Optimization completed.
    -- Stationary point found.
 Normal termination of Gaussian 09 at Thu Sep 30 12:06:32 2021.
 Gaussian 09:  AM64L-G09RevA.02 11-Jun-2009

 ----------------------------------------------------------------------
 #p TD(NStates=10, Root=1) b3lyp/6-31G* volume pop=NPA density=current
 Geom=AllCheck Guess=Read
 ----------------------------------------------------------------------

 CN(CCOc1ccc2c(c1)CCCC2)C_conf_0
 -------------------------------
 Redundant internal coordinates taken from checkpoint file:
 C14H21NO_f080_conf_0.chk
 Charge =  0 Multiplicity = 1

                         Standard orientation:
 ---------------------------------------------------------------------
 Center     Atomic      Atomic             Coordinates (Angstroms)
 Number     Number       Type             X           Y           Z
 ---------------------------------------------------------------------
      1          6           0       -5.195082    0.885219    1.006540
      2          7           0       -4.846848    0.134055   -0.194367
      3          6           0       -3.618052   -0.641076   -0.036063
      4          6           0       -2.370955    0.236400   -0.128767
      5          8           0       -1.251637   -0.633974   -0.004440
      6          6           0        0.005786   -0.096571   -0.053778
      7          6           0        0.285658    1.261022   -0.247590
      8          6           0        1.616878    1.676847   -0.282004
      9          6           0        2.683921    0.786587   -0.129499
     10          6           0        2.392275   -0.577813    0.071477
     11          6           0        1.061757   -0.999251    0.104101
     12          6           0        3.497787   -1.597901    0.293399
     13          6           0        4.879570   -1.105184   -0.155300
     14          6           0        5.137834    0.311297    0.370566
     15          6           0        4.114816    1.291340   -0.218232
     16          6           0       -5.961949   -0.704750   -0.616661
     17          1           0       -4.383768    1.563462    1.286473
     18          1           0       -5.410493    0.233200    1.876500
     19          1           0       -6.083643    1.494899    0.810653
     20          1           0       -3.563189   -1.374991   -0.847120
     21          1           0       -3.593335   -1.210692    0.912803
     22          1           0       -2.345346    0.993102    0.667264
     23          1           0       -2.357620    0.758108   -1.095027
     24          1           0       -0.508640    1.988202   -0.371867
     25          1           0        1.829926    2.733316   -0.435273
     26          1           0        0.820081   -2.048114    0.256787
     27          1           0        3.241360   -2.535856   -0.215391
     28          1           0        3.540331   -1.841834    1.366142
     29          1           0        4.934069   -1.098885   -1.253312
     30          1           0        5.653038   -1.799455    0.195193
     31          1           0        6.154581    0.640203    0.123154
     32          1           0        5.063060    0.309604    1.467429
     33          1           0        4.368364    1.470262   -1.274986
     34          1           0        4.194348    2.268160    0.276395
     35          1           0       -6.845370   -0.079446   -0.786671
     36          1           0       -6.233412   -1.480798    0.126120
     37          1           0       -5.714781   -1.206025   -1.558320
 ---------------------------------------------------------------------

 SCF Done:  E(RB3LYP) =  -676.104245633     A.U. after    2 cycles

 Excitation energies and oscillator strengths:

 Excited State   1:      Singlet-A      4.9653 eV  249.70 nm  f=0.0374  <S**2>=0.000
      58 -> 62        -0.29368
      60 -> 61         0.62818
 This state for optimization and/or second-order correction.
 Total Energy, E(TD-HF/TD-KS) =  -675.921774097
 Copying the excited state density for this state as the 1-particle RhoCI density.

 Excited State   2:      Singlet-A      5.5700 eV  222.59 nm  f=0.0017  <S**2>=0.000
      59 -> 61         0.69499

 Excited State   3:      Singlet-A      5.7320 eV  216.30 nm  f=0.1194  <S**2>=0.000
      58 -> 61         0.36033
      60 -> 61        -0.11641
      60 -> 62         0.58578

 Excited State   4:      Singlet-A      6.0309 eV  205.58 nm  f=0.0022  <S**2>=0.000
      58 -> 61        -0.10598
      59 -> 62         0.69590

 Excited State   5:      Singlet-A      6.5694 eV  188.73 nm  f=0.6159  <S**2>=0.000
      57 -> 61        -0.11511
      58 -> 61         0.54260
      58 -> 62        -0.16163
      59 -> 62         0.11684
      60 -> 62        -0.35354

 Excited State   6:      Singlet-A      6.7117 eV  184.73 nm  f=0.5376  <S**2>=0.000
      57 -> 61         0.14780
      58 -> 61         0.19768
      58 -> 62         0.59028
      60 -> 61         0.25002

 Excited State   7:      Singlet-A      6.9144 eV  179.31 nm  f=0.0223  <S**2>=0.000
      59 -> 63         0.60485
      60 -> 63         0.35301

 Excited State   8:      Singlet-A      7.1151 eV  174.25 nm  f=0.0030  <S**2>=0.000
      59 -> 63        -0.34845
      60 -> 63         0.57212
      60 -> 64         0.12451
      60 -> 65         0.14714

 Excited State   9:      Singlet-A      7.2856 eV  170.18 nm  f=0.0018  <S**2>=0.000
      56 -> 61         0.69403

 Excited State  10:      Singlet-A      7.4028 eV  167.48 nm  f=0.0022  <S**2>=0.000
      57 -> 61         0.15649
      60 -> 63        -0.16839
      60 -> 64         0.60151
      60 -> 65         0.18641
      60 -> 66         0.18000

 The electronic state is 1-A.
 Alpha  occ. eigenvalues --  -19.16774 -14.32801 -10.23582 -10.23469 -10.20830
 Alpha  occ. eigenvalues --  -10.20335 -10.20279 -10.18518 -10.18039 -10.17953
 Alpha  occ. eigenvalues --  -10.17878 -10.17780 -10.17756 -10.17719 -10.17693
 Alpha  occ. eigenvalues --  -10.17073  -1.05413  -0.92089  -0.85158  -0.80242
 Alpha  occ. eigenvalues --   -0.76536  -0.75176  -0.72243  -0.70507  -0.70290
 Alpha  occ. eigenvalues --   -0.65069  -0.62565  -0.59570  -0.58991  -0.57821
 Alpha  occ. eigenvalues --   -0.54305  -0.51500  -0.49043  -0.48163  -0.47034
 Alpha  occ. eigenvalues --   -0.45937  -0.45093  -0.44769  -0.43893  -0.43231
 Alpha  occ. eigenvalues --   -0.42176  -0.40507  -0.39572  -0.39364  -0.38403
 Alpha  occ. eigenvalues --   -0.38146  -0.37240  -0.36944  -0.36802  -0.36322
 Alpha  occ. eigenvalues --   -0.34947  -0.33907  -0.32681  -0.32078  -0.30797
 Alpha  occ. eigenvalues --   -0.30277  -0.29543  -0.23203  -0.21593  -0.20318
 Alpha virt. eigenvalues --    0.00596   0.02343   0.07992   0.09744   0.10730
 Alpha virt. eigenvalues --    0.11450   0.12720   0.12852   0.13339   0.13604
 Alpha virt. eigenvalues --    0.14619   0.14811   0.15521   0.16022   0.16150

 Mulliken atomic charges:
              1
     1  C   -0.305253
     2  N   -0.373168
     3  C   -0.140839
     4  C   -0.041694
     5  O   -0.476382
     6  C    0.368314
     7  C   -0.195357
     8  C   -0.234263
     9  C    0.150620
    10  C    0.107130
    11  C   -0.270684
    12  C   -0.331285
    13  C   -0.263996
    14  C   -0.264503
    15  C   -0.346243
    16  C   -0.297025
    17  H    0.152078
    18  H    0.125130
    19  H    0.155107
    20  H    0.155565
    21  H    0.131449
    22  H    0.156071
    23  H    0.166790
    24  H    0.122597
    25  H    0.108679
    26  H    0.114346
    27  H    0.133964
    28  H    0.135280
    29  H    0.132293
    30  H    0.127013
    31  H    0.129018
    32  H    0.136542
    33  H    0.157267
    34  H    0.145216
    35  H    0.152127
    36  H    0.123817
    37  H    0.154281
 Sum of Mulliken atomic charges =  -0.00000

 Dipole moment (field-independent basis, Debye):
    X=             -2.2431    Y=              0.4432    Z=              0.2354  Tot=              2.2985
 Quadrupole moment (field-independent basis, Debye-Ang):
   XX=            -82.7197   YY=            -96.6119   ZZ=            -99.5795
   XY=              1.2800   XZ=             -1.6646   YZ=              0.9748

 Summary of Natural Population Analysis:

                                       Natural Population
                Natural  -----------------------------------------------
    Atom  No    Charge         Core      Valence    Rydberg      Total
 -----------------------------------------------------------------------
      C    1   -0.47298      1.99948     4.46046    0.01304     6.47298
      N    2   -0.50096      1.99948     5.48696    0.01453     7.50096
      C    3   -0.27768      1.99933     4.26041    0.01794     6.27768
      C    4   -0.11195      1.99924     4.09560    0.01712     6.11195
      O    5   -0.44742      1.99974     6.43562    0.01206     8.44742
      C    6    0.33997      1.99879     3.63820    0.02304     5.66003
      C    7   -0.32831      1.99905     4.31245    0.01682     6.32831
      C    8   -0.28796      1.99908     4.26910    0.01979     6.28796
      C    9    0.04351      1.99899     3.94204    0.01546     5.95649
      C   10   -0.06554      1.99901     4.04982    0.01671     6.06554
      C   11   -0.32401      1.99900     4.30434    0.02067     6.32401
      C   12   -0.46700      1.99929     4.45609    0.01162     6.46700
      C   13   -0.45428      1.99934     4.44272    0.01222     6.45428
      C   14   -0.45495      1.99933     4.44332    0.01230     6.45495
      C   15   -0.47746      1.99927     4.46633    0.01186     6.47746
      C   16   -0.46914      1.99949     4.45677    0.01288     6.46914
      H   17    0.22277      0.00000     0.77642    0.00082     0.77723
      H   18    0.19293      0.00000     0.80369    0.00338     0.80707
      H   19    0.23008      0.00000     0.76907    0.00085     0.76992
      H   20    0.23952      0.00000     0.75867    0.00180     0.76048
      H   21    0.20777      0.00000     0.78832    0.00392     0.79223
      H   22    0.21570      0.00000     0.78199    0.00232     0.78430
      H   23    0.22644      0.00000     0.77039    0.00317     0.77356
      H   24    0.22768      0.00000     0.77138    0.00094     0.77232
      H   25    0.22416      0.00000     0.77475    0.00109     0.77584
      H   26    0.23235      0.00000     0.76616    0.00149     0.76765
      H   27    0.23653      0.00000     0.76068    0.00279     0.76347
      H   28    0.22809      0.00000     0.76769    0.00422     0.77191
      H   29    0.22637      0.00000     0.77164    0.00200     0.77363
      H   30    0.23606      0.00000     0.76220    0.00175     0.76394
      H   31    0.23692      0.00000     0.76171    0.00137     0.76308
      H   32    0.22853      0.00000     0.76947    0.00201     0.77147
      H   33    0.24967      0.00000     0.74819    0.00214     0.75033
      H   34    0.24615      0.00000     0.75145    0.00241     0.75385
      H   35    0.22802      0.00000     0.77111    0.00087     0.77198
      H   36    0.19283      0.00000     0.80392    0.00325     0.80717
      H   37    0.22763      0.00000     0.77157    0.00079     0.77237
 =======================================================================
   * Total *    0.00000     31.98791    87.72068    0.29141   120.00000

 Normal termination of Gaussian 09 at Thu Sep 30 17:35:30 2021.
