 Gaussian 09, Revision A.02,

 -----------------------------------
 #p opt b3lyp/6-31G* scf=(xqc,tight)
 -----------------------------------

 ---------------------------------------
 COc1cc(ccc1OC(=O)C(C)(C)C)C(=O)C_conf_0
 ---------------------------------------
 Symbolic Z-matrix:
 Charge =  0 Multiplicity = 1

 SCF Done:  E(RB3LYP) =  -845.221903334     A.U. after   16 cycles
 SCF Done:  E(RB3LYP) =  -845.227538962     A.U. after   13 cycles
 SCF Done:  E(RB3LYP) =  -845.228782519     A.U. after   16 cycles
 SCF Done:  E(RB3LYP) =  -845.229064318     A.U. after   13 cycles
 SCF Done:  E(RB3LYP) =  -845.230745777     A.U. after   12 cycles
 SCF Done:  E(RB3LYP) =  -845.231691751     A.U. after   12 cycles
 SCF Done:  E(RB3LYP) =  -845.231810068     A.U. after   14 cycles
 SCF Done:  E(RB3LYP) =  -845.232495786     A.U. after   11 cycles
 SCF Done:  E(RB3LYP) =  -845.232613864     A.U. after   11 cycles
 SCF Done:  E(RB3LYP) =  -845.232659822     A.U. after   12 cycles
 SCF Done:  E(RB3LYP) =  -845.234004346     A.U. after   13 cycles
 SCF Done:  E(RB3LYP) =  -845.233986720     A.U. after   12 cycles
 SCF Done:  E(RB3LYP) =  -845.234057591     A.U. after   12 cycles
 SCF Done:  E(RB3LYP) =  -845.234179289     A.U. after   12 cycles
 SCF Done:  E(RB3LYP) =  -845.234198291     A.U. after   10 cycles
 SCF Done:  E(RB3LYP) =  -845.234202687     A.U. after   10 cycles
 SCF Done:  E(RB3LYP) =  -845.234203082     A.U. after    7 cycles
 SCF Done:  E(RB3LYP) =  -845.234203210     A.U. after    8 cycles
 Optimization completed.
    -- Stationary point found.
 Normal termination of Gaussian 09 at Wed Sep 29 10:20:22 2021.

 ----------------------------------------------------------------------
 #p freq b3lyp/6-31G* volume NMR pop=NPA density=current Geom=AllCheck
 Guess=Read
 ----------------------------------------------------------------------

 COc1cc(ccc1OC(=O)C(C)(C)C)C(=O)C_conf_0
 ---------------------------------------
 Redundant internal coordinates taken from checkpoint file:
 C14H18O4_2117_conf_0.chk
 Charge =  0 Multiplicity = 1

 SCF Done:  E(RB3LYP) =  -845.234203210     A.U. after    1 cycles

  1  C    Isotropic =   137.1052   Anisotropy =    67.1616

  2  O    Isotropic =   244.5823   Anisotropy =    98.5103

  3  C    Isotropic =    46.2633   Anisotropy =   118.3446

  4  C    Isotropic =    83.7977   Anisotropy =   141.2209

  5  C    Isotropic =    62.4427   Anisotropy =   154.1211

  6  C    Isotropic =    73.2442   Anisotropy =   167.8861

  7  C    Isotropic =    72.3826   Anisotropy =   141.2936

  8  C    Isotropic =    49.9413   Anisotropy =   102.0660

  9  O    Isotropic =   114.8319   Anisotropy =   172.1682

 10  C    Isotropic =    23.3367   Anisotropy =    76.4518

 11  O    Isotropic =   -72.3984   Anisotropy =   562.5914

 12  C    Isotropic =   149.0216   Anisotropy =    24.2278

 13  C    Isotropic =   161.7054   Anisotropy =    36.6054

 14  C    Isotropic =   162.9164   Anisotropy =    31.2223

 15  C    Isotropic =   162.2784   Anisotropy =    37.6598

 16  C    Isotropic =     4.4024   Anisotropy =   149.5670

 17  O    Isotropic =  -266.7571   Anisotropy =   932.0545

 18  C    Isotropic =   163.7951   Anisotropy =    38.9847

 19  H    Isotropic =    28.2057   Anisotropy =     8.0919

 20  H    Isotropic =    28.5887   Anisotropy =     8.5847

 21  H    Isotropic =    28.5563   Anisotropy =     8.9115

 22  H    Isotropic =    25.3340   Anisotropy =    10.5052

 23  H    Isotropic =    24.3507   Anisotropy =     5.7866

 24  H    Isotropic =    25.2687   Anisotropy =     7.2816

 25  H    Isotropic =    30.7207   Anisotropy =     7.8223

 26  H    Isotropic =    30.4022   Anisotropy =     5.4747

 27  H    Isotropic =    31.1161   Anisotropy =     7.9527

 28  H    Isotropic =    30.6514   Anisotropy =     7.6837

 29  H    Isotropic =    31.4878   Anisotropy =     8.0233

 30  H    Isotropic =    30.7348   Anisotropy =     8.0841

 31  H    Isotropic =    30.3855   Anisotropy =     6.7121

 32  H    Isotropic =    30.8783   Anisotropy =     8.5849

 33  H    Isotropic =    31.1137   Anisotropy =     8.0974

 34  H    Isotropic =    29.6841   Anisotropy =     3.8580

 35  H    Isotropic =    30.2710   Anisotropy =     6.8812

 36  H    Isotropic =    29.7135   Anisotropy =     3.9679

  Exact polarizability: 218.572   5.547 160.855  -5.044   2.269 101.253
 Approx polarizability: 290.999  17.116 256.108 -14.575   6.532 160.628

                     1                      2                      3
                     A                      A                      A
 Frequencies --    26.0502                36.1601                43.9943
 Red. masses --     2.9921                 4.3399                 3.8621
 Frc consts  --     0.0012                 0.0033                 0.0044
 IR Inten    --     0.7384                 0.2008                 0.9692

                     4                      5                      6
                     A                      A                      A
 Frequencies --    54.6690                63.4217                96.2108
 Red. masses --     5.3459                 5.3800                 4.2601
 Frc consts  --     0.0094                 0.0127                 0.0232
 IR Inten    --     1.4540                 2.3942                 4.8664

                     7                      8                      9
                     A                      A                      A
 Frequencies --   133.1889               150.3090               168.6819
 Red. masses --     4.9420                 4.0061                 1.0440
 Frc consts  --     0.0517                 0.0533                 0.0175
 IR Inten    --     1.3393                 1.0515                 0.3869

                    10                     11                     12
                     A                      A                      A
 Frequencies --   182.3622               189.0684               195.1541
 Red. masses --     2.9718                 1.9021                 2.0790
 Frc consts  --     0.0582                 0.0401                 0.0467
 IR Inten    --     0.7971                 0.5292                 0.0727

                    13                     14                     15
                     A                      A                      A
 Frequencies --   219.1179               252.9223               262.7665
 Red. masses --     1.5768                 1.0700                 1.5324
 Frc consts  --     0.0446                 0.0403                 0.0623
 IR Inten    --     0.4607                 0.2352                 1.3000

                    16                     17                     18
                     A                      A                      A
 Frequencies --   263.9585               281.3881               296.1426
 Red. masses --     1.4686                 1.8224                 2.9609
 Frc consts  --     0.0603                 0.0850                 0.1530
 IR Inten    --     0.8707                 1.8090                 2.4083

                    19                     20                     21
                     A                      A                      A
 Frequencies --   341.8352               350.8835               357.1896
 Red. masses --     3.6809                 3.1513                 4.3228
 Frc consts  --     0.2534                 0.2286                 0.3250
 IR Inten    --     5.8685                 3.6969                 2.4307

                    22                     23                     24
                     A                      A                      A
 Frequencies --   374.7922               381.1217               442.5874
 Red. masses --     4.0995                 2.9049                 3.4865
 Frc consts  --     0.3393                 0.2486                 0.4024
 IR Inten    --     2.0618                 1.9278                 1.0702

                    25                     26                     27
                     A                      A                      A
 Frequencies --   462.0686               475.7386               530.1481
 Red. masses --     3.9602                 3.4494                 3.6430
 Frc consts  --     0.4982                 0.4600                 0.6033
 IR Inten    --     2.7029                 2.7366                 0.8005

                    28                     29                     30
                     A                      A                      A
 Frequencies --   543.7575               571.1376               594.0065
 Red. masses --     6.0608                 4.9358                 3.6080
 Frc consts  --     1.0558                 0.9486                 0.7501
 IR Inten    --     3.8666                 7.9773                 2.6781

                    31                     32                     33
                     A                      A                      A
 Frequencies --   612.7321               654.8542               696.8522
 Red. masses --     4.3046                 3.2733                 5.4542
 Frc consts  --     0.9522                 0.8270                 1.5605
 IR Inten    --    27.6524                 9.6223                 5.1083

                    34                     35                     36
                     A                      A                      A
 Frequencies --   720.4007               756.7468               799.4435
 Red. masses --     4.4341                 6.8563                 4.0340
 Frc consts  --     1.3558                 2.3133                 1.5190
 IR Inten    --     0.4363                 6.1053                 4.4624

                    37                     38                     39
                     A                      A                      A
 Frequencies --   819.8245               858.8256               867.1492
 Red. masses --     3.0621                 1.7575                 1.4946
 Frc consts  --     1.2126                 0.7638                 0.6621
 IR Inten    --     3.9524                 4.4423                18.6889

                    40                     41                     42
                     A                      A                      A
 Frequencies --   903.0840               920.9459               949.3468
 Red. masses --     3.4122                 5.4578                 1.7662
 Frc consts  --     1.6396                 2.7273                 0.9379
 IR Inten    --    26.1268                12.8457                 1.3379

                    43                     44                     45
                     A                      A                      A
 Frequencies --   957.6487               970.8032               972.0681
 Red. masses --     1.6344                 2.0355                 1.3117
 Frc consts  --     0.8831                 1.1303                 0.7303
 IR Inten    --     4.3751                39.2864                 2.2774

                    46                     47                     48
                     A                      A                      A
 Frequencies --   982.2027              1055.3745              1058.5220
 Red. masses --     1.1979                 1.8543                 1.5365
 Frc consts  --     0.6809                 1.2169                 1.0144
 IR Inten    --     0.0297                 1.5508                59.6453

                    49                     50                     51
                     A                      A                      A
 Frequencies --  1061.0448              1075.7206              1105.3906
 Red. masses --     1.4294                 4.9361                 2.1287
 Frc consts  --     0.9481                 3.3654                 1.5325
 IR Inten    --     0.2348                38.8356                 2.0698

                    52                     53                     54
                     A                      A                      A
 Frequencies --  1131.2414              1148.1586              1184.4621
 Red. masses --     3.7642                 1.4727                 1.2687
 Frc consts  --     2.8381                 1.1439                 1.0487
 IR Inten    --   598.1316               105.8823                 0.8355

                    55                     56                     57
                     A                      A                      A
 Frequencies --  1209.4886              1235.3578              1242.5119
 Red. masses --     2.0816                 2.0035                 2.6620
 Frc consts  --     1.7941                 1.8015                 2.4213
 IR Inten    --   132.9825                90.8740                 1.6403

                    58                     59                     60
                     A                      A                      A
 Frequencies --  1263.8215              1273.7367              1306.4259
 Red. masses --     2.7818                 2.4910                 2.0447
 Frc consts  --     2.6179                 2.3812                 2.0561
 IR Inten    --    21.4471                51.6326               105.3840

                    61                     62                     63
                     A                      A                      A
 Frequencies --  1310.4941              1329.1704              1370.4633
 Red. masses --     2.3769                 3.0864                 8.2841
 Frc consts  --     2.4051                 3.2126                 9.1671
 IR Inten    --     5.1130               326.4606                28.9179

                    64                     65                     66
                     A                      A                      A
 Frequencies --  1409.7292              1423.1006              1430.6270
 Red. masses --     1.3693                 1.2066                 1.2307
 Frc consts  --     1.6033                 1.4397                 1.4841
 IR Inten    --    45.5820                 4.0227                 5.0024

                    67                     68                     69
                     A                      A                      A
 Frequencies --  1450.8482              1458.8665              1499.9968
 Red. masses --     3.1578                 1.2291                 1.0615
 Frc consts  --     3.9163                 1.5412                 1.4072
 IR Inten    --    59.7645                14.8507                14.6307

                    70                     71                     72
                     A                      A                      A
 Frequencies --  1506.9771              1507.7129              1508.8064
 Red. masses --     1.2987                 1.0484                 1.0489
 Frc consts  --     1.7376                 1.4041                 1.4069
 IR Inten    --     0.2215                 0.0377                 9.0224

                    73                     74                     75
                     A                      A                      A
 Frequencies --  1515.7349              1518.7801              1521.2530
 Red. masses --     1.0454                 1.0463                 1.0479
 Frc consts  --     1.4151                 1.4219                 1.4289
 IR Inten    --     0.6513                 0.2498                 6.8517

                    76                     77                     78
                     A                      A                      A
 Frequencies --  1529.2890              1531.8535              1532.5821
 Red. masses --     1.0488                 1.0544                 1.0806
 Frc consts  --     1.4452                 1.4578                 1.4955
 IR Inten    --     4.8673                 7.5488                49.2083

                    79                     80                     81
                     A                      A                      A
 Frequencies --  1548.8869              1558.1409              1634.6972
 Red. masses --     1.0928                 2.6226                 7.6014
 Frc consts  --     1.5447                 3.7515                11.9679
 IR Inten    --    45.0723                61.3732                69.5503

                    82                     83                     84
                     A                      A                      A
 Frequencies --  1655.6890              1778.3135              1843.9795
 Red. masses --     6.0423                10.7475                12.7359
 Frc consts  --     9.7591                20.0252                25.5149
 IR Inten    --    29.3996               180.4785               172.9692

                    85                     86                     87
                     A                      A                      A
 Frequencies --  3030.1789              3051.2135              3052.2469
 Red. masses --     1.0349                 1.0357                 1.0385
 Frc consts  --     5.5988                 5.6812                 5.7002
 IR Inten    --    48.2635                23.9974                 3.6154

                    88                     89                     90
                     A                      A                      A
 Frequencies --  3053.4164              3061.4919              3092.4121
 Red. masses --     1.0359                 1.0365                 1.1066
 Frc consts  --     5.6902                 5.7240                 6.2352
 IR Inten    --    13.2628                28.1982                34.1037

                    91                     92                     93
                     A                      A                      A
 Frequencies --  3111.6839              3114.5187              3118.5273
 Red. masses --     1.1000                 1.1028                 1.1027
 Frc consts  --     6.2755                 6.3028                 6.3181
 IR Inten    --    10.3659                15.1311                19.1071

                    94                     95                     96
                     A                      A                      A
 Frequencies --  3129.0722              3138.8995              3141.0246
 Red. masses --     1.1018                 1.1027                 1.1018
 Frc consts  --     6.3560                 6.4015                 6.4049
 IR Inten    --    44.0936                15.8003                 9.5738

                    97                     98                     99
                     A                      A                      A
 Frequencies --  3144.6673              3164.5987              3170.3692
 Red. masses --     1.1010                 1.1001                 1.1009
 Frc consts  --     6.4151                 6.4910                 6.5194
 IR Inten    --    40.1594                20.2989                11.9408

                   100                    101                    102
                     A                      A                      A
 Frequencies --  3213.8055              3237.6201              3241.1562
 Red. masses --     1.0900                 1.0926                 1.0886
 Frc consts  --     6.6330                 6.7479                 6.7379
 IR Inten    --     5.3607                 2.3233                 4.1369

 - Thermochemistry -
 -------------------
 Temperature   298.150 Kelvin.  Pressure   1.00000 Atm.
 Atom     1 has atomic number  6 and mass  12.00000

 Molecular mass:   250.12051 amu.
 Principal axes and moments of inertia in atomic units:
                           1         2         3
     Eigenvalues --  1904.264138599.615199713.91482
           X            0.99988  -0.01539  -0.00328
           Y            0.01540   0.99987   0.00424
           Z            0.00321  -0.00429   0.99999
 This molecule is an asymmetric top.
 Rotational symmetry number  1.
 Warning -- assumption of classical behavior for rotation
           may cause significant error
 Rotational temperatures (Kelvin)      0.04548     0.01007     0.00892
 Rotational constants (GHZ):           0.94774     0.20986     0.18579
 Zero-point vibrational energy     782225.6 (Joules/Mol)
                                  186.95641 (Kcal/Mol)
 Warning -- explicit consideration of  31 degrees of freedom as
           vibrations may cause significant error
 Vibrational temperatures:     37.48    52.03    63.30    78.66    91.25
          (Kelvin)            138.43   191.63   216.26   242.70   262.38
                              272.03   280.78   315.26   363.90   378.06
                              379.78   404.85   426.08   491.82   504.84
                              513.92   539.24   548.35   636.78   664.81
                              684.48   762.76   782.34   821.74   854.64
                              881.58   942.19  1002.61  1036.49  1088.79
                             1150.22  1179.54  1235.66  1247.63  1299.33
                             1325.03  1365.90  1377.84  1396.77  1398.59
                             1413.17  1518.45  1522.98  1526.60  1547.72
                             1590.41  1627.60  1651.94  1704.17  1740.18
                             1777.40  1787.70  1818.36  1832.62  1879.65
                             1885.51  1912.38  1971.79  2028.28  2047.52
                             2058.35  2087.44  2098.98  2158.16  2168.20
                             2169.26  2170.83  2180.80  2185.18  2188.74
                             2200.30  2203.99  2205.04  2228.50  2241.81
                             2351.96  2382.16  2558.59  2653.07  4359.75
                             4390.01  4391.50  4393.18  4404.80  4449.29
                             4477.01  4481.09  4486.86  4502.03  4516.17
                             4519.23  4524.47  4553.15  4561.45  4623.94
                             4658.21  4663.30

 Zero-point correction=                           0.297934 (Hartree/Particle)
 Thermal correction to Energy=                    0.317059
 Thermal correction to Enthalpy=                  0.318003
 Thermal correction to Gibbs Free Energy=         0.249655
 Sum of electronic and zero-point Energies=           -844.936269
 Sum of electronic and thermal Energies=              -844.917145
 Sum of electronic and thermal Enthalpies=            -844.916200
 Sum of electronic and thermal Free Energies=         -844.984548

                     E (Thermal)             CV                S
                      KCal/Mol        Cal/Mol-Kelvin    Cal/Mol-Kelvin
 Total                  198.957             70.570            143.849
 Electronic               0.000              0.000              0.000
 Translational            0.889              2.981             42.451
 Rotational               0.889              2.981             33.431
 Vibrational            197.180             64.608             67.968
 Vibration     1          0.593              1.985              6.110
 Vibration     2          0.594              1.982              5.459
 Vibration     3          0.595              1.980              5.071
 Vibration     4          0.596              1.976              4.641
 Vibration     5          0.597              1.972              4.348
 Vibration     6          0.603              1.952              3.530
 Vibration     7          0.613              1.920              2.899
 Vibration     8          0.618              1.902              2.668
 Vibration     9          0.625              1.881              2.450
 Vibration    10          0.630              1.864              2.304
 Vibration    11          0.633              1.855              2.237
 Vibration    12          0.636              1.847              2.178
 Vibration    13          0.647              1.812              1.966
 Vibration    14          0.664              1.758              1.710
 Vibration    15          0.670              1.741              1.643
 Vibration    16          0.671              1.739              1.635
 Vibration    17          0.681              1.708              1.525
 Vibration    18          0.690              1.681              1.439
 Vibration    19          0.721              1.592              1.204
 Vibration    20          0.728              1.573              1.162
 Vibration    21          0.732              1.560              1.134
 Vibration    22          0.746              1.524              1.060
 Vibration    23          0.751              1.510              1.035
 Vibration    24          0.802              1.377              0.819
 Vibration    25          0.820              1.334              0.760
 Vibration    26          0.832              1.304              0.722
 Vibration    27          0.885              1.183              0.587
 Vibration    28          0.899              1.153              0.557
 Vibration    29          0.927              1.094              0.502
 Vibration    30          0.952              1.045              0.460
 Vibration    31          0.972              1.005              0.428

 Normal termination of Gaussian 09 at Wed Sep 29 11:52:17 2021.
 Gaussian 09:  AM64L-G09RevA.02 11-Jun-2009

 ----------------------------------------------------------------------
 #p TD(NStates=10, Root=1) b3lyp/6-31G* volume pop=NPA density=current
 Geom=AllCheck Guess=Read
 ----------------------------------------------------------------------

 COc1cc(ccc1OC(=O)C(C)(C)C)C(=O)C_conf_0
 ---------------------------------------
 Redundant internal coordinates taken from checkpoint file:
 C14H18O4_2117_conf_0.chk
 Charge =  0 Multiplicity = 1

                         Standard orientation:
 ---------------------------------------------------------------------
 Center     Atomic      Atomic             Coordinates (Angstroms)
 Number     Number       Type             X           Y           Z
 ---------------------------------------------------------------------
      1          6           0       -0.430114    3.057322   -0.158844
      2          8           0        0.141661    1.769142   -0.331605
      3          6           0       -0.675695    0.685597   -0.243781
      4          6           0       -2.061779    0.729837   -0.089892
      5          6           0       -2.814883   -0.457017   -0.038861
      6          6           0       -2.168503   -1.693148   -0.143578
      7          6           0       -0.784278   -1.744793   -0.287396
      8          6           0       -0.045212   -0.570831   -0.332080
      9          8           0        1.323007   -0.638923   -0.550047
     10          6           0        2.165633   -0.268742    0.480323
     11          8           0        1.766199   -0.005183    1.585616
     12          6           0        3.620763   -0.258378    0.009194
     13          6           0        3.767462    0.795039   -1.112535
     14          6           0        4.517161    0.106542    1.202773
     15          6           0        3.995380   -1.656138   -0.532288
     16          6           0       -4.305204   -0.448981    0.123262
     17          8           0       -4.934885   -1.495683    0.146610
     18          6           0       -5.025093    0.884225    0.259817
     19          1           0        0.399221    3.762670   -0.230265
     20          1           0       -0.907037    3.154196    0.824708
     21          1           0       -1.163986    3.280626   -0.944392
     22          1           0       -2.560390    1.687858   -0.014035
     23          1           0       -2.764838   -2.597603   -0.104207
     24          1           0       -0.258609   -2.691252   -0.366193
     25          1           0        3.479109    1.791096   -0.758751
     26          1           0        3.144113    0.546673   -1.975763
     27          1           0        4.812710    0.839706   -1.439560
     28          1           0        4.258782    1.090317    1.605733
     29          1           0        5.566119    0.124899    0.886355
     30          1           0        4.413119   -0.620456    2.014037
     31          1           0        3.369983   -1.936212   -1.384310
     32          1           0        3.886812   -2.423963    0.242526
     33          1           0        5.041821   -1.654848   -0.858335
     34          1           0       -4.660684    1.442924    1.130260
     35          1           0       -6.093080    0.692671    0.375565
     36          1           0       -4.864844    1.512683   -0.624653
 ---------------------------------------------------------------------

 SCF Done:  E(RB3LYP) =  -845.234203210     A.U. after    1 cycles

 Excitation energies and oscillator strengths:

 Excited State   1:      Singlet-A      3.7560 eV  330.10 nm  f=0.0000  <S**2>=0.000
      66 -> 68         0.69380
      66 -> 71         0.11749
 This state for optimization and/or second-order correction.
 Total Energy, E(TD-HF/TD-KS) =  -845.096172851
 Copying the excited state density for this state as the 1-particle RhoCI density.

 Excited State   2:      Singlet-A      4.2712 eV  290.28 nm  f=0.1054  <S**2>=0.000
      65 -> 68         0.15947
      65 -> 69         0.13108
      67 -> 68         0.66755

 Excited State   3:      Singlet-A      4.9833 eV  248.80 nm  f=0.1681  <S**2>=0.000
      64 -> 68        -0.13328
      65 -> 68         0.61242
      67 -> 68        -0.17573
      67 -> 69        -0.24539

 Excited State   4:      Singlet-A      5.2870 eV  234.51 nm  f=0.0229  <S**2>=0.000
      64 -> 68         0.64685
      64 -> 70         0.16294
      67 -> 69        -0.17556

 Excited State   5:      Singlet-A      5.5503 eV  223.38 nm  f=0.0139  <S**2>=0.000
      64 -> 68        -0.15588
      64 -> 70         0.19798
      65 -> 70        -0.12865
      67 -> 69        -0.18824
      67 -> 70         0.61199

 Excited State   6:      Singlet-A      5.7964 eV  213.90 nm  f=0.0074  <S**2>=0.000
      64 -> 68        -0.12640
      64 -> 69        -0.13061
      64 -> 70         0.54689
      65 -> 70        -0.26846
      67 -> 69         0.13377
      67 -> 70        -0.24105

 Excited State   7:      Singlet-A      5.8237 eV  212.90 nm  f=0.0001  <S**2>=0.000
      66 -> 69         0.70056

 Excited State   8:      Singlet-A      5.9334 eV  208.96 nm  f=0.3101  <S**2>=0.000
      63 -> 68         0.12233
      64 -> 68         0.12012
      65 -> 68         0.26991
      65 -> 69        -0.13753
      65 -> 71         0.16366
      67 -> 69         0.51164
      67 -> 70         0.22644
      67 -> 71         0.14805

 Excited State   9:      Singlet-A      6.2311 eV  198.98 nm  f=0.0151  <S**2>=0.000
      63 -> 68         0.67744

 Excited State  10:      Singlet-A      6.4085 eV  193.47 nm  f=0.0009  <S**2>=0.000
      66 -> 70         0.63148
      66 -> 71        -0.28582

 The electronic state is 1-A.
 Alpha  occ. eigenvalues --  -19.20065 -19.19233 -19.14089 -19.13373 -10.31658
 Alpha  occ. eigenvalues --  -10.27582 -10.26286 -10.25868 -10.25235 -10.21496
 Alpha  occ. eigenvalues --  -10.20572 -10.20341 -10.20110 -10.19493 -10.19070
 Alpha  occ. eigenvalues --  -10.18319 -10.18221 -10.17539  -1.11102  -1.07686
 Alpha  occ. eigenvalues --   -1.03335  -1.02465  -0.86557  -0.82541  -0.77880
 Alpha  occ. eigenvalues --   -0.76614  -0.73562  -0.71287  -0.69236  -0.68868
 Alpha  occ. eigenvalues --   -0.66829  -0.61826  -0.60682  -0.56486  -0.56068
 Alpha  occ. eigenvalues --   -0.51260  -0.50151  -0.49365  -0.48723  -0.47894
 Alpha  occ. eigenvalues --   -0.47364  -0.45823  -0.45342  -0.44356  -0.43777
 Alpha  occ. eigenvalues --   -0.43365  -0.42980  -0.42532  -0.41008  -0.40933
 Alpha  occ. eigenvalues --   -0.39253  -0.38480  -0.38241  -0.38104  -0.36953
 Alpha  occ. eigenvalues --   -0.36711  -0.36180  -0.35855  -0.34673  -0.33665
 Alpha  occ. eigenvalues --   -0.33470  -0.32475  -0.31333  -0.27297  -0.25790
 Alpha  occ. eigenvalues --   -0.24729  -0.22887
 Alpha virt. eigenvalues --   -0.05413  -0.00177   0.00751   0.04422   0.07497
 Alpha virt. eigenvalues --    0.08008   0.09695   0.11726   0.12660   0.12928
 Alpha virt. eigenvalues --    0.13940   0.14754   0.15036   0.15192   0.15250

 Mulliken atomic charges:
              1
     1  C   -0.210850
     2  O   -0.514689
     3  C    0.387533
     4  C   -0.300104
     5  C    0.120454
     6  C   -0.211917
     7  C   -0.165478
     8  C    0.295839
     9  O   -0.545603
    10  C    0.650147
    11  O   -0.466388
    12  C   -0.010521
    13  C   -0.446286
    14  C   -0.433734
    15  C   -0.450877
    16  C    0.311817
    17  O   -0.303690
    18  C   -0.515905
    19  H    0.171086
    20  H    0.156390
    21  H    0.147923
    22  H    0.120567
    23  H    0.138727
    24  H    0.137893
    25  H    0.151343
    26  H    0.165485
    27  H    0.142137
    28  H    0.154649
    29  H    0.133893
    30  H    0.153822
    31  H    0.164553
    32  H    0.148697
    33  H    0.144490
    34  H    0.197568
    35  H    0.186051
    36  H    0.194975
 Sum of Mulliken atomic charges =  -0.00000

 Dipole moment (field-independent basis, Debye):
    X=             -1.6695    Y=              2.7575    Z=             -1.1705  Tot=              3.4294
 Quadrupole moment (field-independent basis, Debye-Ang):
   XX=            -90.0923   YY=            -95.7599   ZZ=           -112.5464
   XY=            -11.1450   XZ=             -3.6884   YZ=              0.0615

 Summary of Natural Population Analysis:

                                       Natural Population
                Natural  -----------------------------------------------
    Atom  No    Charge         Core      Valence    Rydberg      Total
 -----------------------------------------------------------------------
      C    1   -0.31368      1.99943     4.30027    0.01399     6.31368
      O    2   -0.51652      1.99973     6.50488    0.01191     8.51652
      C    3    0.30698      1.99871     3.67188    0.02243     5.69302
      C    4   -0.32613      1.99899     4.31577    0.01137     6.32613
      C    5   -0.14511      1.99890     4.13098    0.01523     6.14511
      C    6   -0.24403      1.99904     4.23069    0.01430     6.24403
      C    7   -0.24481      1.99901     4.23195    0.01385     6.24481
      C    8    0.23603      1.99868     3.74127    0.02402     5.76397
      O    9   -0.55230      1.99970     6.54124    0.01137     8.55230
      C   10    0.84970      1.99927     3.10096    0.05007     5.15030
      O   11   -0.57616      1.99977     6.55637    0.02003     8.57616
      C   12   -0.15213      1.99904     4.14079    0.01230     6.15213
      C   13   -0.66692      1.99938     4.65773    0.00980     6.66692
      C   14   -0.66879      1.99940     4.65839    0.01101     6.66879
      C   15   -0.66880      1.99938     4.65971    0.00970     6.66880
      C   16    0.37378      1.99929     3.59441    0.03252     5.62622
      O   17   -0.25274      1.99981     6.23480    0.01813     8.25274
      C   18   -0.70911      1.99932     4.70298    0.00681     6.70911
      H   19    0.22922      0.00000     0.77026    0.00052     0.77078
      H   20    0.20546      0.00000     0.79255    0.00199     0.79454
      H   21    0.19960      0.00000     0.79839    0.00201     0.80040
      H   22    0.23070      0.00000     0.76832    0.00098     0.76930
      H   23    0.24149      0.00000     0.75774    0.00078     0.75851
      H   24    0.24899      0.00000     0.74994    0.00107     0.75101
      H   25    0.23650      0.00000     0.76248    0.00102     0.76350
      H   26    0.24550      0.00000     0.75335    0.00115     0.75450
      H   27    0.23059      0.00000     0.76831    0.00110     0.76941
      H   28    0.24215      0.00000     0.75677    0.00108     0.75785
      H   29    0.22781      0.00000     0.77125    0.00095     0.77219
      H   30    0.24142      0.00000     0.75752    0.00107     0.75858
      H   31    0.24478      0.00000     0.75411    0.00110     0.75522
      H   32    0.23457      0.00000     0.76450    0.00092     0.76543
      H   33    0.23240      0.00000     0.76653    0.00107     0.76760
      H   34    0.26103      0.00000     0.73768    0.00129     0.73897
      H   35    0.25920      0.00000     0.73967    0.00112     0.74080
      H   36    0.25935      0.00000     0.73933    0.00132     0.74065
 =======================================================================
   * Total *   -0.00000     35.98686    97.68377    0.32937   134.00000

 Normal termination of Gaussian 09 at Wed Sep 29 18:28:59 2021.
