 Gaussian 09, Revision A.02,

 -----------------------------------
 #p opt b3lyp/6-31G* scf=(xqc,tight)
 -----------------------------------

 ---------------------------------------
 COC(=O)c1ccc2c(c1)ccc(c2)OC(=O)C_conf_0
 ---------------------------------------
 Symbolic Z-matrix:
 Charge =  0 Multiplicity = 1

 SCF Done:  E(RB3LYP) =  -841.642287334     A.U. after   15 cycles
 SCF Done:  E(RB3LYP) =  -841.648787698     A.U. after   13 cycles
 SCF Done:  E(RB3LYP) =  -841.649116695     A.U. after   12 cycles
 SCF Done:  E(RB3LYP) =  -841.649042914     A.U. after   12 cycles
 SCF Done:  E(RB3LYP) =  -841.649371643     A.U. after   11 cycles
 SCF Done:  E(RB3LYP) =  -841.649496166     A.U. after   12 cycles
 SCF Done:  E(RB3LYP) =  -841.649549316     A.U. after   11 cycles
 SCF Done:  E(RB3LYP) =  -841.649575246     A.U. after   10 cycles
 SCF Done:  E(RB3LYP) =  -841.649624085     A.U. after   12 cycles
 SCF Done:  E(RB3LYP) =  -841.649654634     A.U. after   11 cycles
 SCF Done:  E(RB3LYP) =  -841.649793142     A.U. after   10 cycles
 SCF Done:  E(RB3LYP) =  -841.649798758     A.U. after   11 cycles
 SCF Done:  E(RB3LYP) =  -841.649799297     A.U. after   11 cycles
 SCF Done:  E(RB3LYP) =  -841.649799444     A.U. after   10 cycles
 SCF Done:  E(RB3LYP) =  -841.649799615     A.U. after    8 cycles
 SCF Done:  E(RB3LYP) =  -841.649799934     A.U. after   10 cycles
 SCF Done:  E(RB3LYP) =  -841.649799944     A.U. after   16 cycles
 SCF Done:  E(RB3LYP) =  -841.649799945     A.U. after    6 cycles
 Optimization completed.
    -- Stationary point found.
 Normal termination of Gaussian 09 at Wed Sep 29 06:21:41 2021.

 ----------------------------------------------------------------------
 #p freq b3lyp/6-31G* volume NMR pop=NPA density=current Geom=AllCheck
 Guess=Read
 ----------------------------------------------------------------------

 COC(=O)c1ccc2c(c1)ccc(c2)OC(=O)C_conf_0
 ---------------------------------------
 Redundant internal coordinates taken from checkpoint file:
 C14H12O4_f0c3_conf_0.chk
 Charge =  0 Multiplicity = 1

 SCF Done:  E(RB3LYP) =  -841.649799945     A.U. after    1 cycles

  1  C    Isotropic =   138.9601   Anisotropy =    62.5734

  2  O    Isotropic =   164.9062   Anisotropy =   130.3466

  3  C    Isotropic =    32.2101   Anisotropy =    73.8761

  4  O    Isotropic =   -41.9410   Anisotropy =   568.5310

  5  C    Isotropic =    68.5311   Anisotropy =   143.3632

  6  C    Isotropic =    69.3508   Anisotropy =   165.4168

  7  C    Isotropic =    67.1663   Anisotropy =   143.5983

  8  C    Isotropic =    59.9339   Anisotropy =   196.9965

  9  C    Isotropic =    66.6143   Anisotropy =   192.3964

 10  C    Isotropic =    62.7690   Anisotropy =   158.7412

 11  C    Isotropic =    64.9940   Anisotropy =   147.3303

 12  C    Isotropic =    76.4561   Anisotropy =   135.0874

 13  C    Isotropic =    43.2226   Anisotropy =   107.5786

 14  C    Isotropic =    78.4276   Anisotropy =   131.0503

 15  O    Isotropic =   106.6875   Anisotropy =   178.7835

 16  C    Isotropic =    29.4815   Anisotropy =    75.9597

 17  O    Isotropic =   -93.8047   Anisotropy =   559.2450

 18  C    Isotropic =   167.7860   Anisotropy =    41.7390

 19  H    Isotropic =    28.6567   Anisotropy =     7.3659

 20  H    Isotropic =    28.2581   Anisotropy =     8.4147

 21  H    Isotropic =    28.2582   Anisotropy =     8.4148

 22  H    Isotropic =    24.1903   Anisotropy =     8.9009

 23  H    Isotropic =    24.6020   Anisotropy =     7.8150

 24  H    Isotropic =    23.6283   Anisotropy =     9.4425

 25  H    Isotropic =    24.4378   Anisotropy =     7.1752

 26  H    Isotropic =    25.2051   Anisotropy =     6.4833

 27  H    Isotropic =    23.2923   Anisotropy =    11.4469

 28  H    Isotropic =    29.8976   Anisotropy =     5.8013

 29  H    Isotropic =    29.8977   Anisotropy =     5.8015

 30  H    Isotropic =    30.4778   Anisotropy =     7.5464

  Exact polarizability: 284.928  11.961 158.314   0.001  -0.002  65.397
 Approx polarizability: 386.138  21.697 297.224   0.003  -0.003 100.431

                     1                      2                      3
                     A                      A                      A
 Frequencies --    14.0032                35.3254                51.8090
 Red. masses --     6.0538                 3.6133                 4.6162
 Frc consts  --     0.0007                 0.0027                 0.0073
 IR Inten    --     2.8675                 2.5334                 0.3003

                     4                      5                      6
                     A                      A                      A
 Frequencies --    74.0613                90.0552                91.4769
 Red. masses --     1.4841                 2.3945                 4.9432
 Frc consts  --     0.0048                 0.0114                 0.0244
 IR Inten    --     0.3611                 0.3240                 1.8340

                     7                      8                      9
                     A                      A                      A
 Frequencies --   130.7395               151.2073               152.8548
 Red. masses --     1.4928                 2.1997                 5.2954
 Frc consts  --     0.0150                 0.0296                 0.0729
 IR Inten    --     1.9390                 1.6983                 0.6650

                    10                     11                     12
                     A                      A                      A
 Frequencies --   189.1613               224.2696               237.8550
 Red. masses --     3.7633                 6.0038                 6.0677
 Frc consts  --     0.0793                 0.1779                 0.2023
 IR Inten    --     0.8044                 0.9038                 0.2828

                    13                     14                     15
                     A                      A                      A
 Frequencies --   273.1119               333.9506               356.4896
 Red. masses --     4.8313                 5.0092                 6.0507
 Frc consts  --     0.2123                 0.3291                 0.4531
 IR Inten    --     5.5365                22.2329                 1.5280

                    16                     17                     18
                     A                      A                      A
 Frequencies --   366.8223               412.8114               413.4226
 Red. masses --     4.5745                 3.4204                 5.5863
 Frc consts  --     0.3627                 0.3434                 0.5626
 IR Inten    --     1.1089                 0.0226                 2.0114

                    19                     20                     21
                     A                      A                      A
 Frequencies --   491.0909               512.5950               522.3767
 Red. masses --     2.7413                 5.2751                 5.8991
 Frc consts  --     0.3895                 0.8166                 0.9484
 IR Inten    --     8.8000                15.2009                 0.1437

                    22                     23                     24
                     A                      A                      A
 Frequencies --   542.8205               550.9080               589.3564
 Red. masses --     5.7210                 3.6678                 2.9558
 Frc consts  --     0.9932                 0.6559                 0.6049
 IR Inten    --     0.7508                 1.2394                 3.9470

                    25                     26                     27
                     A                      A                      A
 Frequencies --   652.2654               656.2863               670.5634
 Red. masses --     6.7244                 3.9170                 5.8353
 Frc consts  --     1.6856                 0.9940                 1.5460
 IR Inten    --     1.6094                 0.1950                20.2059

                    28                     29                     30
                     A                      A                      A
 Frequencies --   746.7777               754.2817               778.1281
 Red. masses --     6.5094                 3.9358                 3.7144
 Frc consts  --     2.1388                 1.3193                 1.3251
 IR Inten    --     4.2512                16.1030                 9.5734

                    31                     32                     33
                     A                      A                      A
 Frequencies --   796.8876               832.4111               843.3142
 Red. masses --     5.4423                 1.4183                 4.6930
 Frc consts  --     2.0362                 0.5790                 1.9664
 IR Inten    --     5.8759                28.6824                 1.1558

                    34                     35                     36
                     A                      A                      A
 Frequencies --   844.6286               914.5528               923.6882
 Red. masses --     1.6605                 6.4635                 1.4487
 Frc consts  --     0.6979                 3.1852                 0.7282
 IR Inten    --     0.0460                13.1393                22.7668

                    37                     38                     39
                     A                      A                      A
 Frequencies --   944.4890               947.6289               971.5102
 Red. masses --     5.6496                 1.4061                 1.3297
 Frc consts  --     2.9694                 0.7439                 0.7394
 IR Inten    --    13.3264                16.4591                 1.9207

                    40                     41                     42
                     A                      A                      A
 Frequencies --   982.4455               984.6933              1029.8563
 Red. masses --     1.3089                 3.5041                 4.7227
 Frc consts  --     0.7444                 2.0019                 2.9512
 IR Inten    --     0.0829                 4.0607                43.8226

                    43                     44                     45
                     A                      A                      A
 Frequencies --  1040.3094              1072.9825              1131.3495
 Red. masses --     1.7838                 1.7210                 2.2986
 Frc consts  --     1.1374                 1.1674                 1.7335
 IR Inten    --    90.3821                 7.0456                60.1103

                    46                     47                     48
                     A                      A                      A
 Frequencies --  1159.3063              1180.4023              1185.3171
 Red. masses --     1.8284                 1.3674                 1.2733
 Frc consts  --     1.4478                 1.1226                 1.0540
 IR Inten    --    15.6578                33.2296                 0.8554

                    49                     50                     51
                     A                      A                      A
 Frequencies --  1189.0295              1220.7638              1235.0495
 Red. masses --     1.3657                 1.5462                 3.0592
 Frc consts  --     1.1376                 1.3576                 2.7493
 IR Inten    --   116.2113                28.9806               687.1058

                    52                     53                     54
                     A                      A                      A
 Frequencies --  1247.9963              1277.7857              1296.8688
 Red. masses --     3.9643                 2.6858                 1.8457
 Frc consts  --     3.6379                 2.5836                 1.8290
 IR Inten    --   492.1830                77.3144                65.3733

                    55                     56                     57
                     A                      A                      A
 Frequencies --  1312.2247              1378.2742              1423.0142
 Red. masses --     3.0584                 1.9069                 1.5088
 Frc consts  --     3.1029                 2.1342                 1.8001
 IR Inten    --   504.5716                 8.7723                51.0073

                    58                     59                     60
                     A                      A                      A
 Frequencies --  1424.3543              1428.2576              1455.8812
 Red. masses --     4.3422                 3.8531                 4.2720
 Frc consts  --     5.1904                 4.6310                 5.3349
 IR Inten    --     1.6612                52.0014                 2.5937

                    61                     62                     63
                     A                      A                      A
 Frequencies --  1492.7158              1499.1265              1503.6534
 Red. masses --     1.2204                 1.0491                 1.0462
 Frc consts  --     1.6021                 1.3892                 1.3936
 IR Inten    --     7.3379                13.4662                 8.4528

                    64                     65                     66
                     A                      A                      A
 Frequencies --  1512.3210              1521.6568              1525.0525
 Red. masses --     1.0482                 2.1468                 1.1091
 Frc consts  --     1.4125                 2.9286                 1.5197
 IR Inten    --     5.7978               108.5144                 7.0343

                    67                     68                     69
                     A                      A                      A
 Frequencies --  1554.4855              1626.1969              1657.9416
 Red. masses --     3.8222                 7.6540                 5.7837
 Frc consts  --     5.4418                11.9258                 9.3669
 IR Inten    --    26.6111                13.8858                11.4208

                    70                     71                     72
                     A                      A                      A
 Frequencies --  1680.3646              1798.4977              1839.1742
 Red. masses --     6.3468                11.6107                11.3392
 Frc consts  --    10.5587                22.1273                22.5985
 IR Inten    --   111.9257               232.5417               176.7619

                    73                     74                     75
                     A                      A                      A
 Frequencies --  3072.6180              3074.4586              3135.2216
 Red. masses --     1.0371                 1.0295                 1.1007
 Frc consts  --     5.7687                 5.7333                 6.3748
 IR Inten    --     1.4330                46.3420                 4.8689

                    76                     77                     78
                     A                      A                      A
 Frequencies --  3148.7612              3180.0114              3185.4390
 Red. masses --     1.1075                 1.1071                 1.1034
 Frc consts  --     6.4693                 6.5963                 6.5964
 IR Inten    --    21.6445                18.7833                 7.4959

                    79                     80                     81
                     A                      A                      A
 Frequencies --  3192.4639              3194.6847              3213.2984
 Red. masses --     1.0896                 1.0888                 1.0904
 Frc consts  --     6.5428                 6.5471                 6.6335
 IR Inten    --     9.7254                 5.2715                 0.6616

                    82                     83                     84
                     A                      A                      A
 Frequencies --  3222.1433              3236.3915              3282.4804
 Red. masses --     1.0942                 1.0925                 1.0913
 Frc consts  --     6.6933                 6.7422                 6.9279
 IR Inten    --     8.0839                 4.1286                 3.3221

 - Thermochemistry -
 -------------------
 Temperature   298.150 Kelvin.  Pressure   1.00000 Atm.
 Atom     1 has atomic number  6 and mass  12.00000

 Molecular mass:   244.07356 amu.
 Principal axes and moments of inertia in atomic units:
                           1         2         3
     Eigenvalues --  1144.43777********************
           X            0.99998   0.00644   0.00000
           Y           -0.00644   0.99998  -0.00000
           Z           -0.00000   0.00000   1.00000
 This molecule is an asymmetric top.
 Rotational symmetry number  1.
 Warning -- assumption of classical behavior for rotation
           may cause significant error
 Rotational temperatures (Kelvin)      0.07568     0.00762     0.00694
 Rotational constants (GHZ):           1.57697     0.15883     0.14456
 Zero-point vibrational energy     610641.6 (Joules/Mol)
                                  145.94685 (Kcal/Mol)
 Warning -- explicit consideration of  24 degrees of freedom as
           vibrations may cause significant error
 Vibrational temperatures:     20.15    50.83    74.54   106.56   129.57
          (Kelvin)            131.61   188.10   217.55   219.92   272.16
                              322.67   342.22   392.95   480.48   512.91
                              527.77   593.94   594.82   706.57   737.51
                              751.58   781.00   792.63   847.95   938.46
                              944.25   964.79  1074.45  1085.24  1119.55
                             1146.54  1197.65  1213.34  1215.23  1315.84
                             1328.98  1358.91  1363.42  1397.78  1413.52
                             1416.75  1481.73  1496.77  1543.78  1627.76
                             1667.98  1698.33  1705.40  1710.75  1756.40
                             1776.96  1795.59  1838.45  1865.90  1888.00
                             1983.03  2047.40  2049.33  2054.94  2094.69
                             2147.68  2156.91  2163.42  2175.89  2189.32
                             2194.21  2236.56  2339.73  2385.41  2417.67
                             2587.63  2646.16  4420.81  4423.45  4510.88
                             4530.36  4575.32  4583.13  4593.24  4596.43
                             4623.21  4635.94  4656.44  4722.75

 Zero-point correction=                           0.232581 (Hartree/Particle)
 Thermal correction to Energy=                    0.248802
 Thermal correction to Enthalpy=                  0.249746
 Thermal correction to Gibbs Free Energy=         0.186314
 Sum of electronic and zero-point Energies=           -841.417219
 Sum of electronic and thermal Energies=              -841.400998
 Sum of electronic and thermal Enthalpies=            -841.400054
 Sum of electronic and thermal Free Energies=         -841.463486

                     E (Thermal)             CV                S
                      KCal/Mol        Cal/Mol-Kelvin    Cal/Mol-Kelvin
 Total                  156.126             59.924            133.505
 Electronic               0.000              0.000              0.000
 Translational            0.889              2.981             42.378
 Rotational               0.889              2.981             33.451
 Vibrational            154.348             53.962             57.676
 Vibration     1          0.593              1.986              7.342
 Vibration     2          0.594              1.982              5.505
 Vibration     3          0.596              1.977              4.747
 Vibration     4          0.599              1.966              4.042
 Vibration     5          0.602              1.956              3.659
 Vibration     6          0.602              1.955              3.628
 Vibration     7          0.612              1.923              2.935
 Vibration     8          0.619              1.901              2.657
 Vibration     9          0.619              1.900              2.636
 Vibration    10          0.633              1.855              2.236
 Vibration    11          0.649              1.804              1.924
 Vibration    12          0.656              1.783              1.819
 Vibration    13          0.676              1.723              1.576
 Vibration    14          0.715              1.608              1.241
 Vibration    15          0.732              1.562              1.137
 Vibration    16          0.740              1.540              1.093
 Vibration    17          0.777              1.442              0.917
 Vibration    18          0.777              1.441              0.915
 Vibration    19          0.847              1.270              0.681
 Vibration    20          0.868              1.222              0.627
 Vibration    21          0.877              1.200              0.604
 Vibration    22          0.898              1.155              0.559
 Vibration    23          0.906              1.138              0.542
 Vibration    24          0.947              1.054              0.468

 Optimization completed.
    -- Stationary point found.
 Normal termination of Gaussian 09 at Wed Sep 29 07:30:16 2021.
 Gaussian 09:  AM64L-G09RevA.02 11-Jun-2009

 ----------------------------------------------------------------------
 #p TD(NStates=10, Root=1) b3lyp/6-31G* volume pop=NPA density=current
 Geom=AllCheck Guess=Read
 ----------------------------------------------------------------------

 COC(=O)c1ccc2c(c1)ccc(c2)OC(=O)C_conf_0
 ---------------------------------------
 Redundant internal coordinates taken from checkpoint file:
 C14H12O4_f0c3_conf_0.chk
 Charge =  0 Multiplicity = 1

                         Standard orientation:
 ---------------------------------------------------------------------
 Center     Atomic      Atomic             Coordinates (Angstroms)
 Number     Number       Type             X           Y           Z
 ---------------------------------------------------------------------
      1          6           0       -6.103276   -0.746418   -0.000019
      2          8           0       -4.678540   -0.917867    0.000019
      3          6           0       -3.959680    0.230060   -0.000032
      4          8           0       -4.474261    1.331965   -0.000099
      5          6           0       -2.492059   -0.021000    0.000007
      6          6           0       -1.944102   -1.332962    0.000073
      7          6           0       -0.581822   -1.514958    0.000102
      8          6           0        0.308010   -0.405433    0.000070
      9          6           0       -0.244912    0.915898    0.000004
     10          6           0       -1.650035    1.076018   -0.000028
     11          6           0        0.645431    2.025038   -0.000027
     12          6           0        2.003771    1.834786    0.000002
     13          6           0        2.538556    0.520055    0.000068
     14          6           0        1.717589   -0.587219    0.000103
     15          8           0        3.931010    0.517397    0.000114
     16          6           0        4.721579   -0.598263   -0.000073
     17          8           0        4.322697   -1.737694   -0.000288
     18          6           0        6.171626   -0.177223    0.000034
     19          1           0       -6.519045   -1.754572    0.000010
     20          1           0       -6.424469   -0.197519   -0.889356
     21          1           0       -6.424508   -0.197453    0.889264
     22          1           0       -2.613682   -2.185265    0.000101
     23          1           0       -0.164116   -2.518472    0.000151
     24          1           0       -2.084452    2.071359   -0.000081
     25          1           0        0.234566    3.031203   -0.000077
     26          1           0        2.694761    2.671494   -0.000022
     27          1           0        2.131861   -1.584406    0.000138
     28          1           0        6.387074    0.434121    0.882485
     29          1           0        6.387094    0.434525   -0.882130
     30          1           0        6.803605   -1.065689   -0.000158
 ---------------------------------------------------------------------

 SCF Done:  E(RB3LYP) =  -841.649799945     A.U. after    2 cycles

 Excitation energies and oscillator strengths:

 Excited State   1:      Singlet-A      4.0469 eV  306.37 nm  f=0.0796  <S**2>=0.000
      63 -> 65        -0.23993
      63 -> 66         0.15328
      64 -> 65         0.61463
      64 -> 66         0.19204
 This state for optimization and/or second-order correction.
 Total Energy, E(TD-HF/TD-KS) =  -841.501079793
 Copying the excited state density for this state as the 1-particle RhoCI density.

 Excited State   2:      Singlet-A      4.2568 eV  291.26 nm  f=0.0668  <S**2>=0.000
      63 -> 65         0.45672
      64 -> 65         0.30578
      64 -> 66        -0.43634

 Excited State   3:      Singlet-A      4.7124 eV  263.10 nm  f=0.0002  <S**2>=0.000
      62 -> 65         0.66136
      62 -> 66         0.17052
      62 -> 67         0.13544
      62 -> 69        -0.10915

 Excited State   4:      Singlet-A      5.2002 eV  238.42 nm  f=1.0557  <S**2>=0.000
      63 -> 65         0.45573
      63 -> 66         0.14977
      64 -> 66         0.47783
      64 -> 67        -0.10220

 Excited State   5:      Singlet-A      5.2174 eV  237.64 nm  f=0.0004  <S**2>=0.000
      61 -> 65         0.61572
      61 -> 67        -0.33733

 Excited State   6:      Singlet-A      5.2680 eV  235.35 nm  f=0.0025  <S**2>=0.000
      60 -> 65         0.17186
      64 -> 67         0.67393

 Excited State   7:      Singlet-A      5.5810 eV  222.16 nm  f=0.2692  <S**2>=0.000
      60 -> 66         0.13195
      63 -> 66         0.60312
      63 -> 67         0.17970
      64 -> 65        -0.12463
      64 -> 66        -0.10561
      64 -> 68         0.14231
      64 -> 69         0.14181

 Excited State   8:      Singlet-A      5.6885 eV  217.96 nm  f=0.0611  <S**2>=0.000
      58 -> 65         0.11629
      60 -> 65         0.55258
      63 -> 67         0.20360
      64 -> 67        -0.13324
      64 -> 68        -0.29591

 Excited State   9:      Singlet-A      5.7381 eV  216.07 nm  f=0.0000  <S**2>=0.000
      62 -> 65        -0.20025
      62 -> 66         0.66620

 Excited State  10:      Singlet-A      5.9575 eV  208.11 nm  f=0.0872  <S**2>=0.000
      60 -> 65        -0.20203
      60 -> 66         0.16249
      63 -> 66        -0.18140
      63 -> 67         0.60538

 The electronic state is 1-A.
 Alpha  occ. eigenvalues --  -19.21438 -19.19096 -19.15236 -19.13058 -10.33490
 Alpha  occ. eigenvalues --  -10.31231 -10.26554 -10.23929 -10.20927 -10.20606
 Alpha  occ. eigenvalues --  -10.20521 -10.20445 -10.20358 -10.20180 -10.20042
 Alpha  occ. eigenvalues --  -10.19760 -10.19576 -10.19471  -1.11858  -1.09860
 Alpha  occ. eigenvalues --   -1.03763  -1.00866  -0.88250  -0.83612  -0.78463
 Alpha  occ. eigenvalues --   -0.78077  -0.75076  -0.73289  -0.71852  -0.66745
 Alpha  occ. eigenvalues --   -0.62944  -0.61074  -0.59663  -0.55851  -0.53470
 Alpha  occ. eigenvalues --   -0.52128  -0.50305  -0.48921  -0.48546  -0.47886
 Alpha  occ. eigenvalues --   -0.47270  -0.46549  -0.45518  -0.44815  -0.42751
 Alpha  occ. eigenvalues --   -0.42250  -0.42185  -0.42112  -0.41563  -0.40428
 Alpha  occ. eigenvalues --   -0.38848  -0.38452  -0.38310  -0.36018  -0.35733
 Alpha  occ. eigenvalues --   -0.35462  -0.33908  -0.31555  -0.30020  -0.28925
 Alpha  occ. eigenvalues --   -0.28197  -0.27147  -0.24494  -0.22179
 Alpha virt. eigenvalues --   -0.05705  -0.03072  -0.00562   0.02773   0.04607
 Alpha virt. eigenvalues --    0.09157   0.10466   0.11083   0.11928   0.12099
 Alpha virt. eigenvalues --    0.12521   0.13942   0.14904   0.15689   0.16439

 Mulliken atomic charges:
              1
     1  C   -0.207109
     2  O   -0.486481
     3  C    0.557537
     4  O   -0.525747
     5  C    0.043462
     6  C   -0.140285
     7  C   -0.190332
     8  C    0.128780
     9  C    0.147824
    10  C   -0.250038
    11  C   -0.181334
    12  C   -0.160099
    13  C    0.329147
    14  C   -0.219484
    15  O   -0.504478
    16  C    0.583163
    17  O   -0.454959
    18  C   -0.523370
    19  H    0.152288
    20  H    0.163694
    21  H    0.163693
    22  H    0.173638
    23  H    0.154112
    24  H    0.164853
    25  H    0.160050
    26  H    0.161816
    27  H    0.206666
    28  H    0.183294
    29  H    0.183293
    30  H    0.186404
 Sum of Mulliken atomic charges =  -0.00000

 Dipole moment (field-independent basis, Debye):
    X=              3.6309    Y=             -0.0211    Z=              0.0005  Tot=              3.6310
 Quadrupole moment (field-independent basis, Debye-Ang):
   XX=            -94.5743   YY=            -99.7383   ZZ=           -103.2065
   XY=             18.7655   XZ=              0.0011   YZ=             -0.0014

 Summary of Natural Population Analysis:

                                       Natural Population
                Natural  -----------------------------------------------
    Atom  No    Charge         Core      Valence    Rydberg      Total
 -----------------------------------------------------------------------
      C    1   -0.31734      1.99943     4.30371    0.01421     6.31734
      O    2   -0.56587      1.99975     6.55563    0.01049     8.56587
      C    3    0.74520      1.99936     3.21041    0.04503     5.25480
      O    4   -0.63916      1.99979     6.62023    0.01914     8.63916
      C    5   -0.18743      1.99892     4.17082    0.01769     6.18743
      C    6   -0.12803      1.99908     4.11488    0.01407     6.12803
      C    7   -0.16610      1.99908     4.15237    0.01465     6.16610
      C    8   -0.07998      1.99904     4.06590    0.01504     6.07998
      C    9   -0.07736      1.99903     4.06341    0.01492     6.07736
      C   10   -0.16234      1.99903     4.14719    0.01611     6.16234
      C   11   -0.15402      1.99906     4.14053    0.01442     6.15402
      C   12   -0.21124      1.99905     4.19737    0.01481     6.21124
      C   13    0.26747      1.99876     3.71195    0.02181     5.73253
      C   14   -0.18550      1.99899     4.17250    0.01401     6.18550
      O   15   -0.53165      1.99969     6.52061    0.01134     8.53165
      C   16    0.81057      1.99945     3.14724    0.04274     5.18943
      O   17   -0.59592      1.99977     6.57587    0.02028     8.59592
      C   18   -0.77280      1.99934     4.76681    0.00664     6.77280
      H   19    0.21512      0.00000     0.78421    0.00067     0.78488
      H   20    0.21541      0.00000     0.78289    0.00170     0.78459
      H   21    0.21541      0.00000     0.78289    0.00170     0.78459
      H   22    0.25908      0.00000     0.73986    0.00106     0.74092
      H   23    0.24123      0.00000     0.75770    0.00107     0.75877
      H   24    0.25653      0.00000     0.74135    0.00212     0.74347
      H   25    0.24665      0.00000     0.75233    0.00103     0.75335
      H   26    0.25443      0.00000     0.74451    0.00106     0.74557
      H   27    0.27534      0.00000     0.72289    0.00177     0.72466
      H   28    0.25670      0.00000     0.74239    0.00090     0.74330
      H   29    0.25670      0.00000     0.74240    0.00090     0.74330
      H   30    0.25889      0.00000     0.74021    0.00090     0.74111
 =======================================================================
   * Total *   -0.00000     35.98664    91.67105    0.34231   128.00000

 Normal termination of Gaussian 09 at Wed Sep 29 13:43:45 2021.
