 Gaussian 09, Revision A.02,

 -----------------------------------
 #p opt b3lyp/6-31G* scf=(xqc,tight)
 -----------------------------------

 ------------------------------------
 COCOc1ccc2c(c1)ccc(c2)OC(=O)C_conf_0
 ------------------------------------
 Symbolic Z-matrix:
 Charge =  0 Multiplicity = 1

 SCF Done:  E(RB3LYP) =  -842.804551572     A.U. after   15 cycles
 SCF Done:  E(RB3LYP) =  -842.812794891     A.U. after   13 cycles
 SCF Done:  E(RB3LYP) =  -842.813690158     A.U. after   16 cycles
 SCF Done:  E(RB3LYP) =  -842.813997607     A.U. after   13 cycles
 SCF Done:  E(RB3LYP) =  -842.814367067     A.U. after   13 cycles
 SCF Done:  E(RB3LYP) =  -842.815183855     A.U. after   12 cycles
 SCF Done:  E(RB3LYP) =  -842.816299870     A.U. after   13 cycles
 SCF Done:  E(RB3LYP) =  -842.816554153     A.U. after   16 cycles
 SCF Done:  E(RB3LYP) =  -842.816664712     A.U. after   12 cycles
 SCF Done:  E(RB3LYP) =  -842.816707741     A.U. after   11 cycles
 SCF Done:  E(RB3LYP) =  -842.816964182     A.U. after   10 cycles
 SCF Done:  E(RB3LYP) =  -842.816978819     A.U. after   10 cycles
 SCF Done:  E(RB3LYP) =  -842.816988668     A.U. after   10 cycles
 SCF Done:  E(RB3LYP) =  -842.816991456     A.U. after    9 cycles
 SCF Done:  E(RB3LYP) =  -842.816992577     A.U. after    8 cycles
 SCF Done:  E(RB3LYP) =  -842.816992832     A.U. after    7 cycles
 SCF Done:  E(RB3LYP) =  -842.816992904     A.U. after    7 cycles
 SCF Done:  E(RB3LYP) =  -842.816992935     A.U. after    7 cycles
 Optimization completed.
    -- Stationary point found.
 Normal termination of Gaussian 09 at Wed Sep 29 05:11:52 2021.

 ----------------------------------------------------------------------
 #p freq b3lyp/6-31G* volume NMR pop=NPA density=current Geom=AllCheck
 Guess=Read
 ----------------------------------------------------------------------

 COCOc1ccc2c(c1)ccc(c2)OC(=O)C_conf_0
 ------------------------------------
 Redundant internal coordinates taken from checkpoint file:
 C14H14O4_1367_conf_0.chk
 Charge =  0 Multiplicity = 1

 SCF Done:  E(RB3LYP) =  -842.816992935     A.U. after    1 cycles

  1  C    Isotropic =   136.3807   Anisotropy =    72.8818

  2  O    Isotropic =   268.9376   Anisotropy =    66.9120

  3  C    Isotropic =    96.0612   Anisotropy =    36.2271

  4  O    Isotropic =   203.0058   Anisotropy =    85.9977

  5  C    Isotropic =    40.9125   Anisotropy =   120.6743

  6  C    Isotropic =    78.9146   Anisotropy =   146.2003

  7  C    Isotropic =    66.2987   Anisotropy =   144.2806

  8  C    Isotropic =    67.1122   Anisotropy =   189.0979

  9  C    Isotropic =    64.8029   Anisotropy =   192.4556

 10  C    Isotropic =    80.9408   Anisotropy =   115.7407

 11  C    Isotropic =    68.0018   Anisotropy =   140.6753

 12  C    Isotropic =    72.8190   Anisotropy =   149.1108

 13  C    Isotropic =    48.0805   Anisotropy =   103.7858

 14  C    Isotropic =    77.8196   Anisotropy =   120.9221

 15  O    Isotropic =   103.5508   Anisotropy =   155.8312

 16  C    Isotropic =    30.4588   Anisotropy =    74.8280

 17  O    Isotropic =   -79.7563   Anisotropy =   565.5760

 18  C    Isotropic =   169.0432   Anisotropy =    39.7169

 19  H    Isotropic =    28.6603   Anisotropy =     8.3457

 20  H    Isotropic =    29.1565   Anisotropy =     8.6018

 21  H    Isotropic =    28.3419   Anisotropy =     7.3450

 22  H    Isotropic =    27.1388   Anisotropy =     6.5980

 23  H    Isotropic =    26.8573   Anisotropy =     4.0887

 24  H    Isotropic =    24.6447   Anisotropy =     9.9497

 25  H    Isotropic =    24.6539   Anisotropy =     7.7728

 26  H    Isotropic =    25.1653   Anisotropy =     8.2850

 27  H    Isotropic =    24.7166   Anisotropy =     7.2699

 28  H    Isotropic =    24.8475   Anisotropy =     7.9862

 29  H    Isotropic =    25.1481   Anisotropy =     8.2769

 30  H    Isotropic =    29.9629   Anisotropy =     5.5214

 31  H    Isotropic =    30.5242   Anisotropy =     7.6256

 32  H    Isotropic =    29.9716   Anisotropy =     6.1238

  Exact polarizability: 273.053  -2.916 147.953   9.195  -3.597  83.321
 Approx polarizability: 367.335  -8.486 267.730  21.001  -7.756 129.422

                     1                      2                      3
                     A                      A                      A
 Frequencies --    24.1771                36.1985                48.6651
 Red. masses --     5.7752                 4.5671                 3.3434
 Frc consts  --     0.0020                 0.0035                 0.0047
 IR Inten    --     0.4579                 1.4227                 1.4412

                     4                      5                      6
                     A                      A                      A
 Frequencies --    56.4320                78.6163                86.7296
 Red. masses --     2.6666                 2.1798                 1.8612
 Frc consts  --     0.0050                 0.0079                 0.0082
 IR Inten    --     1.0901                 0.6949                 2.1004

                     7                      8                      9
                     A                      A                      A
 Frequencies --   121.0175               128.4751               169.7048
 Red. masses --     2.4234                 3.8622                 1.6655
 Frc consts  --     0.0209                 0.0376                 0.0283
 IR Inten    --     3.3308                 0.4245                 0.2494

                    10                     11                     12
                     A                      A                      A
 Frequencies --   186.6323               201.8154               236.9677
 Red. masses --     3.5087                 4.2868                 4.8899
 Frc consts  --     0.0720                 0.1029                 0.1618
 IR Inten    --     4.3373                 4.2617                12.7182

                    13                     14                     15
                     A                      A                      A
 Frequencies --   268.8872               290.0288               345.4048
 Red. masses --     5.2965                 5.8900                 3.9722
 Frc consts  --     0.2256                 0.2919                 0.2792
 IR Inten    --     0.7508                 1.0485                 2.4449

                    16                     17                     18
                     A                      A                      A
 Frequencies --   398.7185               411.0101               427.9729
 Red. masses --     5.5800                 3.1395                 2.8217
 Frc consts  --     0.5227                 0.3125                 0.3045
 IR Inten    --     2.3750                 0.5156                 0.5371

                    19                     20                     21
                     A                      A                      A
 Frequencies --   453.3749               487.9454               500.6770
 Red. masses --     4.7582                 2.7685                 3.4874
 Frc consts  --     0.5762                 0.3884                 0.5151
 IR Inten    --     1.6417                10.5713                16.8753

                    22                     23                     24
                     A                      A                      A
 Frequencies --   531.6872               568.7672               581.8101
 Red. masses --     6.6586                 3.4712                 4.3686
 Frc consts  --     1.1090                 0.6616                 0.8713
 IR Inten    --     0.1742                 1.7612                 3.8275

                    25                     26                     27
                     A                      A                      A
 Frequencies --   595.9619               630.2876               653.1734
 Red. masses --     3.0848                 5.5640                 5.0246
 Frc consts  --     0.6455                 1.3023                 1.2630
 IR Inten    --     3.1263                19.4852                 2.7852

                    28                     29                     30
                     A                      A                      A
 Frequencies --   684.4945               724.2651               755.2013
 Red. masses --     4.5268                 5.3649                 3.4018
 Frc consts  --     1.2496                 1.6581                 1.1431
 IR Inten    --     5.5574                16.3201                 1.5382

                    31                     32                     33
                     A                      A                      A
 Frequencies --   775.7635               811.7682               824.8063
 Red. masses --     5.2599                 1.8686                 1.7485
 Frc consts  --     1.8650                 0.7255                 0.7008
 IR Inten    --     1.7375                 4.8964                20.0121

                    34                     35                     36
                     A                      A                      A
 Frequencies --   838.8464               886.8104               893.5988
 Red. masses --     2.0575                 1.5331                 1.9362
 Frc consts  --     0.8530                 0.7104                 0.9109
 IR Inten    --     3.6963                 7.7475                30.1038

                    37                     38                     39
                     A                      A                      A
 Frequencies --   914.9268               948.6465               955.4281
 Red. masses --     3.2054                 4.4426                 1.3448
 Frc consts  --     1.5809                 2.3556                 0.7233
 IR Inten    --    29.3057                27.8195                 4.1828

                    40                     41                     42
                     A                      A                      A
 Frequencies --   966.3917               968.0731               992.0823
 Red. masses --     3.8807                 1.3342                 3.3787
 Frc consts  --     2.1353                 0.7367                 1.9593
 IR Inten    --     8.6239                 0.4337                15.0167

                    43                     44                     45
                     A                      A                      A
 Frequencies --  1031.6183              1049.2303              1074.4270
 Red. masses --     1.8275                 4.7145                 1.7331
 Frc consts  --     1.1459                 3.0579                 1.1788
 IR Inten    --   171.7483               373.5479                 7.8164

                    46                     47                     48
                     A                      A                      A
 Frequencies --  1107.0602              1159.9235              1181.7251
 Red. masses --     2.2754                 1.6412                 1.7021
 Frc consts  --     1.6430                 1.3010                 1.4004
 IR Inten    --   180.6102               116.3979               135.4483

                    49                     50                     51
                     A                      A                      A
 Frequencies --  1186.7206              1190.1775              1192.7356
 Red. masses --     1.5058                 1.7561                 1.4265
 Frc consts  --     1.2494                 1.4656                 1.1957
 IR Inten    --     5.6779                92.3535                43.7387

                    52                     53                     54
                     A                      A                      A
 Frequencies --  1199.1513              1236.0353              1249.1018
 Red. masses --     1.6545                 1.7649                 4.2854
 Frc consts  --     1.4018                 1.5887                 3.9395
 IR Inten    --    33.7744                54.2860               782.4195

                    55                     56                     57
                     A                      A                      A
 Frequencies --  1271.0297              1290.7538              1293.6226
 Red. masses --     3.0944                 1.8946                 1.9683
 Frc consts  --     2.9454                 1.8598                 1.9407
 IR Inten    --   166.8342                 9.6052               105.2114

                    58                     59                     60
                     A                      A                      A
 Frequencies --  1352.7656              1384.8765              1411.6554
 Red. masses --     1.1756                 2.0108                 3.9921
 Frc consts  --     1.2676                 2.2721                 4.6871
 IR Inten    --    30.2094                17.8845                29.0943

                    61                     62                     63
                     A                      A                      A
 Frequencies --  1420.7337              1425.0185              1455.4932
 Red. masses --     2.3197                 1.9092                 1.2562
 Frc consts  --     2.7588                 2.2843                 1.5680
 IR Inten    --    49.3154                12.6053                15.6307

                    64                     65                     66
                     A                      A                      A
 Frequencies --  1461.7342              1499.4428              1500.0313
 Red. masses --     3.7023                 1.1586                 1.0503
 Frc consts  --     4.6608                 1.5348                 1.3924
 IR Inten    --     1.2230                 3.8516                12.8950

                    67                     68                     69
                     A                      A                      A
 Frequencies --  1504.2247              1514.7447              1525.4892
 Red. masses --     1.0467                 1.0556                 1.4213
 Frc consts  --     1.3953                 1.4271                 1.9488
 IR Inten    --     8.1796                 0.9457                 1.6885

                    70                     71                     72
                     A                      A                      A
 Frequencies --  1531.8948              1539.9169              1559.2711
 Red. masses --     1.5626                 1.1122                 3.4930
 Frc consts  --     2.1606                 1.5539                 5.0038
 IR Inten    --     4.6901                 6.3155                94.4494

                    73                     74                     75
                     A                      A                      A
 Frequencies --  1624.9853              1666.6272              1692.6595
 Red. masses --     7.4333                 5.9040                 6.5508
 Frc consts  --    11.5647                 9.6621                11.0581
 IR Inten    --     0.1472               144.0184                13.2534

                    76                     77                     78
                     A                      A                      A
 Frequencies --  1850.1485              3017.5189              3042.4461
 Red. masses --    11.5264                 1.0430                 1.0585
 Frc consts  --    23.2464                 5.5952                 5.7730
 IR Inten    --   216.2072                57.4232                96.3031

                    79                     80                     81
                     A                      A                      A
 Frequencies --  3072.6878              3093.9344              3111.1760
 Red. masses --     1.0371                 1.0949                 1.1090
 Frc consts  --     5.7689                 6.1753                 6.3245
 IR Inten    --     2.0256                36.5138                28.7994

                    82                     83                     84
                     A                      A                      A
 Frequencies --  3134.9128              3155.3985              3185.0017
 Red. masses --     1.1006                 1.1019                 1.1034
 Frc consts  --     6.3727                 6.4639                 6.5948
 IR Inten    --     5.0565                26.5607                 8.7142

                    85                     86                     87
                     A                      A                      A
 Frequencies --  3186.5723              3191.1457              3205.8737
 Red. masses --     1.0897                 1.0896                 1.0911
 Frc consts  --     6.5191                 6.5375                 6.6072
 IR Inten    --    11.2100                 9.4442                15.7123

                    88                     89                     90
                     A                      A                      A
 Frequencies --  3206.5274              3238.3617              3241.0192
 Red. masses --     1.0908                 1.0924                 1.0933
 Frc consts  --     6.6078                 6.7497                 6.7665
 IR Inten    --     0.0945                 1.1608                 5.0267

 - Thermochemistry -
 -------------------
 Temperature   298.150 Kelvin.  Pressure   1.00000 Atm.
 Atom     1 has atomic number  6 and mass  12.00000

 Molecular mass:   246.08921 amu.
 Principal axes and moments of inertia in atomic units:
                           1         2         3
     Eigenvalues --  1055.50881********************
           X            1.00000   0.00310  -0.00036
           Y           -0.00310   0.99994  -0.01011
           Z            0.00033   0.01011   0.99995
 This molecule is an asymmetric top.
 Rotational symmetry number  1.
 Warning -- assumption of classical behavior for rotation
           may cause significant error
 Rotational temperatures (Kelvin)      0.08206     0.00706     0.00673
 Rotational constants (GHZ):           1.70983     0.14701     0.14028
 Zero-point vibrational energy     670984.5 (Joules/Mol)
                                  160.36914 (Kcal/Mol)
 Warning -- explicit consideration of  25 degrees of freedom as
           vibrations may cause significant error
 Vibrational temperatures:     34.79    52.08    70.02    81.19   113.11
          (Kelvin)            124.78   174.12   184.85   244.17   268.52
                              290.37   340.94   386.87   417.29   496.96
                              573.67   591.35   615.76   652.30   702.04
                              720.36   764.98   818.33   837.09   857.46
                              906.84   939.77   984.83  1042.05  1086.56
                             1116.15  1167.95  1186.71  1206.91  1275.92
                             1285.69  1316.37  1364.89  1374.65  1390.42
                             1392.84  1427.38  1484.27  1509.61  1545.86
                             1592.81  1668.87  1700.24  1707.42  1712.40
                             1716.08  1725.31  1778.38  1797.18  1828.73
                             1857.10  1861.23  1946.33  1992.53  2031.05
                             2044.12  2050.28  2094.13  2103.11  2157.36
                             2158.21  2164.24  2179.38  2194.84  2204.05
                             2215.59  2243.44  2337.99  2397.90  2435.36
                             2661.95  4341.53  4377.40  4420.91  4451.48
                             4476.28  4510.43  4539.91  4582.50  4584.76
                             4591.34  4612.53  4613.47  4659.27  4663.10

 Zero-point correction=                           0.255564 (Hartree/Particle)
 Thermal correction to Energy=                    0.272205
 Thermal correction to Enthalpy=                  0.273150
 Thermal correction to Gibbs Free Energy=         0.209064
 Sum of electronic and zero-point Energies=           -842.561428
 Sum of electronic and thermal Energies=              -842.544787
 Sum of electronic and thermal Enthalpies=            -842.543843
 Sum of electronic and thermal Free Energies=         -842.607929

                     E (Thermal)             CV                S
                      KCal/Mol        Cal/Mol-Kelvin    Cal/Mol-Kelvin
 Total                  170.811             61.767            134.879
 Electronic               0.000              0.000              0.000
 Translational            0.889              2.981             42.402
 Rotational               0.889              2.981             33.477
 Vibrational            169.034             55.805             58.999
 Vibration     1          0.593              1.985              6.258
 Vibration     2          0.594              1.982              5.457
 Vibration     3          0.595              1.978              4.871
 Vibration     4          0.596              1.975              4.578
 Vibration     5          0.600              1.964              3.925
 Vibration     6          0.601              1.958              3.733
 Vibration     7          0.609              1.932              3.084
 Vibration     8          0.611              1.925              2.969
 Vibration     9          0.625              1.880              2.439
 Vibration    10          0.632              1.858              2.261
 Vibration    11          0.639              1.837              2.116
 Vibration    12          0.656              1.784              1.826
 Vibration    13          0.673              1.730              1.603
 Vibration    14          0.686              1.692              1.474
 Vibration    15          0.724              1.585              1.187
 Vibration    16          0.765              1.473              0.967
 Vibration    17          0.775              1.446              0.923
 Vibration    18          0.789              1.409              0.865
 Vibration    19          0.812              1.353              0.786
 Vibration    20          0.844              1.277              0.689
 Vibration    21          0.856              1.249              0.656
 Vibration    22          0.887              1.180              0.583
 Vibration    23          0.925              1.099              0.507
 Vibration    24          0.939              1.071              0.482
 Vibration    25          0.954              1.040              0.457

 Optimization completed.
    -- Stationary point found.
 Normal termination of Gaussian 09 at Wed Sep 29 06:29:05 2021.
 Gaussian 09:  AM64L-G09RevA.02 11-Jun-2009

 ----------------------------------------------------------------------
 #p TD(NStates=10, Root=1) b3lyp/6-31G* volume pop=NPA density=current
 Geom=AllCheck Guess=Read
 ----------------------------------------------------------------------

 COCOc1ccc2c(c1)ccc(c2)OC(=O)C_conf_0
 ------------------------------------
 Redundant internal coordinates taken from checkpoint file:
 C14H14O4_1367_conf_0.chk
 Charge =  0 Multiplicity = 1

                         Standard orientation:
 ---------------------------------------------------------------------
 Center     Atomic      Atomic             Coordinates (Angstroms)
 Number     Number       Type             X           Y           Z
 ---------------------------------------------------------------------
      1          6           0        5.937304   -0.459031   -0.965400
      2          8           0        5.224027   -0.841163    0.205797
      3          6           0        4.679392    0.233492    0.910688
      4          8           0        3.671001    0.942785    0.209920
      5          6           0        2.403849    0.405218    0.147666
      6          6           0        2.142260   -0.983574    0.285933
      7          6           0        0.846163   -1.443348    0.209907
      8          6           0       -0.241798   -0.562066   -0.018433
      9          6           0        0.034226    0.835779   -0.175509
     10          6           0        1.371176    1.291455   -0.082349
     11          6           0       -1.054756    1.720115   -0.413091
     12          6           0       -2.347369    1.259301   -0.491915
     13          6           0       -2.601622   -0.123910   -0.328172
     14          6           0       -1.584134   -1.016537   -0.100633
     15          8           0       -3.887999   -0.650320   -0.487620
     16          6           0       -4.934603   -0.134572    0.231552
     17          8           0       -4.835927    0.768015    1.025205
     18          6           0       -6.204133   -0.869701   -0.124378
     19          1           0        6.363709   -1.373567   -1.382837
     20          1           0        6.750616    0.240678   -0.720531
     21          1           0        5.277078    0.008393   -1.705005
     22          1           0        5.442919    0.993904    1.122454
     23          1           0        4.280224   -0.184674    1.840563
     24          1           0        2.965477   -1.675235    0.420366
     25          1           0        0.646839   -2.507124    0.314804
     26          1           0        1.596382    2.348995   -0.184502
     27          1           0       -0.851175    2.780933   -0.534613
     28          1           0       -3.171293    1.939690   -0.669749
     29          1           0       -1.810913   -2.072832    0.010605
     30          1           0       -6.401471   -0.782531   -1.197815
     31          1           0       -7.035719   -0.451130    0.443149
     32          1           0       -6.097222   -1.935757    0.101502
 ---------------------------------------------------------------------

 SCF Done:  E(RB3LYP) =  -842.816992935     A.U. after    1 cycles

 Excitation energies and oscillator strengths:

 Excited State   1:      Singlet-A      4.1019 eV  302.26 nm  f=0.0576  <S**2>=0.000
      64 -> 66         0.15620
      64 -> 67         0.14974
      65 -> 66         0.64204
      65 -> 67        -0.16621
 This state for optimization and/or second-order correction.
 Total Energy, E(TD-HF/TD-KS) =  -842.666251327
 Copying the excited state density for this state as the 1-particle RhoCI density.

 Excited State   2:      Singlet-A      4.4729 eV  277.19 nm  f=0.0176  <S**2>=0.000
      64 -> 66         0.46708
      65 -> 66        -0.24077
      65 -> 67        -0.46110

 Excited State   3:      Singlet-A      5.1267 eV  241.84 nm  f=0.2368  <S**2>=0.000
      64 -> 66        -0.28063
      65 -> 67        -0.37996
      65 -> 68         0.50601

 Excited State   4:      Singlet-A      5.5359 eV  223.97 nm  f=0.1281  <S**2>=0.000
      62 -> 66         0.10071
      62 -> 67         0.18857
      62 -> 68        -0.20160
      63 -> 66         0.41351
      63 -> 67         0.21879
      63 -> 68        -0.16669
      64 -> 66        -0.14244
      64 -> 67        -0.21391
      64 -> 68         0.12404
      65 -> 67        -0.14158
      65 -> 68        -0.10207
      65 -> 69         0.21820

 Excited State   5:      Singlet-A      5.6006 eV  221.38 nm  f=0.1080  <S**2>=0.000
      62 -> 66        -0.20877
      63 -> 66         0.35567
      64 -> 67         0.38185
      64 -> 68        -0.13927
      65 -> 67         0.12022
      65 -> 68         0.10368
      65 -> 69         0.31937

 Excited State   6:      Singlet-A      5.7299 eV  216.38 nm  f=0.2012  <S**2>=0.000
      62 -> 66         0.30852
      62 -> 67         0.19838
      62 -> 68        -0.13425
      63 -> 67         0.15693
      63 -> 68        -0.17707
      64 -> 66         0.15863
      64 -> 67         0.26199
      65 -> 67         0.10875
      65 -> 68         0.27461
      65 -> 69        -0.27626

 Excited State   7:      Singlet-A      5.8296 eV  212.68 nm  f=0.6861  <S**2>=0.000
      61 -> 66         0.12424
      62 -> 66        -0.17083
      63 -> 66        -0.18860
      63 -> 67         0.16563
      64 -> 66         0.27876
      64 -> 67        -0.21220
      64 -> 68         0.13559
      65 -> 67         0.19416
      65 -> 68         0.32590
      65 -> 69         0.25831

 Excited State   8:      Singlet-A      5.9655 eV  207.83 nm  f=0.2187  <S**2>=0.000
      61 -> 66         0.54448
      62 -> 66        -0.17475
      62 -> 67         0.11223
      63 -> 66        -0.16124
      63 -> 68        -0.11203
      64 -> 66        -0.14927
      64 -> 67         0.19315
      65 -> 67        -0.11220
      65 -> 68        -0.12848

 Excited State   9:      Singlet-A      5.9784 eV  207.39 nm  f=0.0401  <S**2>=0.000
      61 -> 66         0.39597
      62 -> 66         0.39117
      62 -> 67        -0.21242
      62 -> 68         0.15179
      63 -> 66         0.15839
      63 -> 67        -0.12150
      63 -> 68         0.17093
      64 -> 67        -0.14248

 Excited State  10:      Singlet-A      6.0446 eV  205.12 nm  f=0.1142  <S**2>=0.000
      60 -> 66         0.15302
      61 -> 66        -0.13617
      62 -> 66         0.27537
      62 -> 67        -0.10269
      63 -> 66        -0.24804
      63 -> 67         0.22582
      64 -> 67         0.19929
      64 -> 68        -0.12320
      64 -> 69         0.23353
      65 -> 69         0.31375

 The electronic state is 1-A.
 Alpha  occ. eigenvalues --  -19.19876 -19.17757 -19.16545 -19.14033 -10.32309
 Alpha  occ. eigenvalues --  -10.29066 -10.24882 -10.24769 -10.23422 -10.19966
 Alpha  occ. eigenvalues --  -10.19885 -10.19783 -10.19367 -10.19293 -10.19185
 Alpha  occ. eigenvalues --  -10.19116 -10.19017 -10.18438  -1.10597  -1.08416
 Alpha  occ. eigenvalues --   -1.02798  -1.02370  -0.87237  -0.82196  -0.77727
 Alpha  occ. eigenvalues --   -0.76601  -0.73908  -0.73358  -0.71247  -0.66040
 Alpha  occ. eigenvalues --   -0.63232  -0.62389  -0.60063  -0.57183  -0.53949
 Alpha  occ. eigenvalues --   -0.52116  -0.50492  -0.49958  -0.48756  -0.48329
 Alpha  occ. eigenvalues --   -0.47604  -0.46845  -0.45803  -0.44566  -0.43258
 Alpha  occ. eigenvalues --   -0.42862  -0.42023  -0.41638  -0.41356  -0.40314
 Alpha  occ. eigenvalues --   -0.39615  -0.38535  -0.38032  -0.36651  -0.36383
 Alpha  occ. eigenvalues --   -0.35264  -0.33806  -0.32183  -0.31406  -0.29856
 Alpha  occ. eigenvalues --   -0.28006  -0.27885  -0.27166  -0.23287  -0.20471
 Alpha virt. eigenvalues --   -0.03739  -0.00765   0.01350   0.03396   0.09229
 Alpha virt. eigenvalues --    0.09876   0.10808   0.10953   0.11795   0.12194
 Alpha virt. eigenvalues --    0.13429   0.13802   0.14775   0.15182   0.15587

 Mulliken atomic charges:
              1
     1  C   -0.216153
     2  O   -0.442703
     3  C    0.159690
     4  O   -0.496167
     5  C    0.372229
     6  C   -0.212225
     7  C   -0.217508
     8  C    0.149829
     9  C    0.155560
    10  C   -0.260799
    11  C   -0.226951
    12  C   -0.161924
    13  C    0.371794
    14  C   -0.263856
    15  O   -0.509365
    16  C    0.591307
    17  O   -0.435995
    18  C   -0.526040
    19  H    0.169461
    20  H    0.138782
    21  H    0.163694
    22  H    0.149453
    23  H    0.168315
    24  H    0.154678
    25  H    0.129625
    26  H    0.142773
    27  H    0.126211
    28  H    0.135753
    29  H    0.133633
    30  H    0.185641
    31  H    0.185854
    32  H    0.185406
 Sum of Mulliken atomic charges =  -0.00000

 Dipole moment (field-independent basis, Debye):
    X=              2.2763    Y=             -0.9404    Z=             -1.0462  Tot=              2.6759
 Quadrupole moment (field-independent basis, Debye-Ang):
   XX=            -76.8178   YY=           -100.1562   ZZ=           -105.5103
   XY=             11.0724   XZ=              5.4327   YZ=             -2.1709

 Summary of Natural Population Analysis:

                                       Natural Population
                Natural  -----------------------------------------------
    Atom  No    Charge         Core      Valence    Rydberg      Total
 -----------------------------------------------------------------------
      C    1   -0.32089      1.99945     4.30691    0.01453     6.32089
      O    2   -0.57557      1.99980     6.56381    0.01196     8.57557
      C    3    0.19876      1.99941     3.77225    0.02958     5.80124
      O    4   -0.50565      1.99974     6.49441    0.01150     8.50565
      C    5    0.36468      1.99877     3.61383    0.02271     5.63532
      C    6   -0.37041      1.99904     4.35551    0.01586     6.37041
      C    7   -0.20764      1.99907     4.19270    0.01586     6.20764
      C    8   -0.04332      1.99903     4.02923    0.01506     6.04332
      C    9   -0.05400      1.99903     4.03991    0.01505     6.05400
      C   10   -0.24149      1.99899     4.22656    0.01594     6.24149
      C   11   -0.22519      1.99907     4.21047    0.01565     6.22519
      C   12   -0.32027      1.99902     4.30553    0.01573     6.32027
      C   13    0.35443      1.99870     3.62457    0.02229     5.64557
      C   14   -0.27501      1.99896     4.26028    0.01577     6.27501
      O   15   -0.53623      1.99970     6.52514    0.01139     8.53623
      C   16    0.82443      1.99945     3.13288    0.04324     5.17557
      O   17   -0.56584      1.99978     6.54601    0.02006     8.56584
      C   18   -0.77540      1.99933     4.76938    0.00669     6.77540
      H   19    0.22576      0.00000     0.77368    0.00056     0.77424
      H   20    0.19389      0.00000     0.80437    0.00173     0.80611
      H   21    0.20915      0.00000     0.78908    0.00176     0.79085
      H   22    0.20145      0.00000     0.79650    0.00205     0.79855
      H   23    0.21750      0.00000     0.78023    0.00226     0.78250
      H   24    0.25125      0.00000     0.74701    0.00174     0.74875
      H   25    0.23332      0.00000     0.76560    0.00108     0.76668
      H   26    0.24392      0.00000     0.75451    0.00157     0.75608
      H   27    0.23197      0.00000     0.76696    0.00107     0.76803
      H   28    0.24820      0.00000     0.75092    0.00088     0.75180
      H   29    0.24166      0.00000     0.75689    0.00145     0.75834
      H   30    0.25918      0.00000     0.73997    0.00085     0.74082
      H   31    0.25838      0.00000     0.74071    0.00092     0.74162
      H   32    0.25898      0.00000     0.74016    0.00086     0.74102
 =======================================================================
   * Total *    0.00000     35.98635    93.67597    0.33769   130.00000

 Normal termination of Gaussian 09 at Wed Sep 29 12:28:56 2021.
