 Gaussian 09, Revision A.02,

 -----------------------------------
 #p opt b3lyp/6-31G* scf=(xqc,tight)
 -----------------------------------

 -----------------------------------
 COCc1ccc2c(c1)ccc(c2)OC(=O)C_conf_0
 -----------------------------------
 Symbolic Z-matrix:
 Charge =  0 Multiplicity = 1

 SCF Done:  E(RB3LYP) =  -767.591475702     A.U. after   15 cycles
 SCF Done:  E(RB3LYP) =  -767.597678124     A.U. after   13 cycles
 SCF Done:  E(RB3LYP) =  -767.598127471     A.U. after   12 cycles
 SCF Done:  E(RB3LYP) =  -767.598183087     A.U. after   12 cycles
 SCF Done:  E(RB3LYP) =  -767.598214728     A.U. after   11 cycles
 SCF Done:  E(RB3LYP) =  -767.598327077     A.U. after   11 cycles
 SCF Done:  E(RB3LYP) =  -767.598380115     A.U. after   11 cycles
 SCF Done:  E(RB3LYP) =  -767.598411922     A.U. after   11 cycles
 SCF Done:  E(RB3LYP) =  -767.598422021     A.U. after   10 cycles
 SCF Done:  E(RB3LYP) =  -767.598432895     A.U. after   10 cycles
 SCF Done:  E(RB3LYP) =  -767.599071472     A.U. after    8 cycles
 SCF Done:  E(RB3LYP) =  -767.599071595     A.U. after    7 cycles
 SCF Done:  E(RB3LYP) =  -767.599072159     A.U. after    9 cycles
 SCF Done:  E(RB3LYP) =  -767.599072822     A.U. after    9 cycles
 SCF Done:  E(RB3LYP) =  -767.599073436     A.U. after    9 cycles
 SCF Done:  E(RB3LYP) =  -767.599073896     A.U. after    9 cycles
 SCF Done:  E(RB3LYP) =  -767.599073971     A.U. after    8 cycles
 SCF Done:  E(RB3LYP) =  -767.599073969     A.U. after    7 cycles
 Optimization completed.
    -- Stationary point found.
 Normal termination of Gaussian 09 at Wed Sep 29 08:49:33 2021.

 ----------------------------------------------------------------------
 #p freq b3lyp/6-31G* volume NMR pop=NPA density=current Geom=AllCheck
 Guess=Read
 ----------------------------------------------------------------------

 COCc1ccc2c(c1)ccc(c2)OC(=O)C_conf_0
 -----------------------------------
 Redundant internal coordinates taken from checkpoint file:
 C14H14O3_3ade_conf_0.chk
 Charge =  0 Multiplicity = 1

 SCF Done:  E(RB3LYP) =  -767.599073969     A.U. after    1 cycles

  1  C    Isotropic =   132.2666   Anisotropy =    80.2183

  2  O    Isotropic =   304.1490   Anisotropy =    25.3081

  3  C    Isotropic =   114.8744   Anisotropy =    60.1415

  4  C    Isotropic =    59.3349   Anisotropy =   167.6482

  5  C    Isotropic =    68.9821   Anisotropy =   165.1265

  6  C    Isotropic =    66.6438   Anisotropy =   144.9666

  7  C    Isotropic =    62.5856   Anisotropy =   193.1842

  8  C    Isotropic =    66.5641   Anisotropy =   192.6493

  9  C    Isotropic =    70.1573   Anisotropy =   127.3563

 10  C    Isotropic =    67.3793   Anisotropy =   143.1156

 11  C    Isotropic =    77.0934   Anisotropy =   134.5988

 12  C    Isotropic =    44.8114   Anisotropy =   104.7724

 13  C    Isotropic =    78.2293   Anisotropy =   131.2336

 14  O    Isotropic =   108.4094   Anisotropy =   175.9801

 15  C    Isotropic =    29.7211   Anisotropy =    74.2044

 16  O    Isotropic =   -91.8150   Anisotropy =   557.3680

 17  C    Isotropic =   167.6945   Anisotropy =    41.7224

 18  H    Isotropic =    28.4368   Anisotropy =     9.1534

 19  H    Isotropic =    28.8868   Anisotropy =     8.6840

 20  H    Isotropic =    28.8674   Anisotropy =     8.1840

 21  H    Isotropic =    27.5765   Anisotropy =     2.6973

 22  H    Isotropic =    27.9549   Anisotropy =     6.9586

 23  H    Isotropic =    24.4922   Anisotropy =     9.1574

 24  H    Isotropic =    24.5467   Anisotropy =     7.7472

 25  H    Isotropic =    24.9388   Anisotropy =     8.6613

 26  H    Isotropic =    24.6943   Anisotropy =     7.1396

 27  H    Isotropic =    25.2746   Anisotropy =     6.4155

 28  H    Isotropic =    23.3343   Anisotropy =    11.4014

 29  H    Isotropic =    29.9297   Anisotropy =     5.7948

 30  H    Isotropic =    29.9173   Anisotropy =     5.7464

 31  H    Isotropic =    30.5132   Anisotropy =     7.5108

  Exact polarizability: 267.043  -9.364 155.182  -6.352   3.016  71.582
 Approx polarizability: 356.785 -22.485 282.160 -12.762   7.159 109.422

                     1                      2                      3
                     A                      A                      A
 Frequencies --    14.2870                31.5783                49.3784
 Red. masses --     5.8490                 3.8747                 3.0180
 Frc consts  --     0.0007                 0.0023                 0.0043
 IR Inten    --     1.3607                 0.7154                 3.0033

                     4                      5                      6
                     A                      A                      A
 Frequencies --    77.2560                81.8652                90.4856
 Red. masses --     1.9735                 1.8259                 2.0513
 Frc consts  --     0.0069                 0.0072                 0.0099
 IR Inten    --     0.6990                 3.9696                 0.7262

                     7                      8                      9
                     A                      A                      A
 Frequencies --   121.9961               158.9900               186.3034
 Red. masses --     4.4417                 5.0804                 3.7231
 Frc consts  --     0.0389                 0.0757                 0.0761
 IR Inten    --     1.7698                 3.4118                 1.1762

                    10                     11                     12
                     A                      A                      A
 Frequencies --   226.6181               245.3590               254.7620
 Red. masses --     2.3619                 1.6695                 4.0520
 Frc consts  --     0.0715                 0.0592                 0.1549
 IR Inten    --     1.1950                 2.8075                 0.6995

                    13                     14                     15
                     A                      A                      A
 Frequencies --   280.0087               349.0734               354.5062
 Red. masses --     4.5498                 3.3981                 4.4912
 Frc consts  --     0.2102                 0.2440                 0.3326
 IR Inten    --     1.5482                 0.6314                 3.5861

                    16                     17                     18
                     A                      A                      A
 Frequencies --   393.3102               410.7119               450.0272
 Red. masses --     4.8902                 3.4564                 3.8686
 Frc consts  --     0.4457                 0.3435                 0.4616
 IR Inten    --     2.6982                 0.3444                 3.9825

                    19                     20                     21
                     A                      A                      A
 Frequencies --   491.6562               509.4575               533.9831
 Red. masses --     2.7365                 4.7952                 6.2449
 Frc consts  --     0.3897                 0.7333                 1.0491
 IR Inten    --     7.0214                 2.5951                 1.4220

                    22                     23                     24
                     A                      A                      A
 Frequencies --   562.4818               590.5705               625.7247
 Red. masses --     3.3171                 2.9781                 4.4603
 Frc consts  --     0.6183                 0.6120                 1.0289
 IR Inten    --     2.6095                 5.1604                 1.2965

                    25                     26                     27
                     A                      A                      A
 Frequencies --   666.9052               670.8042               726.7398
 Red. masses --     4.1468                 5.8569                 5.2960
 Frc consts  --     1.0866                 1.5528                 1.6480
 IR Inten    --     1.1690                13.0887                 2.1105

                    28                     29                     30
                     A                      A                      A
 Frequencies --   770.1942               780.3201               826.4026
 Red. masses --     3.5287                 4.7207                 1.5787
 Frc consts  --     1.2333                 1.6936                 0.6352
 IR Inten    --     0.6670                 1.3795                 1.9450

                    31                     32                     33
                     A                      A                      A
 Frequencies --   833.4248               855.3481               905.4953
 Red. masses --     1.3885                 3.4958                 1.4826
 Frc consts  --     0.5683                 1.5069                 0.7162
 IR Inten    --    31.0257                 2.9369                18.3766

                    34                     35                     36
                     A                      A                      A
 Frequencies --   921.1378               923.2149               953.2658
 Red. masses --     4.4604                 1.5546                 4.4660
 Frc consts  --     2.2298                 0.7807                 2.3911
 IR Inten    --    10.4809                29.4908                 8.3494

                    37                     38                     39
                     A                      A                      A
 Frequencies --   963.4510               977.1822               988.1716
 Red. masses --     1.2879                 1.3169                 3.2059
 Frc consts  --     0.7044                 0.7409                 1.8445
 IR Inten    --     0.1813                 0.3077                 5.4154

                    40                     41                     42
                     A                      A                      A
 Frequencies --  1004.0572              1040.8542              1043.9140
 Red. masses --     3.9361                 1.7688                 1.7414
 Frc consts  --     2.3379                 1.1290                 1.1181
 IR Inten    --    20.5498                97.1247                 6.4619

                    43                     44                     45
                     A                      A                      A
 Frequencies --  1072.6501              1148.3507              1159.4353
 Red. masses --     1.7190                 1.8569                 3.5249
 Frc consts  --     1.1653                 1.4428                 2.7918
 IR Inten    --     7.0114                88.1978               117.3422

                    46                     47                     48
                     A                      A                      A
 Frequencies --  1177.4484              1188.2310              1192.4977
 Red. masses --     1.6278                 1.3114                 1.2789
 Frc consts  --     1.3296                 1.0909                 1.0715
 IR Inten    --    71.5946                53.9502                 7.7256

                    49                     50                     51
                     A                      A                      A
 Frequencies --  1204.4433              1230.4187              1252.9073
 Red. masses --     1.6116                 1.6708                 3.8645
 Frc consts  --     1.3774                 1.4903                 3.5742
 IR Inten    --    49.3756                48.9960               345.9015

                    52                     53                     54
                     A                      A                      A
 Frequencies --  1259.9300              1272.8420              1292.2497
 Red. masses --     4.1386                 1.2177                 1.6536
 Frc consts  --     3.8708                 1.1623                 1.6269
 IR Inten    --   356.2489                32.5959                89.7441

                    55                     56                     57
                     A                      A                      A
 Frequencies --  1299.7205              1379.7399              1410.3584
 Red. masses --     1.9131                 1.8238                 2.2388
 Frc consts  --     1.9041                 2.0456                 2.6238
 IR Inten    --    42.8941                10.6917                82.1060

                    58                     59                     60
                     A                      A                      A
 Frequencies --  1422.7687              1427.1497              1438.1878
 Red. masses --     1.3431                 4.5383                 2.7112
 Frc consts  --     1.6018                 5.4461                 3.3040
 IR Inten    --    41.9584                82.5733                 3.0312

                    61                     62                     63
                     A                      A                      A
 Frequencies --  1464.3812              1499.6543              1502.1648
 Red. masses --     2.5264                 1.0495                 1.1803
 Frc consts  --     3.1920                 1.3906                 1.5692
 IR Inten    --     8.4253                13.0121                 3.1670

                    64                     65                     66
                     A                      A                      A
 Frequencies --  1504.4432              1514.7952              1527.0126
 Red. masses --     1.0463                 1.0505                 2.5167
 Frc consts  --     1.3953                 1.4202                 3.4576
 IR Inten    --     8.1607                 5.1208                38.7045

                    67                     68                     69
                     A                      A                      A
 Frequencies --  1530.2124              1550.1737              1557.8541
 Red. masses --     1.0695                 1.0867                 3.6079
 Frc consts  --     1.4755                 1.5386                 5.1589
 IR Inten    --    11.6517                 1.1305                25.4563

                    70                     71                     72
                     A                      A                      A
 Frequencies --  1630.1132              1662.7537              1689.6278
 Red. masses --     7.4139                 5.8262                 6.1892
 Frc consts  --    11.6073                 9.4905                10.4104
 IR Inten    --     7.8885                59.0957                 5.6054

                    73                     74                     75
                     A                      A                      A
 Frequencies --  1836.1221              2951.9442              2987.0708
 Red. masses --    11.3055                 1.0644                 1.0447
 Frc consts  --    22.4566                 5.4646                 5.4920
 IR Inten    --   189.2368                46.7142                92.5530

                    76                     77                     78
                     A                      A                      A
 Frequencies --  2997.6826              3030.5992              3072.1926
 Red. masses --     1.0875                 1.1049                 1.0371
 Frc consts  --     5.7576                 5.9792                 5.7671
 IR Inten    --    65.7382                64.2443                 1.8892

                    79                     80                     81
                     A                      A                      A
 Frequencies --  3134.7223              3138.2784              3172.5441
 Red. masses --     1.1007                 1.0963                 1.0899
 Frc consts  --     6.3727                 6.3618                 6.4630
 IR Inten    --     5.5022                33.8126                15.0849

                    82                     83                     84
                     A                      A                      A
 Frequencies --  3184.5803              3186.8469              3187.8620
 Red. masses --     1.1033                 1.0886                 1.0886
 Frc consts  --     6.5925                 6.5140                 6.5178
 IR Inten    --     8.0660                13.0256                 7.0675

                    85                     86                     87
                     A                      A                      A
 Frequencies --  3215.8330              3219.0434              3280.3163
 Red. masses --     1.0933                 1.0938                 1.0913
 Frc consts  --     6.6618                 6.6780                 6.9187
 IR Inten    --    11.9589                 8.5026                 2.6989

 - Thermochemistry -
 -------------------
 Temperature   298.150 Kelvin.  Pressure   1.00000 Atm.
 Atom     1 has atomic number  6 and mass  12.00000

 Molecular mass:   230.09429 amu.
 Principal axes and moments of inertia in atomic units:
                           1         2         3
     Eigenvalues --  1058.78412********************
           X            1.00000  -0.00190  -0.00176
           Y            0.00190   1.00000   0.00110
           Z            0.00175  -0.00110   1.00000
 This molecule is an asymmetric top.
 Rotational symmetry number  1.
 Warning -- assumption of classical behavior for rotation
           may cause significant error
 Rotational temperatures (Kelvin)      0.08180     0.00840     0.00769
 Rotational constants (GHZ):           1.70454     0.17499     0.16033
 Zero-point vibrational energy     657942.7 (Joules/Mol)
                                  157.25207 (Kcal/Mol)
 Warning -- explicit consideration of  23 degrees of freedom as
           vibrations may cause significant error
 Vibrational temperatures:     20.56    45.43    71.04   111.15   117.79
          (Kelvin)            130.19   175.52   228.75   268.05   326.05
                              353.02   366.55   402.87   502.24   510.05
                              565.88   590.92   647.49   707.38   732.99
                              768.28   809.28   849.70   900.28   959.53
                              965.14  1045.62  1108.14  1122.71  1189.01
                             1199.11  1230.65  1302.80  1325.31  1328.30
                             1371.54  1386.19  1405.95  1421.76  1444.61
                             1497.56  1501.96  1543.30  1652.22  1668.17
                             1694.08  1709.60  1715.74  1732.92  1770.30
                             1802.65  1812.76  1831.33  1859.26  1870.01
                             1985.14  2029.19  2047.04  2053.35  2069.23
                             2106.92  2157.67  2161.28  2164.56  2179.45
                             2197.03  2201.63  2230.35  2241.40  2345.37
                             2392.33  2430.99  2641.77  4247.18  4297.72
                             4312.99  4360.35  4420.19  4510.16  4515.28
                             4564.58  4581.89  4585.16  4586.62  4626.86
                             4631.48  4719.64

 Zero-point correction=                           0.250597 (Hartree/Particle)
 Thermal correction to Energy=                    0.266381
 Thermal correction to Enthalpy=                  0.267325
 Thermal correction to Gibbs Free Energy=         0.204815
 Sum of electronic and zero-point Energies=           -767.348477
 Sum of electronic and thermal Energies=              -767.332693
 Sum of electronic and thermal Enthalpies=            -767.331749
 Sum of electronic and thermal Free Energies=         -767.394259

                     E (Thermal)             CV                S
                      KCal/Mol        Cal/Mol-Kelvin    Cal/Mol-Kelvin
 Total                  167.157             58.493            131.564
 Electronic               0.000              0.000              0.000
 Translational            0.889              2.981             42.202
 Rotational               0.889              2.981             33.174
 Vibrational            165.379             52.531             56.187
 Vibration     1          0.593              1.986              7.302
 Vibration     2          0.594              1.983              5.728
 Vibration     3          0.595              1.978              4.842
 Vibration     4          0.599              1.964              3.959
 Vibration     5          0.600              1.962              3.846
 Vibration     6          0.602              1.956              3.650
 Vibration     7          0.609              1.931              3.069
 Vibration     8          0.621              1.893              2.562
 Vibration     9          0.632              1.859              2.264
 Vibration    10          0.650              1.800              1.906
 Vibration    11          0.660              1.770              1.764
 Vibration    12          0.665              1.755              1.697
 Vibration    13          0.680              1.711              1.534
 Vibration    14          0.726              1.577              1.170
 Vibration    15          0.730              1.566              1.146
 Vibration    16          0.761              1.484              0.988
 Vibration    17          0.775              1.447              0.924
 Vibration    18          0.809              1.361              0.796
 Vibration    19          0.847              1.269              0.679
 Vibration    20          0.865              1.229              0.635
 Vibration    21          0.889              1.175              0.578
 Vibration    22          0.918              1.112              0.519
 Vibration    23          0.948              1.052              0.466

 Optimization completed.
    -- Stationary point found.
 Normal termination of Gaussian 09 at Wed Sep 29 10:04:57 2021.
 Gaussian 09:  AM64L-G09RevA.02 11-Jun-2009

 ----------------------------------------------------------------------
 #p TD(NStates=10, Root=1) b3lyp/6-31G* volume pop=NPA density=current
 Geom=AllCheck Guess=Read
 ----------------------------------------------------------------------

 COCc1ccc2c(c1)ccc(c2)OC(=O)C_conf_0
 -----------------------------------
 Redundant internal coordinates taken from checkpoint file:
 C14H14O3_3ade_conf_0.chk
 Charge =  0 Multiplicity = 1

                         Standard orientation:
 ---------------------------------------------------------------------
 Center     Atomic      Atomic             Coordinates (Angstroms)
 Number     Number       Type             X           Y           Z
 ---------------------------------------------------------------------
      1          6           0        6.295957   -0.468798    0.373178
      2          8           0        4.893607   -0.554158    0.508236
      3          6           0        4.209578    0.333683   -0.360129
      4          6           0        2.721502    0.118484   -0.234858
      5          6           0        2.197025   -1.202546   -0.248332
      6          6           0        0.842180   -1.424248   -0.180756
      7          6           0       -0.074765   -0.340190   -0.101012
      8          6           0        0.447089    0.991537   -0.083835
      9          6           0        1.852208    1.184666   -0.146779
     10          6           0       -0.468451    2.074650    0.001909
     11          6           0       -1.821684    1.850807    0.062999
     12          6           0       -2.325214    0.525612    0.042491
     13          6           0       -1.478318   -0.558452   -0.036113
     14          8           0       -3.718096    0.486570    0.118834
     15          6           0       -4.481742   -0.642505    0.057696
     16          8           0       -4.061641   -1.768065   -0.067678
     17          6           0       -5.939374   -0.262285    0.173081
     18          1           0        6.730586   -1.192639    1.067376
     19          1           0        6.670524    0.536749    0.624886
     20          1           0        6.623570   -0.711869   -0.651073
     21          1           0        4.532668    0.150542   -1.401904
     22          1           0        4.465260    1.381043   -0.127204
     23          1           0        2.888980   -2.037604   -0.296340
     24          1           0        0.451464   -2.438892   -0.187808
     25          1           0        2.238285    2.202198   -0.123284
     26          1           0       -0.084272    3.091637    0.018220
     27          1           0       -2.529984    2.670550    0.128041
     28          1           0       -1.866791   -1.566010   -0.051972
     29          1           0       -6.214351    0.431248   -0.628244
     30          1           0       -6.121473    0.248453    1.124441
     31          1           0       -6.551369   -1.162665    0.112497
 ---------------------------------------------------------------------

 SCF Done:  E(RB3LYP) =  -767.599073969     A.U. after    1 cycles

 Excitation energies and oscillator strengths:

 Excited State   1:      Singlet-A      4.3063 eV  287.91 nm  f=0.0329  <S**2>=0.000
      60 -> 62         0.31279
      60 -> 63         0.13259
      61 -> 62         0.52795
      61 -> 63        -0.30376
 This state for optimization and/or second-order correction.
 Total Energy, E(TD-HF/TD-KS) =  -767.440819378
 Copying the excited state density for this state as the 1-particle RhoCI density.

 Excited State   2:      Singlet-A      4.3934 eV  282.20 nm  f=0.0217  <S**2>=0.000
      60 -> 62        -0.38378
      61 -> 62         0.43332
      61 -> 63         0.38877

 Excited State   3:      Singlet-A      5.2327 eV  236.94 nm  f=0.5200  <S**2>=0.000
      59 -> 62         0.20872
      60 -> 62         0.35601
      61 -> 63         0.40926
      61 -> 64         0.38700

 Excited State   4:      Singlet-A      5.3612 eV  231.26 nm  f=0.0254  <S**2>=0.000
      58 -> 62        -0.21210
      58 -> 63        -0.13261
      58 -> 64        -0.12523
      59 -> 62         0.60623
      61 -> 64        -0.18883

 Excited State   5:      Singlet-A      5.3771 eV  230.58 nm  f=0.0101  <S**2>=0.000
      58 -> 62         0.49044
      58 -> 63         0.30755
      58 -> 64         0.28075
      59 -> 62         0.26280

 Excited State   6:      Singlet-A      5.5500 eV  223.40 nm  f=0.3096  <S**2>=0.000
      57 -> 62         0.16552
      60 -> 62         0.20893
      60 -> 63         0.45668
      60 -> 64         0.17062
      61 -> 63         0.15092
      61 -> 64        -0.37855

 Excited State   7:      Singlet-A      5.7647 eV  215.07 nm  f=0.0783  <S**2>=0.000
      57 -> 62         0.43530
      60 -> 63        -0.31858
      61 -> 64        -0.11148
      61 -> 65        -0.40342

 Excited State   8:      Singlet-A      5.9713 eV  207.63 nm  f=0.1415  <S**2>=0.000
      59 -> 63         0.55839
      60 -> 62        -0.12089
      60 -> 63         0.14747
      60 -> 64        -0.23580
      61 -> 64         0.15189
      61 -> 65        -0.17874

 Excited State   9:      Singlet-A      6.0083 eV  206.36 nm  f=0.2882  <S**2>=0.000
      56 -> 62        -0.15040
      57 -> 63        -0.19380
      59 -> 63         0.37639
      60 -> 62         0.15027
      60 -> 63        -0.32630
      60 -> 64         0.15524
      60 -> 65         0.15590
      61 -> 64        -0.19836
      61 -> 65         0.19810

 Excited State  10:      Singlet-A      6.0204 eV  205.94 nm  f=0.0023  <S**2>=0.000
      58 -> 62        -0.44522
      58 -> 63         0.46686
      58 -> 64         0.24801

 The electronic state is 1-A.
 Alpha  occ. eigenvalues --  -19.20705 -19.14974 -19.14527 -10.32816 -10.25536
 Alpha  occ. eigenvalues --  -10.23640 -10.22836 -10.20100 -10.19791 -10.19633
 Alpha  occ. eigenvalues --  -10.19496 -10.19462 -10.19387 -10.18937 -10.18720
 Alpha  occ. eigenvalues --  -10.18661 -10.18555  -1.11133  -1.03344  -1.03015
 Alpha  occ. eigenvalues --   -0.87320  -0.82807  -0.77666  -0.77520  -0.74403
 Alpha  occ. eigenvalues --   -0.72618  -0.70242  -0.65968  -0.63635  -0.61374
 Alpha  occ. eigenvalues --   -0.59704  -0.56460  -0.51371  -0.51082  -0.49749
 Alpha  occ. eigenvalues --   -0.48326  -0.47909  -0.47696  -0.47021  -0.46044
 Alpha  occ. eigenvalues --   -0.44393  -0.44254  -0.42021  -0.41775  -0.41418
 Alpha  occ. eigenvalues --   -0.41005  -0.40281  -0.39742  -0.38102  -0.37324
 Alpha  occ. eigenvalues --   -0.36879  -0.35040  -0.34164  -0.33318  -0.31930
 Alpha  occ. eigenvalues --   -0.30686  -0.28101  -0.27517  -0.25736  -0.23324
 Alpha  occ. eigenvalues --   -0.21179
 Alpha virt. eigenvalues --   -0.03740  -0.01472   0.01202   0.03612   0.08539
 Alpha virt. eigenvalues --    0.09708   0.10584   0.10918   0.12156   0.12441
 Alpha virt. eigenvalues --    0.14520   0.14647   0.15561   0.16133   0.16444

 Mulliken atomic charges:
              1
     1  C   -0.192491
     2  O   -0.450983
     3  C   -0.092791
     4  C    0.166931
     5  C   -0.183973
     6  C   -0.200625
     7  C    0.132123
     8  C    0.165480
     9  C   -0.274673
    10  C   -0.213065
    11  C   -0.198313
    12  C    0.347913
    13  C   -0.248438
    14  O   -0.489312
    15  C    0.592488
    16  O   -0.438675
    17  C   -0.525183
    18  H    0.163807
    19  H    0.132028
    20  H    0.131326
    21  H    0.143647
    22  H    0.132092
    23  H    0.133911
    24  H    0.132877
    25  H    0.126014
    26  H    0.126612
    27  H    0.131290
    28  H    0.188768
    29  H    0.186690
    30  H    0.187251
    31  H    0.187273
 Sum of Mulliken atomic charges =  -0.00000

 Dipole moment (field-independent basis, Debye):
    X=              0.4246    Y=              1.9930    Z=             -0.5804  Tot=              2.1188
 Quadrupole moment (field-independent basis, Debye-Ang):
   XX=            -68.0727   YY=            -97.8159   ZZ=           -100.9904
   XY=             -2.4099   XZ=             -4.5624   YZ=              0.0664

 Summary of Natural Population Analysis:

                                       Natural Population
                Natural  -----------------------------------------------
    Atom  No    Charge         Core      Valence    Rydberg      Total
 -----------------------------------------------------------------------
      C    1   -0.31012      1.99946     4.29619    0.01446     6.31012
      O    2   -0.56150      1.99979     6.54910    0.01260     8.56150
      C    3   -0.11406      1.99920     4.09714    0.01772     6.11406
      C    4    0.01540      1.99903     3.96914    0.01643     5.98460
      C    5   -0.27583      1.99906     4.26078    0.01599     6.27583
      C    6   -0.20613      1.99907     4.19171    0.01535     6.20613
      C    7   -0.03819      1.99903     4.02392    0.01523     6.03819
      C    8   -0.04175      1.99903     4.02741    0.01530     6.04175
      C    9   -0.21796      1.99899     4.20484    0.01412     6.21796
      C   10   -0.22465      1.99907     4.21003    0.01554     6.22465
      C   11   -0.31935      1.99905     4.30316    0.01714     6.31935
      C   12    0.35923      1.99873     3.62038    0.02166     5.64077
      C   13   -0.27663      1.99898     4.26251    0.01514     6.27663
      O   14   -0.51434      1.99969     6.50324    0.01141     8.51434
      C   15    0.82368      1.99945     3.13430    0.04256     5.17632
      O   16   -0.57619      1.99977     6.55630    0.02012     8.57619
      C   17   -0.77442      1.99934     4.76845    0.00663     6.77442
      H   18    0.22309      0.00000     0.77630    0.00061     0.77691
      H   19    0.18944      0.00000     0.80852    0.00204     0.81056
      H   20    0.18860      0.00000     0.80937    0.00203     0.81140
      H   21    0.21713      0.00000     0.78022    0.00265     0.78287
      H   22    0.20478      0.00000     0.79267    0.00255     0.79522
      H   23    0.24324      0.00000     0.75536    0.00140     0.75676
      H   24    0.23418      0.00000     0.76474    0.00108     0.76582
      H   25    0.22915      0.00000     0.76946    0.00140     0.77085
      H   26    0.23279      0.00000     0.76615    0.00106     0.76721
      H   27    0.24366      0.00000     0.75530    0.00104     0.75634
      H   28    0.26883      0.00000     0.72948    0.00170     0.73117
      H   29    0.25916      0.00000     0.74001    0.00084     0.74084
      H   30    0.25952      0.00000     0.73966    0.00082     0.74048
      H   31    0.25923      0.00000     0.73988    0.00090     0.74077
 =======================================================================
   * Total *   -0.00000     33.98676    87.70570    0.30754   122.00000

 Normal termination of Gaussian 09 at Wed Sep 29 15:35:42 2021.
