 Gaussian 09, Revision A.02,

 -----------------------------------
 #p opt b3lyp/6-31G* scf=(xqc,tight)
 -----------------------------------

 ---------------------------------------
 N#Cc1ccc2c(c1)ccc(c2)OC(=O)N(C)C_conf_0
 ---------------------------------------
 Symbolic Z-matrix:
 Charge =  0 Multiplicity = 1

 SCF Done:  E(RB3LYP) =  -800.674937811     A.U. after   15 cycles
 SCF Done:  E(RB3LYP) =  -800.681284903     A.U. after   12 cycles
 SCF Done:  E(RB3LYP) =  -800.681541793     A.U. after   12 cycles
 SCF Done:  E(RB3LYP) =  -800.681441940     A.U. after   13 cycles
 SCF Done:  E(RB3LYP) =  -800.681772443     A.U. after   12 cycles
 SCF Done:  E(RB3LYP) =  -800.681903013     A.U. after   11 cycles
 SCF Done:  E(RB3LYP) =  -800.681886262     A.U. after   11 cycles
 SCF Done:  E(RB3LYP) =  -800.681955687     A.U. after   11 cycles
 SCF Done:  E(RB3LYP) =  -800.681991561     A.U. after   10 cycles
 SCF Done:  E(RB3LYP) =  -800.682029065     A.U. after   11 cycles
 SCF Done:  E(RB3LYP) =  -800.682113033     A.U. after   11 cycles
 SCF Done:  E(RB3LYP) =  -800.682134394     A.U. after   11 cycles
 SCF Done:  E(RB3LYP) =  -800.682141882     A.U. after   11 cycles
 SCF Done:  E(RB3LYP) =  -800.682142950     A.U. after   10 cycles
 SCF Done:  E(RB3LYP) =  -800.682143229     A.U. after    8 cycles
 SCF Done:  E(RB3LYP) =  -800.682143338     A.U. after    8 cycles
 SCF Done:  E(RB3LYP) =  -800.682143446     A.U. after    7 cycles
 SCF Done:  E(RB3LYP) =  -800.682143467     A.U. after    7 cycles
 Optimization completed.
    -- Stationary point found.
 Normal termination of Gaussian 09 at Thu Sep 30 07:45:17 2021.

 ----------------------------------------------------------------------
 #p freq b3lyp/6-31G* volume NMR pop=NPA density=current Geom=AllCheck
 Guess=Read
 ----------------------------------------------------------------------

 N#Cc1ccc2c(c1)ccc(c2)OC(=O)N(C)C_conf_0
 ---------------------------------------
 Redundant internal coordinates taken from checkpoint file:
 C14H12N2O2_6dd7_conf_0.chk
 Charge =  0 Multiplicity = 1

 SCF Done:  E(RB3LYP) =  -800.682143467     A.U. after    1 cycles

  1  N    Isotropic =   -14.9199   Anisotropy =   389.3063

  2  C    Isotropic =    81.6271   Anisotropy =   309.8951

  3  C    Isotropic =    84.5351   Anisotropy =   129.1143

  4  C    Isotropic =    67.7781   Anisotropy =   160.5586

  5  C    Isotropic =    67.7405   Anisotropy =   146.8067

  6  C    Isotropic =    61.9198   Anisotropy =   196.3482

  7  C    Isotropic =    66.8497   Anisotropy =   194.1937

  8  C    Isotropic =    60.8719   Anisotropy =   153.8462

  9  C    Isotropic =    66.3179   Anisotropy =   144.9942

 10  C    Isotropic =    71.2476   Anisotropy =   153.9382

 11  C    Isotropic =    43.5136   Anisotropy =   112.4418

 12  C    Isotropic =    78.1840   Anisotropy =   119.3352

 13  O    Isotropic =   142.6468   Anisotropy =   133.2144

 14  C    Isotropic =    47.1153   Anisotropy =    79.7126

 15  O    Isotropic =    67.0454   Anisotropy =   382.6155

 16  N    Isotropic =   179.4702   Anisotropy =    81.1717

 17  C    Isotropic =   155.2300   Anisotropy =    51.5638

 18  C    Isotropic =   155.5335   Anisotropy =    49.8458

 19  H    Isotropic =    24.7610   Anisotropy =     6.1663

 20  H    Isotropic =    24.6318   Anisotropy =     7.4984

 21  H    Isotropic =    24.3117   Anisotropy =     8.3473

 22  H    Isotropic =    24.5444   Anisotropy =     7.2361

 23  H    Isotropic =    24.4834   Anisotropy =     9.4486

 24  H    Isotropic =    25.0797   Anisotropy =     8.8954

 25  H    Isotropic =    28.1527   Anisotropy =     6.9769

 26  H    Isotropic =    29.8436   Anisotropy =     9.2658

 27  H    Isotropic =    29.8622   Anisotropy =     9.3380

 28  H    Isotropic =    28.2416   Anisotropy =     5.3168

 29  H    Isotropic =    29.6178   Anisotropy =     9.1734

 30  H    Isotropic =    29.6764   Anisotropy =     8.8729

  Exact polarizability: 305.837   0.261 148.425   9.402  10.062  76.348
 Approx polarizability: 436.718   1.171 263.609  21.069  20.329 119.827

                     1                      2                      3
                     A                      A                      A
 Frequencies --    29.6054                32.6601                54.3689
 Red. masses --     5.3362                 4.0634                 1.8446
 Frc consts  --     0.0028                 0.0026                 0.0032
 IR Inten    --     0.5563                 0.9335                 0.7831

                     4                      5                      6
                     A                      A                      A
 Frequencies --    61.3380                97.4957               114.3477
 Red. masses --     2.5561                 6.0201                 3.4560
 Frc consts  --     0.0057                 0.0337                 0.0266
 IR Inten    --     0.7025                 4.0199                 2.6125

                     7                      8                      9
                     A                      A                      A
 Frequencies --   135.6150               149.8687               179.8136
 Red. masses --     3.3178                 1.5312                 5.6777
 Frc consts  --     0.0360                 0.0203                 0.1082
 IR Inten    --     4.9556                 0.6201                 1.4030

                    10                     11                     12
                     A                      A                      A
 Frequencies --   191.7575               223.3266               231.8130
 Red. masses --     4.0665                 5.6363                 2.0743
 Frc consts  --     0.0881                 0.1656                 0.0657
 IR Inten    --     0.6588                 2.6167                 3.4055

                    13                     14                     15
                     A                      A                      A
 Frequencies --   272.7473               319.9112               372.6397
 Red. masses --     5.8778                 6.4879                 4.3355
 Frc consts  --     0.2576                 0.3912                 0.3547
 IR Inten    --     0.8752                 1.1783                18.8003

                    16                     17                     18
                     A                      A                      A
 Frequencies --   398.6465               411.9607               440.2893
 Red. masses --     3.4448                 3.5682                 6.1551
 Frc consts  --     0.3225                 0.3568                 0.7030
 IR Inten    --     1.3544                 2.6275                 4.1438

                    19                     20                     21
                     A                      A                      A
 Frequencies --   473.4663               483.5762               492.3972
 Red. masses --     4.4319                 4.1573                 3.5263
 Frc consts  --     0.5854                 0.5728                 0.5037
 IR Inten    --     5.9019                 7.2204                 2.8777

                    22                     23                     24
                     A                      A                      A
 Frequencies --   526.5369               574.1580               589.0642
 Red. masses --     6.6600                 6.9706                 3.8698
 Frc consts  --     1.0879                 1.3539                 0.7912
 IR Inten    --     0.9625                 0.9382                 1.2823

                    25                     26                     27
                     A                      A                      A
 Frequencies --   619.4160               641.3858               677.8913
 Red. masses --     6.3975                 5.3433                 4.4909
 Frc consts  --     1.4462                 1.2951                 1.2159
 IR Inten    --     7.2130                 4.5810                 4.9878

                    28                     29                     30
                     A                      A                      A
 Frequencies --   697.9874               736.7102               765.3460
 Red. masses --     6.3563                11.8949                 3.2308
 Frc consts  --     1.8245                 3.8037                 1.1150
 IR Inten    --     3.3791                21.4317                 1.5775

                    31                     32                     33
                     A                      A                      A
 Frequencies --   776.7820               812.3020               827.1900
 Red. masses --     6.2351                 2.1342                 1.3660
 Frc consts  --     2.2166                 0.8297                 0.5507
 IR Inten    --     2.6873                14.8281                17.5066

                    34                     35                     36
                     A                      A                      A
 Frequencies --   843.0999               865.9765               901.2776
 Red. masses --     2.9588                 4.0070                 1.6717
 Frc consts  --     1.2392                 1.7704                 0.8000
 IR Inten    --     0.6898                12.3265                21.5244

                    37                     38                     39
                     A                      A                      A
 Frequencies --   919.0724               955.0147               965.1414
 Red. masses --     1.4777                 4.7897                 1.3286
 Frc consts  --     0.7354                 2.5738                 0.7292
 IR Inten    --    24.6067                22.3530                 2.2147

                    40                     41                     42
                     A                      A                      A
 Frequencies --   973.7420               987.8782              1043.5172
 Red. masses --     1.3036                 3.5197                 2.6642
 Frc consts  --     0.7283                 2.0238                 1.7093
 IR Inten    --     0.0530                 5.3489                20.5001

                    43                     44                     45
                     A                      A                      A
 Frequencies --  1094.7630              1144.4864              1157.2095
 Red. masses --     1.3678                 1.2156                 1.6550
 Frc consts  --     0.9659                 0.9381                 1.3058
 IR Inten    --     9.1444                 0.0449                16.9624

                    46                     47                     48
                     A                      A                      A
 Frequencies --  1178.5612              1189.9484              1191.3868
 Red. masses --     2.0935                 1.5547                 1.3675
 Frc consts  --     1.7133                 1.2971                 1.1436
 IR Inten    --   130.8403               247.8723                20.7049

                    49                     50                     51
                     A                      A                      A
 Frequencies --  1196.0861              1197.4504              1264.5364
 Red. masses --     1.5880                 1.7284                 8.1117
 Frc consts  --     1.3385                 1.4602                 7.6423
 IR Inten    --   352.0723               287.8610               358.3914

                    52                     53                     54
                     A                      A                      A
 Frequencies --  1285.0073              1297.9706              1301.6985
 Red. masses --     1.9693                 1.9007                 3.5797
 Frc consts  --     1.9159                 1.8867                 3.5737
 IR Inten    --    90.3709                14.8135                13.1368

                    55                     56                     57
                     A                      A                      A
 Frequencies --  1378.9887              1414.7130              1421.8269
 Red. masses --     1.9929                 4.2971                 4.7491
 Frc consts  --     2.2328                 5.0672                 5.6566
 IR Inten    --    11.4365                 9.4057               122.3424

                    58                     59                     60
                     A                      A                      A
 Frequencies --  1443.3838              1453.4418              1461.8980
 Red. masses --     2.6984                 4.3227                 1.1870
 Frc consts  --     3.3122                 5.3802                 1.4947
 IR Inten    --   255.3290                 0.3953                32.3497

                    61                     62                     63
                     A                      A                      A
 Frequencies --  1491.0812              1519.3151              1526.1540
 Red. masses --     1.2188                 1.0414                 2.3757
 Frc consts  --     1.5966                 1.4163                 3.2601
 IR Inten    --    74.5016                 0.6128                31.5810

                    64                     65                     66
                     A                      A                      A
 Frequencies --  1530.5868              1532.0745              1549.1927
 Red. masses --     1.0568                 1.0434                 3.5084
 Frc consts  --     1.4587                 1.4430                 4.9610
 IR Inten    --    15.1109                17.3881                32.8036

                    67                     68                     69
                     A                      A                      A
 Frequencies --  1565.7497              1618.3126              1661.7062
 Red. masses --     1.2493                 6.8333                 5.7635
 Frc consts  --     1.8044                10.5440                 9.3766
 IR Inten    --    48.0586                 4.5436                10.3499

                    70                     71                     72
                     A                      A                      A
 Frequencies --  1685.5749              1820.5160              2344.7862
 Red. masses --     6.3683                10.8406                12.6811
 Frc consts  --    10.6603                21.1686                41.0785
 IR Inten    --    66.5000               415.7599                59.2203

                    73                     74                     75
                     A                      A                      A
 Frequencies --  3033.2155              3040.2326              3079.3664
 Red. masses --     1.0399                 1.0404                 1.1045
 Frc consts  --     5.6370                 5.6656                 6.1708
 IR Inten    --    25.7541               123.8451                51.0636

                    76                     77                     78
                     A                      A                      A
 Frequencies --  3085.3770              3193.4208              3195.6702
 Red. masses --     1.1053                 1.0888                 1.0903
 Frc consts  --     6.1991                 6.5420                 6.5600
 IR Inten    --    16.7167                 5.6429                 7.2976

                    79                     80                     81
                     A                      A                      A
 Frequencies --  3196.3561              3207.8271              3210.8976
 Red. masses --     1.0966                 1.0914                 1.0912
 Frc consts  --     6.6010                 6.6171                 6.6286
 IR Inten    --     0.7234                 5.1496                 5.6735

                    82                     83                     84
                     A                      A                      A
 Frequencies --  3212.7452              3222.1494              3257.3504
 Red. masses --     1.0946                 1.0945                 1.0932
 Frc consts  --     6.6566                 6.6952                 6.8339
 IR Inten    --     3.7985                 6.9240                 1.4022

 - Thermochemistry -
 -------------------
 Temperature   298.150 Kelvin.  Pressure   1.00000 Atm.
 Atom     1 has atomic number  7 and mass  14.00307

 Molecular mass:   240.08988 amu.
 Principal axes and moments of inertia in atomic units:
                           1         2         3
     Eigenvalues --  1059.68778********************
           X            1.00000  -0.00220   0.00114
           Y            0.00219   0.99995   0.01019
           Z           -0.00117  -0.01019   0.99995
 This molecule is an asymmetric top.
 Rotational symmetry number  1.
 Warning -- assumption of classical behavior for rotation
           may cause significant error
 Rotational temperatures (Kelvin)      0.08174     0.00765     0.00719
 Rotational constants (GHZ):           1.70309     0.15940     0.14988
 Zero-point vibrational energy     614402.9 (Joules/Mol)
                                  146.84582 (Kcal/Mol)
 Warning -- explicit consideration of  25 degrees of freedom as
           vibrations may cause significant error
 Vibrational temperatures:     42.60    46.99    78.22    88.25   140.27
          (Kelvin)            164.52   195.12   215.63   258.71   275.90
                              321.32   333.53   392.42   460.28   536.14
                              573.56   592.72   633.48   681.21   695.76
                              708.45   757.57   826.08   847.53   891.20
                              922.81   975.33  1004.25  1059.96  1101.16
                             1117.61  1168.72  1190.14  1213.03  1245.95
                             1296.74  1322.34  1374.05  1388.62  1401.00
                             1421.33  1501.39  1575.12  1646.66  1664.96
                             1695.68  1712.07  1714.14  1720.90  1722.86
                             1819.38  1848.84  1867.49  1872.85  1984.05
                             2035.45  2045.69  2076.70  2091.18  2103.34
                             2145.33  2185.95  2195.79  2202.17  2204.31
                             2228.94  2252.76  2328.39  2390.82  2425.16
                             2619.31  3373.62  4364.12  4374.21  4430.52
                             4439.16  4594.61  4597.85  4598.84  4615.34
                             4619.76  4622.42  4635.95  4686.59

 Zero-point correction=                           0.234014 (Hartree/Particle)
 Thermal correction to Energy=                    0.250174
 Thermal correction to Enthalpy=                  0.251118
 Thermal correction to Gibbs Free Energy=         0.188637
 Sum of electronic and zero-point Energies=           -800.448130
 Sum of electronic and thermal Energies=              -800.431970
 Sum of electronic and thermal Enthalpies=            -800.431026
 Sum of electronic and thermal Free Energies=         -800.493507

                     E (Thermal)             CV                S
                      KCal/Mol        Cal/Mol-Kelvin    Cal/Mol-Kelvin
 Total                  156.986             60.047            131.503
 Electronic               0.000              0.000              0.000
 Translational            0.889              2.981             42.329
 Rotational               0.889              2.981             33.335
 Vibrational            155.209             54.086             55.839
 Vibration     1          0.593              1.984              5.856
 Vibration     2          0.594              1.983              5.661
 Vibration     3          0.596              1.976              4.652
 Vibration     4          0.597              1.973              4.414
 Vibration     5          0.603              1.951              3.504
 Vibration     6          0.607              1.938              3.194
 Vibration     7          0.613              1.918              2.865
 Vibration     8          0.618              1.903              2.674
 Vibration     9          0.629              1.867              2.330
 Vibration    10          0.634              1.851              2.211
 Vibration    11          0.649              1.806              1.932
 Vibration    12          0.653              1.792              1.865
 Vibration    13          0.676              1.724              1.579
 Vibration    14          0.706              1.635              1.311
 Vibration    15          0.744              1.528              1.069
 Vibration    16          0.765              1.473              0.968
 Vibration    17          0.776              1.444              0.920
 Vibration    18          0.800              1.382              0.826
 Vibration    19          0.830              1.309              0.728
 Vibration    20          0.840              1.286              0.700
 Vibration    21          0.848              1.267              0.677
 Vibration    22          0.881              1.191              0.595
 Vibration    23          0.930              1.087              0.496
 Vibration    24          0.946              1.055              0.469
 Vibration    25          0.979              0.991              0.417

 Normal termination of Gaussian 09 at Thu Sep 30 08:59:51 2021.
 Gaussian 09:  AM64L-G09RevA.02 11-Jun-2009

 ----------------------------------------------------------------------
 #p TD(NStates=10, Root=1) b3lyp/6-31G* volume pop=NPA density=current
 Geom=AllCheck Guess=Read
 ----------------------------------------------------------------------

 N#Cc1ccc2c(c1)ccc(c2)OC(=O)N(C)C_conf_0
 ---------------------------------------
 Redundant internal coordinates taken from checkpoint file:
 C14H12N2O2_6dd7_conf_0.chk
 Charge =  0 Multiplicity = 1

                         Standard orientation:
 ---------------------------------------------------------------------
 Center     Atomic      Atomic             Coordinates (Angstroms)
 Number     Number       Type             X           Y           Z
 ---------------------------------------------------------------------
      1          7           0        6.675500   -0.487735    0.093659
      2          6           0        5.538626   -0.239366    0.083647
      3          6           0        4.140642    0.076495    0.072382
      4          6           0        3.715776    1.408681    0.350287
      5          6           0        2.378886    1.719833    0.338914
      6          6           0        1.396451    0.731583    0.054094
      7          6           0        1.823723   -0.607969   -0.224472
      8          6           0        3.206346   -0.908161   -0.208499
      9          6           0        0.840695   -1.593825   -0.512940
     10          6           0       -0.498215   -1.285626   -0.528273
     11          6           0       -0.906142    0.041370   -0.242073
     12          6           0        0.010815    1.027299    0.040328
     13          8           0       -2.232406    0.436347   -0.333242
     14          6           0       -3.217598   -0.332501    0.262410
     15          8           0       -2.985886   -1.329014    0.919460
     16          7           0       -4.451318    0.187401    0.011397
     17          6           0       -5.613675   -0.475531    0.584028
     18          6           0       -4.710582    1.389384   -0.767693
     19          1           0        4.461128    2.166285    0.568919
     20          1           0        2.055262    2.735407    0.551109
     21          1           0        3.534815   -1.921704   -0.419112
     22          1           0        1.163631   -2.609060   -0.727723
     23          1           0       -1.242729   -2.041437   -0.740776
     24          1           0       -0.335294    2.035013    0.249008
     25          1           0       -5.283471   -1.354243    1.135537
     26          1           0       -6.306657   -0.780912   -0.210530
     27          1           0       -6.144796    0.203479    1.263814
     28          1           0       -3.780576    1.797173   -1.155266
     29          1           0       -5.202549    2.147687   -0.143946
     30          1           0       -5.376189    1.155986   -1.609012
 ---------------------------------------------------------------------

 SCF Done:  E(RB3LYP) =  -800.682143467     A.U. after    1 cycles

 Excitation energies and oscillator strengths:

 Excited State   1:      Singlet-A      4.1626 eV  297.86 nm  f=0.0901  <S**2>=0.000
      61 -> 64         0.10689
      62 -> 64        -0.22334
      62 -> 65         0.12863
      63 -> 64         0.61774
      63 -> 65         0.17054
 This state for optimization and/or second-order correction.
 Total Energy, E(TD-HF/TD-KS) =  -800.529172018
 Copying the excited state density for this state as the 1-particle RhoCI density.

 Excited State   2:      Singlet-A      4.2314 eV  293.01 nm  f=0.0349  <S**2>=0.000
      61 -> 64         0.14547
      62 -> 64        -0.42601
      63 -> 64        -0.28835
      63 -> 65         0.45265

 Excited State   3:      Singlet-A      4.7590 eV  260.53 nm  f=0.0194  <S**2>=0.000
      61 -> 64         0.62489
      62 -> 64         0.31324

 Excited State   4:      Singlet-A      5.2942 eV  234.19 nm  f=0.7273  <S**2>=0.000
      60 -> 64        -0.32491
      61 -> 64        -0.19384
      61 -> 65         0.13774
      62 -> 64         0.31200
      62 -> 65         0.27801
      63 -> 65         0.38314

 Excited State   5:      Singlet-A      5.3643 eV  231.13 nm  f=0.1623  <S**2>=0.000
      60 -> 64         0.60954
      61 -> 65         0.16338
      62 -> 64         0.14388
      62 -> 65         0.14489
      63 -> 65         0.19685

 Excited State   6:      Singlet-A      5.4965 eV  225.57 nm  f=0.3040  <S**2>=0.000
      61 -> 64         0.14589
      61 -> 65         0.56631
      62 -> 64        -0.18248
      62 -> 65         0.25029
      63 -> 65        -0.20180

 Excited State   7:      Singlet-A      5.6109 eV  220.97 nm  f=0.0232  <S**2>=0.000
      59 -> 64         0.47320
      61 -> 65        -0.20657
      62 -> 65         0.23604
      63 -> 66        -0.39524

 Excited State   8:      Singlet-A      5.7726 eV  214.78 nm  f=0.5537  <S**2>=0.000
      59 -> 64        -0.26133
      60 -> 65        -0.14539
      61 -> 65        -0.27419
      62 -> 65         0.47417
      63 -> 64        -0.15634
      63 -> 65        -0.12990
      63 -> 66         0.15575

 Excited State   9:      Singlet-A      5.9606 eV  208.01 nm  f=0.0079  <S**2>=0.000
      58 -> 64        -0.39017
      59 -> 64         0.13480
      59 -> 65        -0.24880
      60 -> 65         0.41186
      62 -> 66         0.20030
      63 -> 66         0.14363

 Excited State  10:      Singlet-A      6.0759 eV  204.06 nm  f=0.0022  <S**2>=0.000
      57 -> 64         0.64247
      57 -> 65         0.16052
      60 -> 65         0.11868

 The electronic state is 1-A.
 Alpha  occ. eigenvalues --  -19.20915 -19.12848 -14.38236 -14.33080 -10.34585
 Alpha  occ. eigenvalues --  -10.26938 -10.23675 -10.23264 -10.22677 -10.22422
 Alpha  occ. eigenvalues --  -10.22022 -10.21886 -10.21664 -10.21468 -10.21007
 Alpha  occ. eigenvalues --  -10.20981 -10.20705 -10.20570  -1.11960  -1.02751
 Alpha  occ. eigenvalues --   -0.95393  -0.90399  -0.88875  -0.84307  -0.79482
 Alpha  occ. eigenvalues --   -0.77348  -0.74710  -0.73645  -0.71846  -0.66040
 Alpha  occ. eigenvalues --   -0.64622  -0.61782  -0.60100  -0.55623  -0.54724
 Alpha  occ. eigenvalues --   -0.52452  -0.50279  -0.49610  -0.49286  -0.47639
 Alpha  occ. eigenvalues --   -0.46451  -0.45220  -0.44530  -0.43855  -0.43663
 Alpha  occ. eigenvalues --   -0.41707  -0.41676  -0.41362  -0.41054  -0.40024
 Alpha  occ. eigenvalues --   -0.39261  -0.38051  -0.36828  -0.35758  -0.35222
 Alpha  occ. eigenvalues --   -0.33488  -0.32568  -0.31497  -0.29655  -0.28351
 Alpha  occ. eigenvalues --   -0.25720  -0.25165  -0.22966
 Alpha virt. eigenvalues --   -0.06315  -0.03721   0.01188   0.03721   0.04085
 Alpha virt. eigenvalues --    0.05813   0.08135   0.08390   0.10530   0.10776
 Alpha virt. eigenvalues --    0.12049   0.13156   0.13422   0.14123   0.15094

 Mulliken atomic charges:
              1
     1  N   -0.504059
     2  C    0.193785
     3  C    0.116043
     4  C   -0.120001
     5  C   -0.205756
     6  C    0.133833
     7  C    0.156378
     8  C   -0.245436
     9  C   -0.196452
    10  C   -0.122325
    11  C    0.361267
    12  C   -0.227727
    13  O   -0.552874
    14  C    0.786056
    15  O   -0.501477
    16  N   -0.433699
    17  C   -0.321554
    18  C   -0.319587
    19  H    0.164243
    20  H    0.142606
    21  H    0.147008
    22  H    0.160814
    23  H    0.173181
    24  H    0.159021
    25  H    0.208993
    26  H    0.160565
    27  H    0.161586
    28  H    0.199297
    29  H    0.162611
    30  H    0.163659
 Sum of Mulliken atomic charges =  -0.00000

 Dipole moment (field-independent basis, Debye):
    X=            -10.0185    Y=              2.8115    Z=             -1.3757  Tot=             10.4961
 Quadrupole moment (field-independent basis, Debye-Ang):
   XX=           -135.9095   YY=            -93.3917   ZZ=           -105.1013
   XY=              1.6541   XZ=              3.3307   YZ=              4.8691

 Summary of Natural Population Analysis:

                                       Natural Population
                Natural  -----------------------------------------------
    Atom  No    Charge         Core      Valence    Rydberg      Total
 -----------------------------------------------------------------------
      N    1   -0.35040      1.99965     5.32858    0.02217     7.35040
      C    2    0.24780      1.99939     3.71790    0.03492     5.75220
      C    3   -0.21191      1.99886     4.19759    0.01546     6.21191
      C    4   -0.12606      1.99907     4.11328    0.01371     6.12606
      C    5   -0.21036      1.99907     4.19592    0.01537     6.21036
      C    6   -0.07723      1.99903     4.06315    0.01505     6.07723
      C    7   -0.06598      1.99903     4.05188    0.01507     6.06598
      C    8   -0.20495      1.99902     4.19036    0.01557     6.20495
      C    9   -0.14571      1.99906     4.13195    0.01470     6.14571
      C   10   -0.21995      1.99903     4.20678    0.01414     6.21995
      C   11    0.27742      1.99876     3.70132    0.02250     5.72258
      C   12   -0.15786      1.99897     4.14444    0.01445     6.15786
      O   13   -0.55031      1.99969     6.54030    0.01033     8.55031
      C   14    0.93925      1.99936     3.01671    0.04467     5.06075
      O   15   -0.63522      1.99978     6.61626    0.01918     8.63522
      N   16   -0.47833      1.99932     5.46807    0.01094     7.47833
      C   17   -0.47035      1.99947     4.45899    0.01190     6.47035
      C   18   -0.47188      1.99946     4.46089    0.01153     6.47188
      H   19    0.25249      0.00000     0.74679    0.00072     0.74751
      H   20    0.23792      0.00000     0.76099    0.00110     0.76208
      H   21    0.24450      0.00000     0.75448    0.00101     0.75550
      H   22    0.24532      0.00000     0.75360    0.00109     0.75468
      H   23    0.26387      0.00000     0.73501    0.00112     0.73613
      H   24    0.24791      0.00000     0.75065    0.00144     0.75209
      H   25    0.26450      0.00000     0.73408    0.00142     0.73550
      H   26    0.22372      0.00000     0.77499    0.00129     0.77628
      H   27    0.22388      0.00000     0.77482    0.00130     0.77612
      H   28    0.25694      0.00000     0.74220    0.00086     0.74306
      H   29    0.22464      0.00000     0.77386    0.00149     0.77536
      H   30    0.22634      0.00000     0.77222    0.00144     0.77366
 =======================================================================
   * Total *   -0.00000     35.98603    89.67805    0.33592   126.00000

 Normal termination of Gaussian 09 at Thu Sep 30 14:22:40 2021.
