 Gaussian 09, Revision A.02,

 -----------------------------------
 #p opt b3lyp/6-31G* scf=(xqc,tight)
 -----------------------------------

 ----------------------------
 CCCCOc1ccc2c(c1)cccc2_conf_0
 ----------------------------
 Symbolic Z-matrix:
 Charge =  0 Multiplicity = 1

 SCF Done:  E(RB3LYP) =  -618.356197311     A.U. after   14 cycles
 SCF Done:  E(RB3LYP) =  -618.360671661     A.U. after   12 cycles
 SCF Done:  E(RB3LYP) =  -618.360991935     A.U. after   11 cycles
 SCF Done:  E(RB3LYP) =  -618.361022950     A.U. after   11 cycles
 SCF Done:  E(RB3LYP) =  -618.361027231     A.U. after    8 cycles
 Optimization completed.
    -- Stationary point found.
 Normal termination of Gaussian 09 at Thu Sep 30 06:54:55 2021.

 ----------------------------------------------------------------------
 #p freq b3lyp/6-31G* volume NMR pop=NPA density=current Geom=AllCheck
 Guess=Read
 ----------------------------------------------------------------------

 CCCCOc1ccc2c(c1)cccc2_conf_0
 ----------------------------
 Redundant internal coordinates taken from checkpoint file:
 C14H16O_9a19_conf_0.chk
 Charge =  0 Multiplicity = 1

 SCF Done:  E(RB3LYP) =  -618.361027231     A.U. after    1 cycles

  1  C    Isotropic =   173.7969   Anisotropy =    23.7304

  2  C    Isotropic =   166.7535   Anisotropy =    14.3993

  3  C    Isotropic =   156.5602   Anisotropy =    22.1359

  4  C    Isotropic =   124.0789   Anisotropy =    44.5595

  5  O    Isotropic =   219.0319   Anisotropy =    62.0998

  6  C    Isotropic =    41.0835   Anisotropy =   121.8310

  7  C    Isotropic =    84.3241   Anisotropy =   143.6112

  8  C    Isotropic =    66.2994   Anisotropy =   143.8211

  9  C    Isotropic =    68.2785   Anisotropy =   191.8723

 10  C    Isotropic =    62.2543   Anisotropy =   195.6312

 11  C    Isotropic =    82.4791   Anisotropy =   111.6429

 12  C    Isotropic =    68.9758   Anisotropy =   142.6005

 13  C    Isotropic =    69.8767   Anisotropy =   161.7807

 14  C    Isotropic =    73.0945   Anisotropy =   156.8691

 15  C    Isotropic =    67.8887   Anisotropy =   145.3184

 16  H    Isotropic =    30.9324   Anisotropy =     9.8449

 17  H    Isotropic =    31.1497   Anisotropy =     8.0322

 18  H    Isotropic =    31.1937   Anisotropy =     8.3450

 19  H    Isotropic =    29.9311   Anisotropy =     6.6874

 20  H    Isotropic =    30.8289   Anisotropy =     6.2813

 21  H    Isotropic =    30.6499   Anisotropy =     6.9354

 22  H    Isotropic =    30.1291   Anisotropy =     5.0181

 23  H    Isotropic =    28.3201   Anisotropy =     5.1980

 24  H    Isotropic =    28.1461   Anisotropy =     5.4823

 25  H    Isotropic =    25.3600   Anisotropy =     9.0407

 26  H    Isotropic =    24.6147   Anisotropy =     7.2481

 27  H    Isotropic =    25.1804   Anisotropy =     8.9956

 28  H    Isotropic =    24.6901   Anisotropy =     7.5982

 29  H    Isotropic =    24.8724   Anisotropy =     5.1899

 30  H    Isotropic =    25.0125   Anisotropy =     4.8669

 31  H    Isotropic =    24.6768   Anisotropy =     6.8945

  Exact polarizability: 237.904 -15.766 152.403   8.455   7.907  74.916
 Approx polarizability: 339.384 -28.088 264.093  17.221  19.383 114.207

                     1                      2                      3
                     A                      A                      A
 Frequencies --    32.1097                44.8317                71.7335
 Red. masses --     4.5586                 3.2563                 2.0709
 Frc consts  --     0.0028                 0.0039                 0.0063
 IR Inten    --     0.5121                 0.1579                 0.3454

                     4                      5                      6
                     A                      A                      A
 Frequencies --   102.0533               137.0248               160.6153
 Red. masses --     2.7520                 4.6044                 3.7783
 Frc consts  --     0.0169                 0.0509                 0.0574
 IR Inten    --     0.6013                 0.4747                 1.3119

                     7                      8                      9
                     A                      A                      A
 Frequencies --   187.1808               244.0607               267.8286
 Red. masses --     3.6686                 1.3749                 2.5317
 Frc consts  --     0.0757                 0.0483                 0.1070
 IR Inten    --     0.7826                 0.1192                 0.0716

                    10                     11                     12
                     A                      A                      A
 Frequencies --   274.2805               305.6944               319.2432
 Red. masses --     1.7526                 5.0344                 3.8490
 Frc consts  --     0.0777                 0.2772                 0.2311
 IR Inten    --     0.5585                 0.9062                 0.6734

                    13                     14                     15
                     A                      A                      A
 Frequencies --   413.7034               417.5066               482.6721
 Red. masses --     3.4960                 4.1279                 3.6270
 Frc consts  --     0.3525                 0.4239                 0.4978
 IR Inten    --     0.1231                 0.1207                 0.8059

                    16                     17                     18
                     A                      A                      A
 Frequencies --   485.6986               531.9685               542.6050
 Red. masses --     2.5690                 5.9502                 3.6027
 Frc consts  --     0.3571                 0.9921                 0.6249
 IR Inten    --     9.1722                 0.1748                 0.1574

                    19                     20                     21
                     A                      A                      A
 Frequencies --   584.2594               636.7637               652.9001
 Red. masses --     4.3980                 5.9925                 2.9524
 Frc consts  --     0.8845                 1.4316                 0.7415
 IR Inten    --     3.3336                 6.2686                 0.0026

                    22                     23                     24
                     A                      A                      A
 Frequencies --   728.7585               762.1339               766.1954
 Red. masses --     2.2001                 1.3370                 1.5544
 Frc consts  --     0.6884                 0.4576                 0.5377
 IR Inten    --     9.0986                18.1541                 4.0350

                    25                     26                     27
                     A                      A                      A
 Frequencies --   767.8935               783.1157               817.5946
 Red. masses --     2.9661                 4.7824                 1.4457
 Frc consts  --     1.0305                 1.7280                 0.5694
 IR Inten    --     4.3588                 1.2434                27.3776

                    28                     29                     30
                     A                      A                      A
 Frequencies --   855.1975               858.5991               866.3800
 Red. masses --     1.7190                 2.1446                 1.4816
 Frc consts  --     0.7407                 0.9315                 0.6552
 IR Inten    --     1.6825                 3.6263                26.2390

                    31                     32                     33
                     A                      A                      A
 Frequencies --   891.2345               914.8962               943.3995
 Red. masses --     1.6004                 2.7883                 1.2795
 Frc consts  --     0.7490                 1.3751                 0.6709
 IR Inten    --    12.9427                 1.3661                 0.3085

                    34                     35                     36
                     A                      A                      A
 Frequencies --   956.2544               969.5657               985.7102
 Red. masses --     1.3482                 3.2471                 1.2645
 Frc consts  --     0.7264                 1.7985                 0.7239
 IR Inten    --     2.6416                 0.8818                 0.0388

                    37                     38                     39
                     A                      A                      A
 Frequencies --   994.0768              1009.3230              1048.1430
 Red. masses --     1.3007                 2.0549                 2.4189
 Frc consts  --     0.7573                 1.2334                 1.5657
 IR Inten    --     1.5702                21.0292                 7.9212

                    40                     41                     42
                     A                      A                      A
 Frequencies --  1051.8788              1092.7504              1153.3199
 Red. masses --     2.6887                 2.6448                 2.0073
 Frc consts  --     1.7527                 1.8607                 1.5731
 IR Inten    --    13.0279                43.8467                 7.3811

                    43                     44                     45
                     A                      A                      A
 Frequencies --  1160.5643              1184.8821              1187.0793
 Red. masses --     1.7994                 1.6116                 1.3120
 Frc consts  --     1.4279                 1.3331                 1.0893
 IR Inten    --    30.1271                 8.2143                 3.3171

                    46                     47                     48
                     A                      A                      A
 Frequencies --  1193.2127              1208.8038              1266.0445
 Red. masses --     1.2089                 1.5960                 2.0953
 Frc consts  --     1.0141                 1.3740                 1.9788
 IR Inten    --     8.5071               119.6572                59.9989

                    49                     50                     51
                     A                      A                      A
 Frequencies --  1268.5448              1295.5152              1296.1477
 Red. masses --     1.2580                 1.7622                 1.2909
 Frc consts  --     1.1927                 1.7425                 1.2777
 IR Inten    --     1.1064                 6.9808                20.6767

                    52                     53                     54
                     A                      A                      A
 Frequencies --  1311.0478              1345.8366              1354.2589
 Red. masses --     2.7706                 1.1424                 1.2353
 Frc consts  --     2.8059                 1.2191                 1.3348
 IR Inten    --   330.4055                 2.0135                 1.8901

                    55                     56                     57
                     A                      A                      A
 Frequencies --  1394.2743              1411.3004              1419.9693
 Red. masses --     2.6321                 2.0639                 5.8356
 Frc consts  --     3.0147                 2.4220                 6.9326
 IR Inten    --    44.7512                13.0203                 0.1010

                    58                     59                     60
                     A                      A                      A
 Frequencies --  1427.6119              1442.2454              1442.8805
 Red. masses --     1.5966                 1.5011                 1.3069
 Frc consts  --     1.9172                 1.8397                 1.6031
 IR Inten    --     0.7903                13.2800                 7.6439

                    61                     62                     63
                     A                      A                      A
 Frequencies --  1489.3624              1507.7789              1520.2974
 Red. masses --     2.6175                 1.0901                 2.1066
 Frc consts  --     3.4209                 1.4601                 2.8687
 IR Inten    --     4.5241                 4.7084                59.9004

                    64                     65                     66
                     A                      A                      A
 Frequencies --  1524.5610              1530.7719              1540.6333
 Red. masses --     1.0633                 1.0410                 1.0837
 Frc consts  --     1.4561                 1.4372                 1.5154
 IR Inten    --     0.2390                 5.9934                 3.3538

                    67                     68                     69
                     A                      A                      A
 Frequencies --  1545.9013              1567.5881              1623.2450
 Red. masses --     1.1868                 2.9402                 6.9680
 Frc consts  --     1.6710                 4.2568                10.8174
 IR Inten    --    28.6700                56.2124                 4.1721

                    70                     71                     72
                     A                      A                      A
 Frequencies --  1662.9549              1690.3746              3006.7128
 Red. masses --     5.2237                 6.2367                 1.0558
 Frc consts  --     8.5112                10.4995                 5.6235
 IR Inten    --    64.1324                93.7967                32.6779

                    73                     74                     75
                     A                      A                      A
 Frequencies --  3031.1733              3034.5306              3042.0588
 Red. masses --     1.0662                 1.0695                 1.0398
 Frc consts  --     5.7718                 5.8026                 5.6694
 IR Inten    --    14.4533                14.1452                43.6846

                    76                     77                     78
                     A                      A                      A
 Frequencies --  3049.9163              3072.7822              3088.1132
 Red. masses --     1.0988                 1.0946                 1.1007
 Frc consts  --     6.0220                 6.0893                 6.1845
 IR Inten    --    62.5187                24.8891                 8.4273

                    79                     80                     81
                     A                      A                      A
 Frequencies --  3110.4211              3114.1267              3174.6790
 Red. masses --     1.1026                 1.1013                 1.0860
 Frc consts  --     6.2853                 6.2926                 6.4488
 IR Inten    --    74.0461                39.3358                 3.1001

                    82                     83                     84
                     A                      A                      A
 Frequencies --  3179.4254              3182.2726              3193.9322
 Red. masses --     1.0879                 1.0888                 1.0932
 Frc consts  --     6.4796                 6.4962                 6.5706
 IR Inten    --     2.5615                12.9640                33.2852

                    85                     86                     87
                     A                      A                      A
 Frequencies --  3202.2146              3207.4382              3229.8819
 Red. masses --     1.0906                 1.0969                 1.0914
 Frc consts  --     6.5888                 6.6486                 6.7080
 IR Inten    --    13.1273                32.4644                12.7650

 - Thermochemistry -
 -------------------
 Temperature   298.150 Kelvin.  Pressure   1.00000 Atm.
 Atom     1 has atomic number  6 and mass  12.00000

 Molecular mass:   200.12012 amu.
 Principal axes and moments of inertia in atomic units:
                           1         2         3
     Eigenvalues --   955.023567750.293388519.20072
           X            0.99999   0.00407  -0.00141
           Y           -0.00407   0.99999   0.00110
           Z            0.00141  -0.00109   1.00000
 This molecule is an asymmetric top.
 Rotational symmetry number  1.
 Warning -- assumption of classical behavior for rotation
           may cause significant error
 Rotational temperatures (Kelvin)      0.09069     0.01118     0.01017
 Rotational constants (GHZ):           1.88973     0.23286     0.21184
 Zero-point vibrational energy     698885.4 (Joules/Mol)
                                  167.03763 (Kcal/Mol)
 Warning -- explicit consideration of  19 degrees of freedom as
           vibrations may cause significant error
 Vibrational temperatures:     46.20    64.50   103.21   146.83   197.15
          (Kelvin)            231.09   269.31   351.15   385.35   394.63
                              439.83   459.32   595.23   600.70   694.46
                              698.81   765.38   780.69   840.62   916.16
                              939.38  1048.52  1096.54  1102.38  1104.83
                             1126.73  1176.33  1230.44  1235.33  1246.53
                             1282.29  1316.33  1357.34  1375.84  1394.99
                             1418.22  1430.25  1452.19  1508.04  1513.42
                             1572.22  1659.37  1669.79  1704.78  1707.94
                             1716.76  1739.20  1821.55  1825.15  1863.96
                             1864.87  1886.30  1936.36  1948.47  2006.05
                             2030.54  2043.02  2054.01  2075.07  2075.98
                             2142.86  2169.35  2187.37  2193.50  2202.44
                             2216.62  2224.20  2255.41  2335.48  2392.62
                             2432.07  4325.98  4361.18  4366.01  4376.84
                             4388.14  4421.04  4443.10  4475.20  4480.53
                             4567.65  4574.48  4578.57  4595.35  4607.27
                             4614.78  4647.07

 Zero-point correction=                           0.266191 (Hartree/Particle)
 Thermal correction to Energy=                    0.279675
 Thermal correction to Enthalpy=                  0.280619
 Thermal correction to Gibbs Free Energy=         0.224985
 Sum of electronic and zero-point Energies=           -618.094836
 Sum of electronic and thermal Energies=              -618.081352
 Sum of electronic and thermal Enthalpies=            -618.080408
 Sum of electronic and thermal Free Energies=         -618.136042

                     E (Thermal)             CV                S
                      KCal/Mol        Cal/Mol-Kelvin    Cal/Mol-Kelvin
 Total                  175.499             52.573            117.092
 Electronic               0.000              0.000              0.000
 Translational            0.889              2.981             41.786
 Rotational               0.889              2.981             32.511
 Vibrational            173.721             46.611             42.795
 Vibration     1          0.594              1.983              5.695
 Vibration     2          0.595              1.979              5.033
 Vibration     3          0.598              1.967              4.105
 Vibration     4          0.604              1.948              3.415
 Vibration     5          0.614              1.916              2.845
 Vibration     6          0.622              1.891              2.543
 Vibration     7          0.632              1.857              2.256
 Vibration     8          0.659              1.773              1.773
 Vibration     9          0.673              1.732              1.610
 Vibration    10          0.677              1.721              1.569
 Vibration    11          0.696              1.663              1.386
 Vibration    12          0.705              1.637              1.314
 Vibration    13          0.777              1.440              0.914
 Vibration    14          0.781              1.432              0.900
 Vibration    15          0.839              1.288              0.703
 Vibration    16          0.842              1.282              0.695
 Vibration    17          0.887              1.179              0.583
 Vibration    18          0.898              1.156              0.560
 Vibration    19          0.941              1.065              0.478

 Normal termination of Gaussian 09 at Thu Sep 30 07:52:49 2021.
 Gaussian 09:  AM64L-G09RevA.02 11-Jun-2009

 ----------------------------------------------------------------------
 #p TD(NStates=10, Root=1) b3lyp/6-31G* volume pop=NPA density=current
 Geom=AllCheck Guess=Read
 ----------------------------------------------------------------------

 CCCCOc1ccc2c(c1)cccc2_conf_0
 ----------------------------
 Redundant internal coordinates taken from checkpoint file:
 C14H16O_9a19_conf_0.chk
 Charge =  0 Multiplicity = 1

                         Standard orientation:
 ---------------------------------------------------------------------
 Center     Atomic      Atomic             Coordinates (Angstroms)
 Number     Number       Type             X           Y           Z
 ---------------------------------------------------------------------
      1          6           0       -5.769977   -1.134738    0.383883
      2          6           0       -4.375276   -0.543208    0.608854
      3          6           0       -3.958308    0.434822   -0.496677
      4          6           0       -2.574872    1.040172   -0.296578
      5          8           0       -1.618251   -0.016727   -0.363871
      6          6           0       -0.292051    0.265830   -0.196135
      7          6           0        0.212127    1.573337    0.035706
      8          6           0        1.567561    1.768469    0.191168
      9          6           0        2.486420    0.692055    0.125978
     10          6           0        1.971833   -0.627034   -0.108343
     11          6           0        0.578388   -0.807405   -0.265334
     12          6           0        2.890719   -1.712681   -0.174440
     13          6           0        4.241364   -1.504761   -0.017612
     14          6           0        4.748087   -0.200223    0.213606
     15          6           0        3.887477    0.870782    0.283199
     16          1           0       -6.041557   -1.829428    1.186609
     17          1           0       -5.818751   -1.685850   -0.563297
     18          1           0       -6.536038   -0.349951    0.349399
     19          1           0       -3.634176   -1.348584    0.669907
     20          1           0       -4.347680   -0.023988    1.577722
     21          1           0       -4.679237    1.262670   -0.554838
     22          1           0       -3.981082   -0.070460   -1.471361
     23          1           0       -2.511227    1.542341    0.680490
     24          1           0       -2.363783    1.786111   -1.076426
     25          1           0       -0.460616    2.421100    0.091643
     26          1           0        1.947755    2.772049    0.368422
     27          1           0        0.172082   -1.798960   -0.443650
     28          1           0        2.503996   -2.713507   -0.351843
     29          1           0        4.929118   -2.344735   -0.070880
     30          1           0        5.817566   -0.051731    0.335190
     31          1           0        4.268694    1.874236    0.460230
 ---------------------------------------------------------------------

 SCF Done:  E(RB3LYP) =  -618.361027231     A.U. after    1 cycles

 Excitation energies and oscillator strengths:

 Excited State   1:      Singlet-A      4.0764 eV  304.15 nm  f=0.0560  <S**2>=0.000
      53 -> 55         0.13327
      53 -> 56         0.15494
      54 -> 55         0.65755
      54 -> 56        -0.14884
 This state for optimization and/or second-order correction.
 Total Energy, E(TD-HF/TD-KS) =  -618.211220462
 Copying the excited state density for this state as the 1-particle RhoCI density.

 Excited State   2:      Singlet-A      4.5174 eV  274.46 nm  f=0.0087  <S**2>=0.000
      53 -> 55         0.50506
      54 -> 55        -0.20523
      54 -> 56        -0.44233

 Excited State   3:      Singlet-A      5.5461 eV  223.55 nm  f=0.2714  <S**2>=0.000
      52 -> 55         0.43819
      53 -> 55         0.27084
      54 -> 56         0.26495
      54 -> 57        -0.39563

 Excited State   4:      Singlet-A      5.8085 eV  213.45 nm  f=0.9663  <S**2>=0.000
      52 -> 55        -0.12579
      53 -> 55         0.35558
      53 -> 56         0.13353
      54 -> 56         0.42228
      54 -> 57         0.37548

 Excited State   5:      Singlet-A      5.9257 eV  209.23 nm  f=0.0601  <S**2>=0.000
      51 -> 55         0.18026
      52 -> 55        -0.25230
      52 -> 56         0.19505
      53 -> 56         0.47407
      53 -> 57        -0.16851
      54 -> 57        -0.28768

 Excited State   6:      Singlet-A      6.2575 eV  198.14 nm  f=0.2556  <S**2>=0.000
      52 -> 55         0.33334
      52 -> 56        -0.15014
      53 -> 55        -0.13220
      53 -> 56         0.42553
      53 -> 57         0.28899
      54 -> 56        -0.10502
      54 -> 57         0.19893

 Excited State   7:      Singlet-A      6.5019 eV  190.69 nm  f=0.1184  <S**2>=0.000
      51 -> 55         0.29888
      52 -> 55        -0.28920
      52 -> 56        -0.19746
      53 -> 56        -0.10741
      53 -> 57         0.47866
      54 -> 56         0.10463
      54 -> 57        -0.14260

 Excited State   8:      Singlet-A      6.6744 eV  185.76 nm  f=0.0247  <S**2>=0.000
      48 -> 55        -0.10210
      49 -> 55        -0.14282
      50 -> 55        -0.28187
      51 -> 55         0.46995
      52 -> 55         0.13651
      52 -> 56         0.27454
      53 -> 56        -0.11560
      54 -> 57         0.19758

 Excited State   9:      Singlet-A      6.6920 eV  185.27 nm  f=0.0103  <S**2>=0.000
      48 -> 55         0.18869
      49 -> 55         0.18589
      50 -> 55         0.55091
      51 -> 55         0.24973
      52 -> 56         0.15869
      54 -> 57         0.10227

 Excited State  10:      Singlet-A      7.0964 eV  174.71 nm  f=0.0001  <S**2>=0.000
      46 -> 55        -0.10026
      54 -> 59         0.68019

 The electronic state is 1-A.
 Alpha  occ. eigenvalues --  -19.17274 -10.24514 -10.24153 -10.19334 -10.19094
 Alpha  occ. eigenvalues --  -10.18939 -10.18915 -10.18708 -10.18523 -10.18515
 Alpha  occ. eigenvalues --  -10.18295 -10.18288 -10.18075 -10.17791 -10.17433
 Alpha  occ. eigenvalues --   -1.05900  -0.86521  -0.81660  -0.79563  -0.76677
 Alpha  occ. eigenvalues --   -0.74055  -0.72669  -0.70311  -0.64304  -0.62182
 Alpha  occ. eigenvalues --   -0.60018  -0.59103  -0.57612  -0.53259  -0.50959
 Alpha  occ. eigenvalues --   -0.49871  -0.47673  -0.46078  -0.45126  -0.44428
 Alpha  occ. eigenvalues --   -0.43628  -0.41903  -0.41172  -0.40666  -0.39695
 Alpha  occ. eigenvalues --   -0.38521  -0.38390  -0.37563  -0.35458  -0.34810
 Alpha  occ. eigenvalues --   -0.33984  -0.33432  -0.32929  -0.32714  -0.31422
 Alpha  occ. eigenvalues --   -0.29683  -0.27161  -0.22825  -0.19803
 Alpha virt. eigenvalues --   -0.03219   0.00441   0.03949   0.09277   0.09600
 Alpha virt. eigenvalues --    0.10883   0.11173   0.11926   0.12589   0.13237
 Alpha virt. eigenvalues --    0.14336   0.14793   0.16324   0.16812   0.17450

 Mulliken atomic charges:
              1
     1  C   -0.443467
     2  C   -0.251991
     3  C   -0.275686
     4  C   -0.048264
     5  O   -0.479559
     6  C    0.394858
     7  C   -0.216911
     8  C   -0.219947
     9  C    0.155152
    10  C    0.143407
    11  C   -0.260107
    12  C   -0.207463
    13  C   -0.157979
    14  C   -0.114380
    15  C   -0.218953
    16  H    0.148647
    17  H    0.146047
    18  H    0.142248
    19  H    0.156286
    20  H    0.132556
    21  H    0.140810
    22  H    0.151961
    23  H    0.156871
    24  H    0.159466
    25  H    0.121072
    26  H    0.125640
    27  H    0.140859
    28  H    0.116706
    29  H    0.114534
    30  H    0.128030
    31  H    0.119557
 Sum of Mulliken atomic charges =  -0.00000

 Dipole moment (field-independent basis, Debye):
    X=             -3.1759    Y=              1.0745    Z=             -0.0478  Tot=              3.3531
 Quadrupole moment (field-independent basis, Debye-Ang):
   XX=            -81.6974   YY=            -83.8887   ZZ=            -92.9482
   XY=             -1.5473   XZ=              1.0199   YZ=              0.8614

 Summary of Natural Population Analysis:

                                       Natural Population
                Natural  -----------------------------------------------
    Atom  No    Charge         Core      Valence    Rydberg      Total
 -----------------------------------------------------------------------
      C    1   -0.67450      1.99947     4.66747    0.00756     6.67450
      C    2   -0.46180      1.99935     4.45142    0.01102     6.46180
      C    3   -0.47860      1.99932     4.46733    0.01194     6.47860
      C    4   -0.10811      1.99922     4.09289    0.01600     6.10811
      O    5   -0.46391      1.99973     6.45197    0.01220     8.46391
      C    6    0.36947      1.99880     3.60939    0.02233     5.63053
      C    7   -0.38364      1.99905     4.36986    0.01473     6.38364
      C    8   -0.20803      1.99907     4.19274    0.01622     6.20803
      C    9   -0.04687      1.99902     4.03284    0.01501     6.04687
      C   10   -0.05683      1.99903     4.04253    0.01527     6.05683
      C   11   -0.23258      1.99900     4.21759    0.01598     6.23258
      C   12   -0.23332      1.99906     4.21870    0.01556     6.23332
      C   13   -0.29349      1.99912     4.27815    0.01622     6.29349
      C   14   -0.17307      1.99910     4.15934    0.01462     6.17307
      C   15   -0.25676      1.99906     4.24216    0.01554     6.25676
      H   16    0.23570      0.00000     0.76352    0.00077     0.76430
      H   17    0.22672      0.00000     0.77223    0.00105     0.77328
      H   18    0.22431      0.00000     0.77462    0.00107     0.77569
      H   19    0.24102      0.00000     0.75710    0.00188     0.75898
      H   20    0.22681      0.00000     0.77157    0.00162     0.77319
      H   21    0.23972      0.00000     0.75892    0.00136     0.76028
      H   22    0.23959      0.00000     0.75838    0.00203     0.76041
      H   23    0.22025      0.00000     0.77723    0.00252     0.77975
      H   24    0.22685      0.00000     0.77093    0.00222     0.77315
      H   25    0.23230      0.00000     0.76689    0.00081     0.76770
      H   26    0.23157      0.00000     0.76729    0.00114     0.76843
      H   27    0.24168      0.00000     0.75665    0.00167     0.75832
      H   28    0.22595      0.00000     0.77290    0.00114     0.77405
      H   29    0.23031      0.00000     0.76888    0.00081     0.76969
      H   30    0.23162      0.00000     0.76751    0.00087     0.76838
      H   31    0.22763      0.00000     0.77124    0.00114     0.77237
 =======================================================================
   * Total *    0.00000     29.98742    77.77025    0.24233   108.00000

 Normal termination of Gaussian 09 at Thu Sep 30 12:40:50 2021.
