 Gaussian 09, Revision A.02,

 -----------------------------------
 #p opt b3lyp/6-31G* scf=(xqc,tight)
 -----------------------------------

 ------------------------------
 CC(COc1ccc2c(c1)cccc2)C_conf_0
 ------------------------------
 Symbolic Z-matrix:
 Charge =  0 Multiplicity = 1

 SCF Done:  E(RB3LYP) =  -618.357261654     A.U. after   14 cycles
 SCF Done:  E(RB3LYP) =  -618.361403545     A.U. after   12 cycles
 SCF Done:  E(RB3LYP) =  -618.361753898     A.U. after   12 cycles
 SCF Done:  E(RB3LYP) =  -618.361784972     A.U. after   11 cycles
 SCF Done:  E(RB3LYP) =  -618.361791937     A.U. after    8 cycles
 SCF Done:  E(RB3LYP) =  -618.361793593     A.U. after    8 cycles
 SCF Done:  E(RB3LYP) =  -618.361794706     A.U. after    8 cycles
 SCF Done:  E(RB3LYP) =  -618.361795214     A.U. after    8 cycles
 SCF Done:  E(RB3LYP) =  -618.361795293     A.U. after    7 cycles
 Optimization completed.
    -- Stationary point found.
 Normal termination of Gaussian 09 at Thu Sep 30 07:32:45 2021.

 ----------------------------------------------------------------------
 #p freq b3lyp/6-31G* volume NMR pop=NPA density=current Geom=AllCheck
 Guess=Read
 ----------------------------------------------------------------------

 CC(COc1ccc2c(c1)cccc2)C_conf_0
 ------------------------------
 Redundant internal coordinates taken from checkpoint file:
 C14H16O_c4e7_conf_0.chk
 Charge =  0 Multiplicity = 1

 SCF Done:  E(RB3LYP) =  -618.361795293     A.U. after    1 cycles

  1  C    Isotropic =   170.1301   Anisotropy =    31.2825

  2  C    Isotropic =   158.8798   Anisotropy =    10.9052

  3  C    Isotropic =   118.4563   Anisotropy =    48.1639

  4  O    Isotropic =   218.2550   Anisotropy =    58.8031

  5  C    Isotropic =    41.1392   Anisotropy =   121.4403

  6  C    Isotropic =    84.1870   Anisotropy =   143.3659

  7  C    Isotropic =    66.2489   Anisotropy =   143.7227

  8  C    Isotropic =    68.2483   Anisotropy =   191.7414

  9  C    Isotropic =    62.2840   Anisotropy =   195.7167

 10  C    Isotropic =    82.5059   Anisotropy =   111.4882

 11  C    Isotropic =    68.9436   Anisotropy =   142.5367

 12  C    Isotropic =    69.8276   Anisotropy =   161.6280

 13  C    Isotropic =    73.0900   Anisotropy =   156.9940

 14  C    Isotropic =    67.8906   Anisotropy =   145.3536

 15  C    Isotropic =   169.5133   Anisotropy =    27.5156

 16  H    Isotropic =    31.1097   Anisotropy =     9.1953

 17  H    Isotropic =    31.3782   Anisotropy =     7.4938

 18  H    Isotropic =    30.9951   Anisotropy =     9.2274

 19  H    Isotropic =    29.8452   Anisotropy =     6.0970

 20  H    Isotropic =    28.6311   Anisotropy =     4.7044

 21  H    Isotropic =    28.2414   Anisotropy =     5.0432

 22  H    Isotropic =    25.3231   Anisotropy =     9.3485

 23  H    Isotropic =    24.6040   Anisotropy =     7.3633

 24  H    Isotropic =    25.1662   Anisotropy =     9.0721

 25  H    Isotropic =    24.6875   Anisotropy =     7.6000

 26  H    Isotropic =    24.8813   Anisotropy =     5.1567

 27  H    Isotropic =    24.9965   Anisotropy =     4.8923

 28  H    Isotropic =    24.6657   Anisotropy =     6.9462

 29  H    Isotropic =    31.5365   Anisotropy =     7.0113

 30  H    Isotropic =    30.2329   Anisotropy =     7.9942

 31  H    Isotropic =    31.1191   Anisotropy =     9.3355

  Exact polarizability: 242.246 -10.183 149.077   3.116   7.357  73.918
 Approx polarizability: 346.695 -16.193 259.182   6.226  19.015 112.920

                     1                      2                      3
                     A                      A                      A
 Frequencies --    29.3993                49.1085                86.5035
 Red. masses --     4.3360                 2.8148                 3.7524
 Frc consts  --     0.0022                 0.0040                 0.0165
 IR Inten    --     0.4174                 0.0095                 0.0749

                     4                      5                      6
                     A                      A                      A
 Frequencies --   116.1719               155.0968               189.1732
 Red. masses --     3.6231                 3.2063                 3.6747
 Frc consts  --     0.0288                 0.0454                 0.0775
 IR Inten    --     0.5159                 1.9035                 0.4778

                     7                      8                      9
                     A                      A                      A
 Frequencies --   222.0639               224.0608               240.9867
 Red. masses --     1.6570                 1.3912                 2.3161
 Frc consts  --     0.0481                 0.0412                 0.0792
 IR Inten    --     0.3013                 0.5145                 0.3476

                    10                     11                     12
                     A                      A                      A
 Frequencies --   260.4033               304.1748               363.3773
 Red. masses --     1.4894                 5.0501                 3.5375
 Frc consts  --     0.0595                 0.2753                 0.2752
 IR Inten    --     0.2512                 1.1242                 0.2321

                    13                     14                     15
                     A                      A                      A
 Frequencies --   387.6183               413.5662               438.9300
 Red. masses --     2.5026                 3.3019                 2.1460
 Frc consts  --     0.2215                 0.3327                 0.2436
 IR Inten    --     0.0198                 0.1655                 0.2500

                    16                     17                     18
                     A                      A                      A
 Frequencies --   486.4661               488.0882               528.1428
 Red. masses --     2.5706                 4.0392                 6.3974
 Frc consts  --     0.3584                 0.5669                 1.0514
 IR Inten    --     9.1093                 0.8193                 0.0023

                    19                     20                     21
                     A                      A                      A
 Frequencies --   542.4703               564.2427               637.9181
 Red. masses --     3.6055                 5.2800                 6.6111
 Frc consts  --     0.6251                 0.9904                 1.5851
 IR Inten    --     0.1640                 5.1537                 4.7999

                    22                     23                     24
                     A                      A                      A
 Frequencies --   653.2709               745.0872               761.8670
 Red. masses --     2.9683                 6.5541                 1.3309
 Frc consts  --     0.7464                 2.1438                 0.4552
 IR Inten    --     0.0051                10.9054                18.6613

                    25                     26                     27
                     A                      A                      A
 Frequencies --   768.2768               783.1839               818.8986
 Red. masses --     2.9954                 4.7309                 1.4280
 Frc consts  --     1.0417                 1.7097                 0.5642
 IR Inten    --     3.6617                 0.5799                27.4535

                    28                     29                     30
                     A                      A                      A
 Frequencies --   846.1511               865.2200               890.4895
 Red. masses --     2.5877                 1.4569                 1.6047
 Frc consts  --     1.0916                 0.6426                 0.7497
 IR Inten    --     2.1312                24.6340                12.8477

                    31                     32                     33
                     A                      A                      A
 Frequencies --   904.5142               939.0747               945.7209
 Red. masses --     4.5407                 1.3421                 1.2676
 Frc consts  --     2.1888                 0.6973                 0.6680
 IR Inten    --     4.9467                 2.3631                 3.5440

                    34                     35                     36
                     A                      A                      A
 Frequencies --   948.4459               956.8971               970.9520
 Red. masses --     1.2842                 1.3531                 2.1092
 Frc consts  --     0.6806                 0.7300                 1.1716
 IR Inten    --     2.0670                 2.5413                 1.5307

                    37                     38                     39
                     A                      A                      A
 Frequencies --   978.3928               985.0597               985.6448
 Red. masses --     1.9120                 1.7547                 1.2972
 Frc consts  --     1.0784                 1.0032                 0.7425
 IR Inten    --     1.1886                 5.8083                 0.6107

                    40                     41                     42
                     A                      A                      A
 Frequencies --  1048.2329              1075.3266              1158.5772
 Red. masses --     2.3423                 3.8580                 1.7413
 Frc consts  --     1.5164                 2.6284                 1.3771
 IR Inten    --     5.6652                90.5113                32.7750

                    43                     44                     45
                     A                      A                      A
 Frequencies --  1163.7054              1186.3382              1192.1526
 Red. masses --     2.1906                 1.2184                 1.2030
 Frc consts  --     1.7478                 1.0103                 1.0073
 IR Inten    --     3.9009                 2.7801                15.8924

                    46                     47                     48
                     A                      A                      A
 Frequencies --  1197.5298              1208.7820              1213.6412
 Red. masses --     1.7515                 1.6052                 1.6938
 Frc consts  --     1.4799                 1.3819                 1.4699
 IR Inten    --     7.5752               116.1809                 0.4724

                    49                     50                     51
                     A                      A                      A
 Frequencies --  1265.6457              1290.2642              1295.3564
 Red. masses --     2.1382                 1.2108                 1.7585
 Frc consts  --     2.0180                 1.1876                 1.7385
 IR Inten    --    60.1518                21.1103                 7.2287

                    52                     53                     54
                     A                      A                      A
 Frequencies --  1311.3211              1345.4435              1391.3149
 Red. masses --     2.8929                 1.3290                 1.6191
 Frc consts  --     2.9309                 1.4175                 1.8466
 IR Inten    --   328.0305                14.9603                15.0372

                    55                     56                     57
                     A                      A                      A
 Frequencies --  1397.1779              1412.0847              1420.0114
 Red. masses --     2.0191                 2.2143                 5.7885
 Frc consts  --     2.3222                 2.6014                 6.8770
 IR Inten    --    13.7867                 7.5681                 0.2665

                    58                     59                     60
                     A                      A                      A
 Frequencies --  1429.8117              1439.1780              1455.2136
 Red. masses --     1.2955                 1.4831                 1.3080
 Frc consts  --     1.5604                 1.8099                 1.6319
 IR Inten    --     5.6094                 0.6156                19.2721

                    61                     62                     63
                     A                      A                      A
 Frequencies --  1489.0203              1518.1370              1521.0922
 Red. masses --     2.6053                 1.3455                 1.3526
 Frc consts  --     3.4033                 1.8271                 1.8438
 IR Inten    --     4.4087                38.7623                24.2436

                    64                     65                     66
                     A                      A                      A
 Frequencies --  1522.3994              1534.5324              1541.0950
 Red. masses --     1.1209                 1.0501                 1.0883
 Frc consts  --     1.5307                 1.4569                 1.5228
 IR Inten    --     6.8797                 6.0156                 2.3407

                    67                     68                     69
                     A                      A                      A
 Frequencies --  1545.4948              1566.7366              1623.1828
 Red. masses --     1.1339                 3.0325                 6.9762
 Frc consts  --     1.5957                 4.3857                10.8293
 IR Inten    --    33.1024                61.5878                 4.0816

                    70                     71                     72
                     A                      A                      A
 Frequencies --  1662.6826              1689.7720              3000.1182
 Red. masses --     5.2247                 6.2269                 1.0555
 Frc consts  --     8.5100                10.4756                 5.5974
 IR Inten    --    65.5239                96.2533                33.0820

                    73                     74                     75
                     A                      A                      A
 Frequencies --  3031.6890              3039.7822              3044.5615
 Red. masses --     1.0878                 1.0377                 1.0533
 Frc consts  --     5.8906                 5.6496                 5.7523
 IR Inten    --     7.2709                24.2197                17.3559

                    76                     77                     78
                     A                      A                      A
 Frequencies --  3049.9874              3101.8894              3107.4934
 Red. masses --     1.0877                 1.1009                 1.1005
 Frc consts  --     5.9614                 6.2407                 6.2612
 IR Inten    --    63.3116                19.2714                55.2024

                    79                     80                     81
                     A                      A                      A
 Frequencies --  3117.8398              3139.7448              3175.3940
 Red. masses --     1.1012                 1.1002                 1.0857
 Frc consts  --     6.3071                 6.3899                 6.4502
 IR Inten    --    43.2577                26.0027                 3.0578

                    82                     83                     84
                     A                      A                      A
 Frequencies --  3180.1923              3183.4369              3194.2433
 Red. masses --     1.0879                 1.0887                 1.0933
 Frc consts  --     6.4827                 6.5009                 6.5726
 IR Inten    --     1.6137                12.8396                34.2747

                    85                     86                     87
                     A                      A                      A
 Frequencies --  3203.1753              3207.5481              3228.8718
 Red. masses --     1.0906                 1.0969                 1.0914
 Frc consts  --     6.5931                 6.6489                 6.7041
 IR Inten    --    13.3525                31.9661                12.8786

 - Thermochemistry -
 -------------------
 Temperature   298.150 Kelvin.  Pressure   1.00000 Atm.
 Atom     1 has atomic number  6 and mass  12.00000

 Molecular mass:   200.12012 amu.
 Principal axes and moments of inertia in atomic units:
                           1         2         3
     Eigenvalues --   886.097937391.052388102.51661
           X            1.00000  -0.00081  -0.00145
           Y            0.00080   0.99999  -0.00478
           Z            0.00145   0.00478   0.99999
 This molecule is an asymmetric top.
 Rotational symmetry number  1.
 Warning -- assumption of classical behavior for rotation
           may cause significant error
 Rotational temperatures (Kelvin)      0.09775     0.01172     0.01069
 Rotational constants (GHZ):           2.03673     0.24418     0.22274
 Zero-point vibrational energy     697377.0 (Joules/Mol)
                                  166.67710 (Kcal/Mol)
 Warning -- explicit consideration of  20 degrees of freedom as
           vibrations may cause significant error
 Vibrational temperatures:     42.30    70.66   124.46   167.15   223.15
          (Kelvin)            272.18   319.50   322.37   346.73   374.66
                              437.64   522.82   557.70   595.03   631.52
                              699.92   702.25   759.88   780.49   811.82
                              917.82   939.91  1072.01  1096.16  1105.38
                             1126.83  1178.21  1217.42  1244.86  1281.21
                             1301.39  1351.12  1360.68  1364.60  1376.76
                             1396.98  1407.69  1417.28  1418.12  1508.17
                             1547.15  1666.93  1674.31  1706.87  1715.24
                             1722.98  1739.17  1746.16  1820.98  1856.40
                             1863.73  1886.70  1935.79  2001.79  2010.22
                             2031.67  2043.08  2057.18  2070.65  2093.73
                             2142.37  2184.26  2188.51  2190.39  2207.85
                             2217.29  2223.62  2254.18  2335.40  2392.23
                             2431.20  4316.50  4361.92  4373.56  4380.44
                             4388.25  4462.92  4470.98  4485.87  4517.39
                             4568.68  4575.58  4580.25  4595.80  4608.65
                             4614.94  4645.62

 Zero-point correction=                           0.265617 (Hartree/Particle)
 Thermal correction to Energy=                    0.279172
 Thermal correction to Enthalpy=                  0.280116
 Thermal correction to Gibbs Free Energy=         0.224807
 Sum of electronic and zero-point Energies=           -618.096178
 Sum of electronic and thermal Energies=              -618.082623
 Sum of electronic and thermal Enthalpies=            -618.081679
 Sum of electronic and thermal Free Energies=         -618.136989

                     E (Thermal)             CV                S
                      KCal/Mol        Cal/Mol-Kelvin    Cal/Mol-Kelvin
 Total                  175.183             53.294            116.408
 Electronic               0.000              0.000              0.000
 Translational            0.889              2.981             41.786
 Rotational               0.889              2.981             32.340
 Vibrational            173.406             47.333             42.282
 Vibration     1          0.593              1.984              5.870
 Vibration     2          0.595              1.978              4.853
 Vibration     3          0.601              1.959              3.738
 Vibration     4          0.608              1.936              3.163
 Vibration     5          0.620              1.897              2.609
 Vibration     6          0.633              1.855              2.236
 Vibration     7          0.648              1.807              1.942
 Vibration     8          0.649              1.804              1.926
 Vibration     9          0.658              1.778              1.796
 Vibration    10          0.668              1.745              1.659
 Vibration    11          0.695              1.666              1.394
 Vibration    12          0.737              1.548              1.108
 Vibration    13          0.756              1.497              1.009
 Vibration    14          0.777              1.441              0.914
 Vibration    15          0.799              1.385              0.830
 Vibration    16          0.842              1.280              0.693
 Vibration    17          0.844              1.276              0.689
 Vibration    18          0.883              1.188              0.591
 Vibration    19          0.898              1.156              0.560
 Vibration    20          0.920              1.109              0.515

 Optimization completed.
    -- Stationary point found.
 Normal termination of Gaussian 09 at Thu Sep 30 08:31:04 2021.
 Gaussian 09:  AM64L-G09RevA.02 11-Jun-2009

 ----------------------------------------------------------------------
 #p TD(NStates=10, Root=1) b3lyp/6-31G* volume pop=NPA density=current
 Geom=AllCheck Guess=Read
 ----------------------------------------------------------------------

 CC(COc1ccc2c(c1)cccc2)C_conf_0
 ------------------------------
 Redundant internal coordinates taken from checkpoint file:
 C14H16O_c4e7_conf_0.chk
 Charge =  0 Multiplicity = 1

                         Standard orientation:
 ---------------------------------------------------------------------
 Center     Atomic      Atomic             Coordinates (Angstroms)
 Number     Number       Type             X           Y           Z
 ---------------------------------------------------------------------
      1          6           0       -5.217433    0.696457   -0.330996
      2          6           0       -4.040751   -0.288192   -0.274233
      3          6           0       -2.727902    0.483134   -0.133354
      4          8           0       -1.650089   -0.446859   -0.216211
      5          6           0       -0.364477    0.002665   -0.107041
      6          6           0       -0.021133    1.367712    0.082946
      7          6           0        1.303633    1.735342    0.179246
      8          6           0        2.348093    0.781642    0.093368
      9          6           0        1.995917   -0.596051   -0.098069
     10          6           0        0.631289   -0.953940   -0.194258
     11          6           0        3.041497   -1.558654   -0.185479
     12          6           0        4.360009   -1.178771   -0.089217
     13          6           0        4.706249    0.183720    0.100049
     14          6           0        3.720355    1.139088    0.188967
     15          6           0       -4.215340   -1.314597    0.852503
     16          1           0       -5.113666    1.407175   -1.159775
     17          1           0       -5.296124    1.273815    0.599383
     18          1           0       -6.163443    0.161079   -0.466787
     19          1           0       -3.991288   -0.827538   -1.230559
     20          1           0       -2.698527    1.010998    0.832591
     21          1           0       -2.637021    1.233010   -0.932879
     22          1           0       -0.793570    2.124791    0.152375
     23          1           0        1.559983    2.782263    0.324805
     24          1           0        0.347761   -1.992316   -0.340185
     25          1           0        2.778274   -2.603723   -0.330894
     26          1           0        5.146087   -1.926238   -0.158394
     27          1           0        5.752343    0.467959    0.174361
     28          1           0        3.977935    2.185941    0.334423
     29          1           0       -4.285304   -0.815211    1.827999
     30          1           0       -3.369968   -2.007490    0.886843
     31          1           0       -5.132803   -1.896962    0.709788
 ---------------------------------------------------------------------

 SCF Done:  E(RB3LYP) =  -618.361795293     A.U. after    2 cycles

 Excitation energies and oscillator strengths:

 Excited State   1:      Singlet-A      4.0778 eV  304.04 nm  f=0.0565  <S**2>=0.000
      53 -> 55         0.13354
      53 -> 56         0.15497
      54 -> 55         0.65746
      54 -> 56        -0.14891
 This state for optimization and/or second-order correction.
 Total Energy, E(TD-HF/TD-KS) =  -618.211937765
 Copying the excited state density for this state as the 1-particle RhoCI density.

 Excited State   2:      Singlet-A      4.5182 eV  274.41 nm  f=0.0089  <S**2>=0.000
      53 -> 55         0.50525
      54 -> 55        -0.20545
      54 -> 56        -0.44204

 Excited State   3:      Singlet-A      5.5464 eV  223.54 nm  f=0.2730  <S**2>=0.000
      52 -> 55         0.43722
      53 -> 55         0.26995
      54 -> 56         0.26481
      54 -> 57        -0.39752

 Excited State   4:      Singlet-A      5.8086 eV  213.45 nm  f=0.9804  <S**2>=0.000
      52 -> 55        -0.12610
      53 -> 55         0.35617
      53 -> 56         0.13367
      54 -> 56         0.42328
      54 -> 57         0.37425

 Excited State   5:      Singlet-A      5.9268 eV  209.19 nm  f=0.0583  <S**2>=0.000
      51 -> 55         0.17921
      52 -> 55        -0.25184
      52 -> 56         0.19559
      53 -> 56         0.47458
      53 -> 57        -0.17017
      54 -> 57        -0.28702

 Excited State   6:      Singlet-A      6.2574 eV  198.14 nm  f=0.2554  <S**2>=0.000
      52 -> 55         0.33311
      52 -> 56        -0.15069
      53 -> 55        -0.13175
      53 -> 56         0.42530
      53 -> 57         0.29045
      54 -> 56        -0.10444
      54 -> 57         0.19840

 Excited State   7:      Singlet-A      6.5046 eV  190.61 nm  f=0.1163  <S**2>=0.000
      51 -> 55         0.28891
      52 -> 55        -0.29318
      52 -> 56        -0.19901
      53 -> 56        -0.10462
      53 -> 57         0.48146
      54 -> 56         0.10398
      54 -> 57        -0.14837

 Excited State   8:      Singlet-A      6.6793 eV  185.62 nm  f=0.0323  <S**2>=0.000
      50 -> 55        -0.18513
      51 -> 55         0.51251
      52 -> 55         0.14073
      52 -> 56         0.30036
      53 -> 56        -0.12928
      54 -> 57         0.20936

 Excited State   9:      Singlet-A      6.6922 eV  185.27 nm  f=0.0038  <S**2>=0.000
      48 -> 55         0.20500
      49 -> 55        -0.22198
      50 -> 55         0.59870
      51 -> 55         0.15949

 Excited State  10:      Singlet-A      7.0277 eV  176.42 nm  f=0.0010  <S**2>=0.000
      54 -> 58         0.59629
      54 -> 59        -0.36595

 The electronic state is 1-A.
 Alpha  occ. eigenvalues --  -19.17288 -10.24524 -10.23935 -10.19501 -10.19335
 Alpha  occ. eigenvalues --  -10.19093 -10.18933 -10.18915 -10.18523 -10.18514
 Alpha  occ. eigenvalues --  -10.18294 -10.18287 -10.18113 -10.17796 -10.17254
 Alpha  occ. eigenvalues --   -1.05931  -0.86528  -0.81936  -0.80188  -0.76642
 Alpha  occ. eigenvalues --   -0.73328  -0.72092  -0.68576  -0.67857  -0.62342
 Alpha  occ. eigenvalues --   -0.59868  -0.59134  -0.56810  -0.53099  -0.50931
 Alpha  occ. eigenvalues --   -0.49872  -0.48347  -0.46074  -0.44676  -0.44122
 Alpha  occ. eigenvalues --   -0.43476  -0.42066  -0.41188  -0.40685  -0.39578
 Alpha  occ. eigenvalues --   -0.38699  -0.38383  -0.38125  -0.35466  -0.34972
 Alpha  occ. eigenvalues --   -0.34297  -0.33667  -0.33026  -0.32870  -0.31454
 Alpha  occ. eigenvalues --   -0.29716  -0.27167  -0.22824  -0.19806
 Alpha virt. eigenvalues --   -0.03217   0.00445   0.03942   0.08313   0.09755
 Alpha virt. eigenvalues --    0.11163   0.11525   0.11783   0.12742   0.12952
 Alpha virt. eigenvalues --    0.14339   0.14826   0.16908   0.17074   0.17178

 Mulliken atomic charges:
              1
     1  C   -0.453251
     2  C   -0.100567
     3  C   -0.033086
     4  O   -0.485049
     5  C    0.393959
     6  C   -0.216496
     7  C   -0.220017
     8  C    0.154926
     9  C    0.143380
    10  C   -0.260716
    11  C   -0.207439
    12  C   -0.157906
    13  C   -0.114433
    14  C   -0.218862
    15  C   -0.446534
    16  H    0.146714
    17  H    0.145775
    18  H    0.155498
    19  H    0.144747
    20  H    0.153211
    21  H    0.156198
    22  H    0.121239
    23  H    0.125646
    24  H    0.140864
    25  H    0.116758
    26  H    0.114512
    27  H    0.128033
    28  H    0.119586
    29  H    0.140413
    30  H    0.165800
    31  H    0.147096
 Sum of Mulliken atomic charges =  -0.00000

 Dipole moment (field-independent basis, Debye):
    X=             -3.3467    Y=              0.7083    Z=             -0.0450  Tot=              3.4211
 Quadrupole moment (field-independent basis, Debye-Ang):
   XX=            -80.1944   YY=            -84.8554   ZZ=            -93.0966
   XY=             -0.4083   XZ=              0.8488   YZ=              1.0516

 Summary of Natural Population Analysis:

                                       Natural Population
                Natural  -----------------------------------------------
    Atom  No    Charge         Core      Valence    Rydberg      Total
 -----------------------------------------------------------------------
      C    1   -0.67920      1.99942     4.67097    0.00880     6.67920
      C    2   -0.27353      1.99924     4.26171    0.01259     6.27353
      C    3   -0.10792      1.99917     4.09136    0.01739     6.10792
      O    4   -0.46126      1.99973     6.44958    0.01195     8.46126
      C    5    0.36995      1.99880     3.60898    0.02228     5.63005
      C    6   -0.38351      1.99905     4.36973    0.01473     6.38351
      C    7   -0.20799      1.99907     4.19270    0.01622     6.20799
      C    8   -0.04692      1.99902     4.03288    0.01501     6.04692
      C    9   -0.05685      1.99903     4.04255    0.01527     6.05685
      C   10   -0.23251      1.99900     4.21752    0.01599     6.23251
      C   11   -0.23328      1.99906     4.21866    0.01556     6.23328
      C   12   -0.29351      1.99912     4.27817    0.01622     6.29351
      C   13   -0.17306      1.99910     4.15934    0.01462     6.17306
      C   14   -0.25667      1.99906     4.24207    0.01553     6.25667
      C   15   -0.68082      1.99943     4.67189    0.00951     6.68082
      H   16    0.23263      0.00000     0.76647    0.00090     0.76737
      H   17    0.22720      0.00000     0.77158    0.00122     0.77280
      H   18    0.24090      0.00000     0.75834    0.00076     0.75910
      H   19    0.24776      0.00000     0.74979    0.00244     0.75224
      H   20    0.21918      0.00000     0.77822    0.00260     0.78082
      H   21    0.22500      0.00000     0.77277    0.00223     0.77500
      H   22    0.23245      0.00000     0.76674    0.00081     0.76755
      H   23    0.23158      0.00000     0.76728    0.00114     0.76842
      H   24    0.24164      0.00000     0.75669    0.00167     0.75836
      H   25    0.22598      0.00000     0.77288    0.00114     0.77402
      H   26    0.23029      0.00000     0.76890    0.00081     0.76971
      H   27    0.23161      0.00000     0.76752    0.00087     0.76839
      H   28    0.22764      0.00000     0.77122    0.00114     0.77236
      H   29    0.22422      0.00000     0.77459    0.00119     0.77578
      H   30    0.24438      0.00000     0.75440    0.00122     0.75562
      H   31    0.23463      0.00000     0.76460    0.00078     0.76537
 =======================================================================
   * Total *   -0.00000     29.98731    77.77009    0.24260   108.00000

 Normal termination of Gaussian 09 at Thu Sep 30 13:17:28 2021.
