 Gaussian 09, Revision A.02,

 -----------------------------------
 #p opt b3lyp/6-31G* scf=(xqc,tight)
 -----------------------------------

 --------------------------------
 COc1ccc2c(c1)ccc(c2)C1CC1_conf_0
 --------------------------------
 Symbolic Z-matrix:
 Charge =  0 Multiplicity = 1

 SCF Done:  E(RB3LYP) =  -617.110933239     A.U. after   14 cycles
 SCF Done:  E(RB3LYP) =  -617.115221213     A.U. after   12 cycles
 SCF Done:  E(RB3LYP) =  -617.115525932     A.U. after   11 cycles
 SCF Done:  E(RB3LYP) =  -617.115598645     A.U. after   10 cycles
 SCF Done:  E(RB3LYP) =  -617.115679583     A.U. after   11 cycles
 SCF Done:  E(RB3LYP) =  -617.115799329     A.U. after   12 cycles
 SCF Done:  E(RB3LYP) =  -617.115903945     A.U. after   13 cycles
 SCF Done:  E(RB3LYP) =  -617.115968890     A.U. after   11 cycles
 SCF Done:  E(RB3LYP) =  -617.115992128     A.U. after   11 cycles
 SCF Done:  E(RB3LYP) =  -617.115998163     A.U. after   11 cycles
 SCF Done:  E(RB3LYP) =  -617.115999002     A.U. after    7 cycles
 SCF Done:  E(RB3LYP) =  -617.115999306     A.U. after    7 cycles
 SCF Done:  E(RB3LYP) =  -617.115999331     A.U. after    7 cycles
 Optimization completed.
    -- Stationary point found.
 Normal termination of Gaussian 09 at Tue Sep 28 19:53:24 2021.

 ----------------------------------------------------------------------
 #p freq b3lyp/6-31G* volume NMR pop=NPA density=current Geom=AllCheck
 Guess=Read
 ----------------------------------------------------------------------

 COc1ccc2c(c1)ccc(c2)C1CC1_conf_0
 --------------------------------
 Redundant internal coordinates taken from checkpoint file:
 C14H14O_bfed_conf_0.chk
 Charge =  0 Multiplicity = 1

 SCF Done:  E(RB3LYP) =  -617.115999331     A.U. after    1 cycles

  1  C    Isotropic =   137.3740   Anisotropy =    65.3797

  2  O    Isotropic =   235.6967   Anisotropy =    79.7166

  3  C    Isotropic =    40.4857   Anisotropy =   122.4851

  4  C    Isotropic =    76.7192   Anisotropy =   134.2851

  5  C    Isotropic =    66.5250   Anisotropy =   142.1217

  6  C    Isotropic =    67.8072   Anisotropy =   188.6767

  7  C    Isotropic =    63.1327   Anisotropy =   192.3910

  8  C    Isotropic =    90.0599   Anisotropy =   118.3466

  9  C    Isotropic =    69.2312   Anisotropy =   138.5480

 10  C    Isotropic =    66.3283   Anisotropy =   151.6702

 11  C    Isotropic =    58.4681   Anisotropy =   171.4469

 12  C    Isotropic =    68.9930   Anisotropy =   133.8043

 13  C    Isotropic =   171.0734   Anisotropy =    61.7160

 14  C    Isotropic =   184.4104   Anisotropy =    45.0097

 15  C    Isotropic =   179.5781   Anisotropy =    46.3984

 16  H    Isotropic =    28.2275   Anisotropy =     8.2773

 17  H    Isotropic =    28.5375   Anisotropy =     7.9980

 18  H    Isotropic =    28.5338   Anisotropy =     7.9709

 19  H    Isotropic =    25.2638   Anisotropy =     6.2964

 20  H    Isotropic =    24.7599   Anisotropy =     7.4785

 21  H    Isotropic =    25.6760   Anisotropy =     9.3746

 22  H    Isotropic =    24.7784   Anisotropy =     7.5974

 23  H    Isotropic =    24.7254   Anisotropy =     8.5720

 24  H    Isotropic =    24.9632   Anisotropy =    11.2360

 25  H    Isotropic =    30.0152   Anisotropy =    12.3058

 26  H    Isotropic =    31.4224   Anisotropy =    14.1270

 27  H    Isotropic =    31.1717   Anisotropy =    11.4684

 28  H    Isotropic =    31.2972   Anisotropy =    14.1327

 29  H    Isotropic =    31.8042   Anisotropy =     9.5019

  Exact polarizability: 243.132   8.389 147.341   5.305  -0.762  70.642
 Approx polarizability: 348.618  27.698 261.916  13.198  -0.074 107.924

                     1                      2                      3
                     A                      A                      A
 Frequencies --    25.4483                51.7471               103.0395
 Red. masses --     2.6459                 4.0487                 3.5632
 Frc consts  --     0.0010                 0.0064                 0.0223
 IR Inten    --     0.0971                 1.0048                 2.0486

                     4                      5                      6
                     A                      A                      A
 Frequencies --   133.5678               158.6787               188.4299
 Red. masses --     3.2246                 3.7680                 3.4934
 Frc consts  --     0.0339                 0.0559                 0.0731
 IR Inten    --     0.8766                 0.7285                 1.5216

                     7                      8                      9
                     A                      A                      A
 Frequencies --   203.1620               240.2327               288.4317
 Red. masses --     3.3308                 1.3570                 2.7619
 Frc consts  --     0.0810                 0.0461                 0.1354
 IR Inten    --     1.2652                 0.0908                 0.9151

                    10                     11                     12
                     A                      A                      A
 Frequencies --   338.5937               368.0141               411.6379
 Red. masses --     3.7135                 5.1402                 3.4205
 Frc consts  --     0.2508                 0.4102                 0.3415
 IR Inten    --     2.5844                 2.0270                 0.0490

                    13                     14                     15
                     A                      A                      A
 Frequencies --   438.2107               467.4992               491.3309
 Red. masses --     4.1774                 3.4202                 2.6728
 Frc consts  --     0.4726                 0.4404                 0.3802
 IR Inten    --     1.1674                 2.7757                 6.2473

                    16                     17                     18
                     A                      A                      A
 Frequencies --   509.3244               533.4627               570.2332
 Red. masses --     3.8484                 6.2382                 3.9926
 Frc consts  --     0.5882                 1.0460                 0.7649
 IR Inten    --     0.2427                 0.3919                 8.7427

                    19                     20                     21
                     A                      A                      A
 Frequencies --   603.5320               670.0940               683.0208
 Red. masses --     2.8974                 5.4260                 3.6255
 Frc consts  --     0.6218                 1.4355                 0.9965
 IR Inten    --     4.6251                 1.8565                 2.3213

                    22                     23                     24
                     A                      A                      A
 Frequencies --   754.3683               768.3952               797.0166
 Red. masses --     4.5695                 2.8568                 1.2342
 Frc consts  --     1.5321                 0.9938                 0.4619
 IR Inten    --     3.4677                 0.4783                 0.4920

                    25                     26                     27
                     A                      A                      A
 Frequencies --   817.7103               828.2346               835.8283
 Red. masses --     1.5722                 1.3705                 1.6803
 Frc consts  --     0.6194                 0.5539                 0.6916
 IR Inten    --     1.9909                17.3655                 5.8583

                    28                     29                     30
                     A                      A                      A
 Frequencies --   838.1905               871.9374               902.7842
 Red. masses --     1.7568                 1.6539                 2.5575
 Frc consts  --     0.7272                 0.7409                 1.2281
 IR Inten    --     2.0601                39.9461                 4.8429

                    31                     32                     33
                     A                      A                      A
 Frequencies --   918.0556               942.8895               961.5311
 Red. masses --     1.8649                 3.4964                 2.8860
 Frc consts  --     0.9261                 1.8315                 1.5720
 IR Inten    --    17.9194                 2.9219                21.1085

                    34                     35                     36
                     A                      A                      A
 Frequencies --   964.2517               967.5444               984.4755
 Red. masses --     1.3256                 1.4410                 3.3218
 Frc consts  --     0.7262                 0.7948                 1.8968
 IR Inten    --     1.7283                 3.4698                 2.6076

                    37                     38                     39
                     A                      A                      A
 Frequencies --  1065.7858              1075.1419              1088.4052
 Red. masses --     1.3135                 4.3708                 1.3791
 Frc consts  --     0.8791                 2.9768                 0.9625
 IR Inten    --     4.8038                43.5568                 2.1708

                    40                     41                     42
                     A                      A                      A
 Frequencies --  1096.6418              1138.0404              1153.8089
 Red. masses --     1.6160                 1.1173                 1.4623
 Frc consts  --     1.1451                 0.8526                 1.1470
 IR Inten    --     8.0028                 1.4757                15.3645

                    43                     44                     45
                     A                      A                      A
 Frequencies --  1179.8799              1186.0579              1192.3762
 Red. masses --     1.5583                 1.2731                 1.5463
 Frc consts  --     1.2781                 1.0552                 1.2953
 IR Inten    --     3.7355                 0.7961                 2.3463

                    46                     47                     48
                     A                      A                      A
 Frequencies --  1206.3858              1211.5166              1230.5893
 Red. masses --     1.5484                 1.3920                 1.6890
 Frc consts  --     1.3277                 1.2038                 1.5069
 IR Inten    --    31.2972                 1.4575                 5.3464

                    49                     50                     51
                     A                      A                      A
 Frequencies --  1244.8060              1262.5591              1300.9698
 Red. masses --     1.7590                 2.0559                 1.8533
 Frc consts  --     1.6059                 1.9309                 1.8482
 IR Inten    --    28.6456               140.7748                 7.6037

                    52                     53                     54
                     A                      A                      A
 Frequencies --  1304.3772              1375.3932              1409.5929
 Red. masses --     2.3663                 1.9141                 2.0835
 Frc consts  --     2.3721                 2.1334                 2.4391
 IR Inten    --   141.2707                 2.4463                31.5647

                    55                     56                     57
                     A                      A                      A
 Frequencies --  1419.8118              1441.0509              1455.8758
 Red. masses --     4.0737                 3.5742                 4.2585
 Frc consts  --     4.8383                 4.3730                 5.3181
 IR Inten    --    10.4262                54.3751                 8.6694

                    58                     59                     60
                     A                      A                      A
 Frequencies --  1493.8464              1496.5766              1518.9057
 Red. masses --     1.0917                 1.2592                 1.0486
 Frc consts  --     1.4354                 1.6617                 1.4253
 IR Inten    --     2.2453                14.2918                 5.6997

                    61                     62                     63
                     A                      A                      A
 Frequencies --  1532.1828              1533.5475              1540.7486
 Red. masses --     1.3297                 1.1597                 2.2300
 Frc consts  --     1.8392                 1.6069                 3.1190
 IR Inten    --     7.3569                54.4352                12.6251

                    64                     65                     66
                     A                      A                      A
 Frequencies --  1554.9733              1626.9057              1667.7712
 Red. masses --     3.1692                 7.1088                 5.5608
 Frc consts  --     4.5148                11.0859                 9.1130
 IR Inten    --    20.7548                 2.7034               122.6484

                    67                     68                     69
                     A                      A                      A
 Frequencies --  1688.6629              3024.6166              3082.9167
 Red. masses --     6.1628                 1.0347                 1.1066
 Frc consts  --    10.3541                 5.5771                 6.1966
 IR Inten    --    41.1818                54.4656                43.6904

                    70                     71                     72
                     A                      A                      A
 Frequencies --  3128.3599              3145.8555              3151.3941
 Red. masses --     1.0865                 1.0511                 1.0591
 Frc consts  --     6.2648                 6.1289                 6.1974
 IR Inten    --    16.9183                20.2653                12.4099

                    73                     74                     75
                     A                      A                      A
 Frequencies --  3157.2436              3172.6490              3182.6413
 Red. masses --     1.0998                 1.0862                 1.0889
 Frc consts  --     6.4590                 6.4415                 6.4987
 IR Inten    --    31.2051                 8.0554                 0.6147

                    76                     77                     78
                     A                      A                      A
 Frequencies --  3186.3226              3191.7735              3215.2747
 Red. masses --     1.0889                 1.0948                 1.0893
 Frc consts  --     6.5138                 6.5715                 6.6349
 IR Inten    --    30.1607                23.0754                14.3867

                    79                     80                     81
                     A                      A                      A
 Frequencies --  3215.9908              3221.2228              3234.9080
 Red. masses --     1.0937                 1.1196                 1.1163
 Frc consts  --     6.6646                 6.8449                 6.8829
 IR Inten    --    10.8523                 0.3504                30.0110

 - Thermochemistry -
 -------------------
 Temperature   298.150 Kelvin.  Pressure   1.00000 Atm.
 Atom     1 has atomic number  6 and mass  12.00000

 Molecular mass:   198.10447 amu.
 Principal axes and moments of inertia in atomic units:
                           1         2         3
     Eigenvalues --   929.351126378.112757149.97055
           X            0.99995  -0.01038  -0.00092
           Y            0.01038   0.99994  -0.00352
           Z            0.00095   0.00351   0.99999
 This molecule is an asymmetric top.
 Rotational symmetry number  1.
 Warning -- assumption of classical behavior for rotation
           may cause significant error
 Rotational temperatures (Kelvin)      0.09320     0.01358     0.01211
 Rotational constants (GHZ):           1.94194     0.28296     0.25241
 Zero-point vibrational energy     637820.5 (Joules/Mol)
                                  152.44276 (Kcal/Mol)
 Warning -- explicit consideration of  19 degrees of freedom as
           vibrations may cause significant error
 Vibrational temperatures:     36.61    74.45   148.25   192.17   228.30
          (Kelvin)            271.11   292.30   345.64   414.99   487.16
                              529.49   592.25   630.49   672.63   706.91
                              732.80   767.53   820.44   868.35   964.11
                              982.71  1085.37  1105.55  1146.73  1176.50
                             1191.64  1202.57  1205.97  1254.52  1298.90
                             1320.88  1356.61  1383.43  1387.34  1392.08
                             1416.44  1533.43  1546.89  1565.97  1577.82
                             1637.38  1660.07  1697.58  1706.47  1715.56
                             1735.72  1743.10  1770.54  1791.00  1816.54
                             1871.80  1876.71  1978.88  2028.09  2042.79
                             2073.35  2094.68  2149.31  2153.24  2185.36
                             2204.47  2206.43  2216.79  2237.26  2340.75
                             2399.55  2429.61  4351.74  4435.62  4501.01
                             4526.18  4534.15  4542.56  4564.73  4579.11
                             4584.40  4592.24  4626.06  4627.09  4634.62
                             4654.31

 Zero-point correction=                           0.242933 (Hartree/Particle)
 Thermal correction to Energy=                    0.255638
 Thermal correction to Enthalpy=                  0.256582
 Thermal correction to Gibbs Free Energy=         0.202943
 Sum of electronic and zero-point Energies=           -616.873066
 Sum of electronic and thermal Energies=              -616.860362
 Sum of electronic and thermal Enthalpies=            -616.859418
 Sum of electronic and thermal Free Energies=         -616.913057

                     E (Thermal)             CV                S
                      KCal/Mol        Cal/Mol-Kelvin    Cal/Mol-Kelvin
 Total                  160.415             50.428            112.893
 Electronic               0.000              0.000              0.000
 Translational            0.889              2.981             41.756
 Rotational               0.889              2.981             32.116
 Vibrational            158.638             44.467             39.021
 Vibration     1          0.593              1.985              6.156
 Vibration     2          0.596              1.977              4.749
 Vibration     3          0.605              1.947              3.396
 Vibration     4          0.613              1.920              2.894
 Vibration     5          0.621              1.893              2.565
 Vibration     6          0.633              1.856              2.243
 Vibration     7          0.639              1.835              2.104
 Vibration     8          0.657              1.779              1.801
 Vibration     9          0.685              1.695              1.483
 Vibration    10          0.719              1.598              1.219
 Vibration    11          0.741              1.538              1.088
 Vibration    12          0.776              1.445              0.921
 Vibration    13          0.798              1.387              0.832
 Vibration    14          0.825              1.322              0.745
 Vibration    15          0.847              1.269              0.680
 Vibration    16          0.864              1.229              0.635
 Vibration    17          0.888              1.176              0.580
 Vibration    18          0.926              1.096              0.504
 Vibration    19          0.962              1.024              0.444

 Optimization completed.
    -- Stationary point found.
 Normal termination of Gaussian 09 at Tue Sep 28 20:56:47 2021.
 Gaussian 09:  AM64L-G09RevA.02 11-Jun-2009

 ----------------------------------------------------------------------
 #p TD(NStates=10, Root=1) b3lyp/6-31G* volume pop=NPA density=current
 Geom=AllCheck Guess=Read
 ----------------------------------------------------------------------

 COc1ccc2c(c1)ccc(c2)C1CC1_conf_0
 --------------------------------
 Redundant internal coordinates taken from checkpoint file:
 C14H14O_bfed_conf_0.chk
 Charge =  0 Multiplicity = 1

                         Standard orientation:
 ---------------------------------------------------------------------
 Center     Atomic      Atomic             Coordinates (Angstroms)
 Number     Number       Type             X           Y           Z
 ---------------------------------------------------------------------
      1          6           0        4.854933   -0.893000    0.198307
      2          8           0        4.199751    0.363341    0.146117
      3          6           0        2.837629    0.371319    0.052465
      4          6           0        2.257238    1.668754   -0.000047
      5          6           0        0.897013    1.815432   -0.094792
      6          6           0        0.034469    0.684541   -0.142249
      7          6           0        0.622412   -0.617865   -0.090977
      8          6           0        2.034795   -0.751429    0.007684
      9          6           0       -0.242293   -1.744528   -0.142673
     10          6           0       -1.605458   -1.587273   -0.234384
     11          6           0       -2.203054   -0.296284   -0.283422
     12          6           0       -1.375743    0.808707   -0.242705
     13          6           0       -3.692927   -0.188982   -0.399821
     14          6           0       -4.464847    0.988814    0.139816
     15          6           0       -4.584162   -0.353293    0.817642
     16          1           0        5.921825   -0.673495    0.269965
     17          1           0        4.664626   -1.483723   -0.707751
     18          1           0        4.542858   -1.473587    1.076772
     19          1           0        2.921847    2.526305    0.037042
     20          1           0        0.460339    2.810634   -0.134655
     21          1           0        2.457183   -1.749773    0.045700
     22          1           0        0.191593   -2.741415   -0.105098
     23          1           0       -2.250025   -2.462789   -0.265059
     24          1           0       -1.803802    1.806902   -0.296063
     25          1           0       -4.095114   -0.628363   -1.313150
     26          1           0       -5.307998    1.356363   -0.438550
     27          1           0       -3.916086    1.765838    0.664296
     28          1           0       -5.508068   -0.914744    0.707123
     29          1           0       -4.097214   -0.474361    1.781431
 ---------------------------------------------------------------------

 SCF Done:  E(RB3LYP) =  -617.115999331     A.U. after    1 cycles

 Excitation energies and oscillator strengths:

 Excited State   1:      Singlet-A      4.1484 eV  298.87 nm  f=0.0387  <S**2>=0.000
      52 -> 54         0.16598
      52 -> 55         0.19941
      53 -> 54         0.62696
      53 -> 55        -0.19115
 This state for optimization and/or second-order correction.
 Total Energy, E(TD-HF/TD-KS) =  -616.963546722
 Copying the excited state density for this state as the 1-particle RhoCI density.

 Excited State   2:      Singlet-A      4.5673 eV  271.46 nm  f=0.0102  <S**2>=0.000
      52 -> 54         0.49153
      53 -> 54        -0.26232
      53 -> 55        -0.42894

 Excited State   3:      Singlet-A      5.5911 eV  221.75 nm  f=0.9641  <S**2>=0.000
      51 -> 54         0.22379
      52 -> 54         0.38729
      52 -> 55         0.14340
      53 -> 55         0.45211
      53 -> 56        -0.23688

 Excited State   4:      Singlet-A      5.6902 eV  217.89 nm  f=0.1864  <S**2>=0.000
      51 -> 54         0.47880
      52 -> 54        -0.10074
      52 -> 55        -0.33962
      53 -> 55        -0.19386
      53 -> 56        -0.28516

 Excited State   5:      Singlet-A      5.8247 eV  212.86 nm  f=0.4148  <S**2>=0.000
      51 -> 55         0.15061
      52 -> 54        -0.22633
      52 -> 55         0.41279
      53 -> 54        -0.12656
      53 -> 55        -0.16177
      53 -> 56        -0.40904

 Excited State   6:      Singlet-A      5.9974 eV  206.73 nm  f=0.1172  <S**2>=0.000
      50 -> 54        -0.17240
      50 -> 55        -0.12139
      51 -> 54         0.38149
      51 -> 55        -0.16235
      52 -> 55         0.35138
      52 -> 56         0.16079
      53 -> 56         0.30686

 Excited State   7:      Singlet-A      6.2553 eV  198.21 nm  f=0.0162  <S**2>=0.000
      49 -> 54        -0.15448
      50 -> 54         0.47723
      51 -> 54        -0.11384
      51 -> 55        -0.17050
      52 -> 56         0.43229

 Excited State   8:      Singlet-A      6.3729 eV  194.55 nm  f=0.0072  <S**2>=0.000
      49 -> 54         0.63458
      51 -> 54        -0.12469
      52 -> 56         0.25231

 Excited State   9:      Singlet-A      6.5656 eV  188.84 nm  f=0.0024  <S**2>=0.000
      49 -> 54         0.10996
      50 -> 54         0.34513
      51 -> 54         0.15939
      51 -> 55         0.49603
      52 -> 56        -0.10712
      53 -> 56         0.26312

 Excited State  10:      Singlet-A      6.8129 eV  181.98 nm  f=0.0255  <S**2>=0.000
      47 -> 54         0.23676
      48 -> 54         0.45344
      49 -> 54        -0.15936
      50 -> 54        -0.17885
      50 -> 55        -0.10884
      51 -> 55         0.22640
      52 -> 56         0.25533

 The electronic state is 1-A.
 Alpha  occ. eigenvalues --  -19.17702 -10.24461 -10.23995 -10.19289 -10.19265
 Alpha  occ. eigenvalues --  -10.18871 -10.18839 -10.18789 -10.18453 -10.18451
 Alpha  occ. eigenvalues --  -10.18424 -10.18306 -10.18217 -10.18156 -10.18081
 Alpha  occ. eigenvalues --   -1.06265  -0.86919  -0.85210  -0.80967  -0.76516
 Alpha  occ. eigenvalues --   -0.74643  -0.71431  -0.69810  -0.62480  -0.61441
 Alpha  occ. eigenvalues --   -0.59865  -0.58706  -0.56635  -0.52475  -0.50890
 Alpha  occ. eigenvalues --   -0.50441  -0.48013  -0.46704  -0.46121  -0.45323
 Alpha  occ. eigenvalues --   -0.44302  -0.42635  -0.41576  -0.40208  -0.38699
 Alpha  occ. eigenvalues --   -0.38338  -0.36915  -0.36258  -0.35129  -0.34460
 Alpha  occ. eigenvalues --   -0.33272  -0.32078  -0.30628  -0.28843  -0.28548
 Alpha  occ. eigenvalues --   -0.26524  -0.22253  -0.19953
 Alpha virt. eigenvalues --   -0.02757   0.00103   0.04061   0.09311   0.09853
 Alpha virt. eigenvalues --    0.10668   0.11475   0.11937   0.12759   0.13042
 Alpha virt. eigenvalues --    0.14265   0.15461   0.15601   0.15847   0.16824

 Mulliken atomic charges:
              1
     1  C   -0.225060
     2  O   -0.467984
     3  C    0.379935
     4  C   -0.199345
     5  C   -0.211227
     6  C    0.156003
     7  C    0.138960
     8  C   -0.272191
     9  C   -0.208874
    10  C   -0.203841
    11  C    0.181909
    12  C   -0.284235
    13  C   -0.194204
    14  C   -0.314142
    15  C   -0.295607
    16  H    0.177828
    17  H    0.166751
    18  H    0.166577
    19  H    0.123919
    20  H    0.121475
    21  H    0.131071
    22  H    0.113398
    23  H    0.109592
    24  H    0.121349
    25  H    0.161564
    26  H    0.151313
    27  H    0.158402
    28  H    0.152778
    29  H    0.163887
 Sum of Mulliken atomic charges =  -0.00000

 Dipole moment (field-independent basis, Debye):
    X=              0.9940    Y=             -1.4328    Z=              0.1774  Tot=              1.7529
 Quadrupole moment (field-independent basis, Debye-Ang):
   XX=            -67.8881   YY=            -83.5453   ZZ=            -90.9448
   XY=             -8.0231   XZ=              1.8234   YZ=             -0.2295

 Summary of Natural Population Analysis:

                                       Natural Population
                Natural  -----------------------------------------------
    Atom  No    Charge         Core      Valence    Rydberg      Total
 -----------------------------------------------------------------------
      C    1   -0.32421      1.99943     4.31061    0.01417     6.32421
      O    2   -0.46030      1.99975     6.44878    0.01177     8.46030
      C    3    0.36721      1.99880     3.61137    0.02263     5.63279
      C    4   -0.34234      1.99905     4.32582    0.01747     6.34234
      C    5   -0.22352      1.99907     4.20914    0.01531     6.22352
      C    6   -0.04376      1.99903     4.02939    0.01535     6.04376
      C    7   -0.04421      1.99903     4.02949    0.01569     6.04421
      C    8   -0.29143      1.99899     4.27937    0.01307     6.29143
      C    9   -0.22787      1.99907     4.21338    0.01543     6.22787
      C   10   -0.28757      1.99906     4.27313    0.01538     6.28757
      C   11    0.02196      1.99901     3.96138    0.01764     5.97804
      C   12   -0.23388      1.99900     4.22094    0.01394     6.23388
      C   13   -0.27683      1.99915     4.26279    0.01489     6.27683
      C   14   -0.45574      1.99930     4.44451    0.01193     6.45574
      C   15   -0.43756      1.99929     4.42685    0.01142     6.43756
      H   16    0.23221      0.00000     0.76727    0.00051     0.76779
      H   17    0.21260      0.00000     0.78567    0.00173     0.78740
      H   18    0.21245      0.00000     0.78582    0.00173     0.78755
      H   19    0.24066      0.00000     0.75829    0.00105     0.75934
      H   20    0.23097      0.00000     0.76797    0.00106     0.76903
      H   21    0.23215      0.00000     0.76665    0.00121     0.76785
      H   22    0.22512      0.00000     0.77374    0.00114     0.77488
      H   23    0.22914      0.00000     0.76992    0.00094     0.77086
      H   24    0.22874      0.00000     0.76998    0.00127     0.77126
      H   25    0.26092      0.00000     0.73777    0.00130     0.73908
      H   26    0.23900      0.00000     0.76020    0.00080     0.76100
      H   27    0.23767      0.00000     0.76141    0.00092     0.76233
      H   28    0.23710      0.00000     0.76205    0.00085     0.76290
      H   29    0.24130      0.00000     0.75783    0.00087     0.75870
 =======================================================================
   * Total *   -0.00000     29.98701    75.77154    0.24145   106.00000

 Normal termination of Gaussian 09 at Wed Sep 29 01:11:10 2021.
