 Gaussian 09, Revision A.02,

 -----------------------------------
 #p opt b3lyp/6-31G* scf=(xqc,tight)
 -----------------------------------

 --------------------------------------
 CCOC(=O)c1cccc(c1)OC(=O)N(CC)CC_conf_0
 --------------------------------------
 Symbolic Z-matrix:
 Charge =  0 Multiplicity = 1

 SCF Done:  E(RB3LYP) =  -900.616157519     A.U. after   15 cycles
 SCF Done:  E(RB3LYP) =  -900.622210261     A.U. after   12 cycles
 SCF Done:  E(RB3LYP) =  -900.623523663     A.U. after   13 cycles
 SCF Done:  E(RB3LYP) =  -900.624670920     A.U. after   13 cycles
 SCF Done:  E(RB3LYP) =  -900.625208124     A.U. after   12 cycles
 SCF Done:  E(RB3LYP) =  -900.625167916     A.U. after   11 cycles
 SCF Done:  E(RB3LYP) =  -900.625324509     A.U. after   12 cycles
 SCF Done:  E(RB3LYP) =  -900.625389504     A.U. after   10 cycles
 SCF Done:  E(RB3LYP) =  -900.625400559     A.U. after   10 cycles
 SCF Done:  E(RB3LYP) =  -900.625411413     A.U. after   11 cycles
 SCF Done:  E(RB3LYP) =  -900.625419234     A.U. after   12 cycles
 SCF Done:  E(RB3LYP) =  -900.625421334     A.U. after    8 cycles
 SCF Done:  E(RB3LYP) =  -900.625422197     A.U. after    8 cycles
 SCF Done:  E(RB3LYP) =  -900.625422337     A.U. after    7 cycles
 SCF Done:  E(RB3LYP) =  -900.625422341     A.U. after    7 cycles
 Optimization completed.
    -- Stationary point found.
 Normal termination of Gaussian 09 at Thu Sep 30 05:03:17 2021.

 ----------------------------------------------------------------------
 #p freq b3lyp/6-31G* volume NMR pop=NPA density=current Geom=AllCheck
 Guess=Read
 ----------------------------------------------------------------------

 CCOC(=O)c1cccc(c1)OC(=O)N(CC)CC_conf_0
 --------------------------------------
 Redundant internal coordinates taken from checkpoint file:
 C14H19NO4_7dbe_conf_0.chk
 Charge =  0 Multiplicity = 1

 SCF Done:  E(RB3LYP) =  -900.625422341     A.U. after    1 cycles

  1  C    Isotropic =   174.2453   Anisotropy =    22.0598

  2  C    Isotropic =   130.0402   Anisotropy =    61.0709

  3  O    Isotropic =   142.9272   Anisotropy =   148.4478

  4  C    Isotropic =    32.7353   Anisotropy =    73.6151

  5  O    Isotropic =   -34.5933   Anisotropy =   565.7966

  6  C    Isotropic =    64.6890   Anisotropy =   144.6461

  7  C    Isotropic =    70.5400   Anisotropy =   167.1781

  8  C    Isotropic =    68.0770   Anisotropy =   161.6641

  9  C    Isotropic =    68.2681   Anisotropy =   160.2120

 10  C    Isotropic =    44.3465   Anisotropy =   109.2122

 11  C    Isotropic =    72.1880   Anisotropy =   148.7284

 12  O    Isotropic =   143.0630   Anisotropy =   135.6187

 13  C    Isotropic =    46.7897   Anisotropy =    78.5601

 14  O    Isotropic =    66.1969   Anisotropy =   380.7709

 15  N    Isotropic =   158.0276   Anisotropy =    67.4605

 16  C    Isotropic =   147.4630   Anisotropy =    40.8707

 17  C    Isotropic =   174.9136   Anisotropy =    22.2547

 18  C    Isotropic =   146.7833   Anisotropy =    43.0735

 19  C    Isotropic =   175.6661   Anisotropy =    21.3459

 20  H    Isotropic =    31.3287   Anisotropy =     9.7380

 21  H    Isotropic =    30.4555   Anisotropy =     5.9029

 22  H    Isotropic =    30.9689   Anisotropy =     7.4242

 23  H    Isotropic =    27.2014   Anisotropy =     5.4281

 24  H    Isotropic =    28.4403   Anisotropy =     7.0353

 25  H    Isotropic =    24.4895   Anisotropy =     7.7780

 26  H    Isotropic =    24.9722   Anisotropy =     5.0324

 27  H    Isotropic =    24.6389   Anisotropy =     9.3049

 28  H    Isotropic =    24.5128   Anisotropy =    10.1261

 29  H    Isotropic =    28.4025   Anisotropy =     4.1835

 30  H    Isotropic =    29.3745   Anisotropy =     6.4135

 31  H    Isotropic =    30.5650   Anisotropy =     7.4214

 32  H    Isotropic =    31.2909   Anisotropy =    10.3114

 33  H    Isotropic =    30.9547   Anisotropy =     7.0838

 34  H    Isotropic =    28.3546   Anisotropy =     5.7743

 35  H    Isotropic =    29.5281   Anisotropy =     6.5476

 36  H    Isotropic =    30.6441   Anisotropy =     7.1243

 37  H    Isotropic =    31.3834   Anisotropy =    10.6777

 38  H    Isotropic =    31.0701   Anisotropy =     6.8504

  Exact polarizability: 237.586  -0.888 168.837   0.053  -1.784 101.037
 Approx polarizability: 289.871   4.529 277.506   0.645  -7.270 151.234

                     1                      2                      3
                     A                      A                      A
 Frequencies --    15.3489                24.6938                38.2035
 Red. masses --     3.9415                 4.0235                 3.7882
 Frc consts  --     0.0005                 0.0014                 0.0033
 IR Inten    --     0.2578                 1.8181                 0.8136

                     4                      5                      6
                     A                      A                      A
 Frequencies --    54.7949                59.3920                64.3127
 Red. masses --     3.6254                 3.4411                 2.8532
 Frc consts  --     0.0064                 0.0072                 0.0070
 IR Inten    --     0.9250                 1.5759                 0.0753

                     7                      8                      9
                     A                      A                      A
 Frequencies --    82.7515                94.0012               107.0270
 Red. masses --     4.0925                 5.3485                 3.9206
 Frc consts  --     0.0165                 0.0278                 0.0265
 IR Inten    --     0.7842                 1.6283                 1.1966

                    10                     11                     12
                     A                      A                      A
 Frequencies --   116.8523               159.7617               175.6523
 Red. masses --     3.8699                 2.9378                 5.1408
 Frc consts  --     0.0311                 0.0442                 0.0935
 IR Inten    --     0.7901                 1.8246                 0.5250

                    13                     14                     15
                     A                      A                      A
 Frequencies --   210.1708               225.1174               232.3121
 Red. masses --     1.8868                 1.3645                 1.4533
 Frc consts  --     0.0491                 0.0407                 0.0462
 IR Inten    --     0.7712                 1.0500                 0.0600

                    16                     17                     18
                     A                      A                      A
 Frequencies --   243.5673               264.1142               303.7626
 Red. masses --     1.7431                 1.8972                 4.0774
 Frc consts  --     0.0609                 0.0780                 0.2217
 IR Inten    --     1.4042                 1.4116                 1.9693

                    19                     20                     21
                     A                      A                      A
 Frequencies --   329.6543               339.3089               370.9975
 Red. masses --     2.8112                 2.7857                 3.1392
 Frc consts  --     0.1800                 0.1890                 0.2546
 IR Inten    --     5.5404                10.2006                 6.1034

                    22                     23                     24
                     A                      A                      A
 Frequencies --   409.2884               431.4117               441.9318
 Red. masses --     6.5600                 3.5021                 2.9794
 Frc consts  --     0.6475                 0.3840                 0.3428
 IR Inten    --    18.4086                 2.3957                 6.1554

                    25                     26                     27
                     A                      A                      A
 Frequencies --   452.4030               501.3425               517.5329
 Red. masses --     3.4896                 3.6763                 4.2400
 Frc consts  --     0.4208                 0.5444                 0.6691
 IR Inten    --     1.1520                 2.7663                 5.1715

                    28                     29                     30
                     A                      A                      A
 Frequencies --   545.9016               616.1556               641.5604
 Red. masses --     5.2516                 4.6688                 4.9937
 Frc consts  --     0.9221                 1.0443                 1.2110
 IR Inten    --     4.2390                 8.4837                 0.6915

                    31                     32                     33
                     A                      A                      A
 Frequencies --   685.6529               690.7276               743.6373
 Red. masses --     4.9916                 2.9836                 8.6649
 Frc consts  --     1.3826                 0.8387                 2.8232
 IR Inten    --     1.8649                 3.9497                15.2785

                    34                     35                     36
                     A                      A                      A
 Frequencies --   756.4039               781.6455               791.2936
 Red. masses --     3.0222                 1.7725                 1.4740
 Frc consts  --     1.0188                 0.6380                 0.5438
 IR Inten    --    50.1927                 3.3471                16.5733

                    37                     38                     39
                     A                      A                      A
 Frequencies --   794.5552               810.2871               836.9667
 Red. masses --     1.1760                 1.8915                 2.4233
 Frc consts  --     0.4374                 0.7317                 1.0002
 IR Inten    --     3.2592                 3.8836                 6.2096

                    40                     41                     42
                     A                      A                      A
 Frequencies --   837.3554               877.5631               919.8293
 Red. masses --     2.2967                 2.9795                 2.5024
 Frc consts  --     0.9488                 1.3519                 1.2474
 IR Inten    --     8.8230                 4.2718                 1.3734

                    43                     44                     45
                     A                      A                      A
 Frequencies --   925.2949               938.3877               957.3254
 Red. masses --     1.5121                 1.4679                 2.2761
 Frc consts  --     0.7628                 0.7616                 1.2290
 IR Inten    --     2.0026                 9.4014                 5.1981

                    46                     47                     48
                     A                      A                      A
 Frequencies --   980.5430               982.6902              1020.6692
 Red. masses --     1.4303                 2.3066                 6.1835
 Frc consts  --     0.8102                 1.3124                 3.7954
 IR Inten    --    19.0649                85.6073                 0.4073

                    49                     50                     51
                     A                      A                      A
 Frequencies --  1045.0182              1065.8759              1102.7131
 Red. masses --     3.3568                 2.7879                 1.9293
 Frc consts  --     2.1599                 1.8661                 1.3822
 IR Inten    --    37.6956                81.2454                19.6635

                    52                     53                     54
                     A                      A                      A
 Frequencies --  1115.9824              1119.0196              1123.4565
 Red. masses --     1.7729                 1.7749                 1.7789
 Frc consts  --     1.3009                 1.3095                 1.3228
 IR Inten    --    15.6349                10.0723                16.4350

                    55                     56                     57
                     A                      A                      A
 Frequencies --  1126.7613              1136.4667              1186.5360
 Red. masses --     1.7259                 2.1159                 2.3041
 Frc consts  --     1.2910                 1.6101                 1.9112
 IR Inten    --    35.0915               155.0163               383.9949

                    58                     59                     60
                     A                      A                      A
 Frequencies --  1200.4733              1209.6231              1244.0092
 Red. masses --     1.1747                 1.7728                 4.3993
 Frc consts  --     0.9974                 1.5283                 4.0113
 IR Inten    --     6.2026                73.0709               113.9238

                    61                     62                     63
                     A                      A                      A
 Frequencies --  1261.7044              1295.6560              1315.9163
 Red. masses --     2.8034                 2.6897                 1.6935
 Frc consts  --     2.6294                 2.6603                 1.7278
 IR Inten    --    68.0093              1086.8854                17.1437

                    64                     65                     66
                     A                      A                      A
 Frequencies --  1319.9230              1344.1108              1357.3464
 Red. masses --     1.6804                 1.1196                 1.3130
 Frc consts  --     1.7249                 1.1917                 1.4253
 IR Inten    --    35.2531                12.7695                11.2579

                    67                     68                     69
                     A                      A                      A
 Frequencies --  1370.1952              1400.2400              1420.0497
 Red. masses --     5.9296                 1.2842                 1.2809
 Frc consts  --     6.5590                 1.4835                 1.5218
 IR Inten    --     2.6692                18.8857                12.4211

                    70                     71                     72
                     A                      A                      A
 Frequencies --  1420.7677              1437.6084              1439.2545
 Red. masses --     1.2804                 1.2965                 1.2575
 Frc consts  --     1.5228                 1.5787                 1.5348
 IR Inten    --    11.0623                14.1768                23.7444

                    73                     74                     75
                     A                      A                      A
 Frequencies --  1442.8901              1461.8975              1489.5972
 Red. masses --     1.3217                 2.0942                 3.2665
 Frc consts  --     1.6212                 2.6369                 4.2704
 IR Inten    --     9.4703               314.2032                29.3166

                    76                     77                     78
                     A                      A                      A
 Frequencies --  1507.6025              1515.8100              1518.5475
 Red. masses --     1.0697                 1.0599                 1.0789
 Frc consts  --     1.4325                 1.4348                 1.4658
 IR Inten    --     6.4540                12.1918                11.6681

                    79                     80                     81
                     A                      A                      A
 Frequencies --  1520.4487              1521.8259              1526.8704
 Red. masses --     1.0452                 1.0804                 1.1540
 Frc consts  --     1.4236                 1.4743                 1.5851
 IR Inten    --     1.8238                 2.1684                41.2506

                    82                     83                     84
                     A                      A                      A
 Frequencies --  1531.9816              1533.5718              1537.3007
 Red. masses --     1.7607                 1.0689                 1.0652
 Frc consts  --     2.4346                 1.4811                 1.4832
 IR Inten    --    11.8903                 7.8100                 5.9700

                    85                     86                     87
                     A                      A                      A
 Frequencies --  1538.9293              1640.3170              1664.1459
 Red. masses --     1.2206                 6.0902                 6.2898
 Frc consts  --     1.7032                 9.6546                10.2629
 IR Inten    --    15.6622                29.1585                 5.5027

                    88                     89                     90
                     A                      A                      A
 Frequencies --  1793.7553              1811.4680              3052.3207
 Red. masses --    11.5969                11.2303                 1.0361
 Frc consts  --    21.9847                21.7122                 5.6875
 IR Inten    --   187.8935               384.8024                19.4674

                    91                     92                     93
                     A                      A                      A
 Frequencies --  3053.7788              3060.4878              3064.1304
 Red. masses --     1.0361                 1.0363                 1.0681
 Frc consts  --     5.6930                 5.7190                 5.9084
 IR Inten    --    17.0451                19.0331                28.9218

                    94                     95                     96
                     A                      A                      A
 Frequencies --  3073.6443              3092.8570              3113.6609
 Red. masses --     1.0684                 1.0590                 1.1020
 Frc consts  --     5.9471                 5.9686                 6.2948
 IR Inten    --    36.2553                31.7914                17.0097

                    97                     98                     99
                     A                      A                      A
 Frequencies --  3115.6413              3126.2581              3133.3754
 Red. masses --     1.1021                 1.1020                 1.0982
 Frc consts  --     6.3032                 6.3457                 6.3527
 IR Inten    --    21.8224                26.6915                21.8400

                   100                    101                    102
                     A                      A                      A
 Frequencies --  3134.3543              3138.5620              3146.1428
 Red. masses --     1.0980                 1.1037                 1.1021
 Frc consts  --     6.3557                 6.4056                 6.4274
 IR Inten    --    22.8026                 8.7169                18.6281

                   103                    104                    105
                     A                      A                      A
 Frequencies --  3148.2071              3157.8266              3200.0900
 Red. masses --     1.1017                 1.1076                 1.0894
 Frc consts  --     6.4334                 6.5076                 6.5728
 IR Inten    --    36.0126                27.2070                13.3347

                   106                    107                    108
                     A                      A                      A
 Frequencies --  3238.0473              3239.6388              3254.1919
 Red. masses --     1.0910                 1.0924                 1.0932
 Frc consts  --     6.7398                 6.7549                 6.8206
 IR Inten    --     3.1894                 2.9863                 1.6307

 - Thermochemistry -
 -------------------
 Temperature   298.150 Kelvin.  Pressure   1.00000 Atm.
 Atom     1 has atomic number  6 and mass  12.00000

 Molecular mass:   265.13141 amu.
 Principal axes and moments of inertia in atomic units:
                           1         2         3
     Eigenvalues --  2058.39657********************
           X            0.99998   0.00336  -0.00539
           Y           -0.00333   0.99998   0.00509
           Z            0.00540  -0.00507   0.99997
 This molecule is an asymmetric top.
 Rotational symmetry number  1.
 Warning -- assumption of classical behavior for rotation
           may cause significant error
 Rotational temperatures (Kelvin)      0.04208     0.00695     0.00626
 Rotational constants (GHZ):           0.87677     0.14484     0.13043
 Zero-point vibrational energy     834748.4 (Joules/Mol)
                                  199.50966 (Kcal/Mol)
 Warning -- explicit consideration of  29 degrees of freedom as
           vibrations may cause significant error
 Vibrational temperatures:     22.08    35.53    54.97    78.84    85.45
          (Kelvin)             92.53   119.06   135.25   153.99   168.12
                              229.86   252.72   302.39   323.89   334.24
                              350.44   380.00   437.05   474.30   488.19
                              533.78   588.87   620.70   635.84   650.91
                              721.32   744.61   785.43   886.51   923.06
                              986.50   993.80  1069.93  1088.30  1124.61
                             1138.49  1143.19  1165.82  1204.21  1204.77
                             1262.62  1323.43  1331.29  1350.13  1377.38
                             1410.78  1413.87  1468.51  1503.55  1533.56
                             1586.56  1605.65  1610.02  1616.40  1621.16
                             1635.12  1707.16  1727.21  1740.38  1789.85
                             1815.31  1864.16  1893.31  1899.07  1933.87
                             1952.92  1971.40  2014.63  2043.13  2044.17
                             2068.40  2070.76  2075.99  2103.34  2143.20
                             2169.10  2180.91  2184.85  2187.58  2189.57
                             2196.82  2204.18  2206.46  2211.83  2214.17
                             2360.05  2394.33  2580.81  2606.30  4391.60
                             4393.70  4403.35  4408.59  4422.28  4449.93
                             4479.86  4482.71  4497.98  4508.22  4509.63
                             4515.69  4526.59  4529.56  4543.40  4604.21
                             4658.82  4661.11  4682.05

 Zero-point correction=                           0.317939 (Hartree/Particle)
 Thermal correction to Energy=                    0.337802
 Thermal correction to Enthalpy=                  0.338746
 Thermal correction to Gibbs Free Energy=         0.266351
 Sum of electronic and zero-point Energies=           -900.307483
 Sum of electronic and thermal Energies=              -900.287621
 Sum of electronic and thermal Enthalpies=            -900.286676
 Sum of electronic and thermal Free Energies=         -900.359071

                     E (Thermal)             CV                S
                      KCal/Mol        Cal/Mol-Kelvin    Cal/Mol-Kelvin
 Total                  211.974             71.916            152.368
 Electronic               0.000              0.000              0.000
 Translational            0.889              2.981             42.625
 Rotational               0.889              2.981             34.228
 Vibrational            210.196             65.954             75.515
 Vibration     1          0.593              1.986              7.160
 Vibration     2          0.593              1.985              6.216
 Vibration     3          0.594              1.982              5.350
 Vibration     4          0.596              1.976              4.636
 Vibration     5          0.597              1.974              4.477
 Vibration     6          0.597              1.971              4.320
 Vibration     7          0.600              1.961              3.825
 Vibration     8          0.603              1.953              3.575
 Vibration     9          0.606              1.944              3.322
 Vibration    10          0.608              1.935              3.152
 Vibration    11          0.622              1.892              2.553
 Vibration    12          0.628              1.872              2.374
 Vibration    13          0.642              1.825              2.042
 Vibration    14          0.650              1.803              1.918
 Vibration    15          0.653              1.792              1.861
 Vibration    16          0.659              1.773              1.777
 Vibration    17          0.671              1.739              1.634
 Vibration    18          0.695              1.667              1.396
 Vibration    19          0.712              1.616              1.262
 Vibration    20          0.719              1.597              1.215
 Vibration    21          0.743              1.532              1.076
 Vibration    22          0.774              1.450              0.929
 Vibration    23          0.792              1.402              0.854
 Vibration    24          0.802              1.379              0.821
 Vibration    25          0.811              1.356              0.789
 Vibration    26          0.857              1.247              0.655
 Vibration    27          0.873              1.211              0.616
 Vibration    28          0.901              1.149              0.553
 Vibration    29          0.976              0.998              0.423

 Normal termination of Gaussian 09 at Thu Sep 30 06:32:43 2021.
 Gaussian 09:  AM64L-G09RevA.02 11-Jun-2009

 ----------------------------------------------------------------------
 #p TD(NStates=10, Root=1) b3lyp/6-31G* volume pop=NPA density=current
 Geom=AllCheck Guess=Read
 ----------------------------------------------------------------------

 CCOC(=O)c1cccc(c1)OC(=O)N(CC)CC_conf_0
 --------------------------------------
 Redundant internal coordinates taken from checkpoint file:
 C14H19NO4_7dbe_conf_0.chk
 Charge =  0 Multiplicity = 1

                         Standard orientation:
 ---------------------------------------------------------------------
 Center     Atomic      Atomic             Coordinates (Angstroms)
 Number     Number       Type             X           Y           Z
 ---------------------------------------------------------------------
      1          6           0       -6.071008    0.877695    1.304060
      2          6           0       -5.707824    0.557090   -0.138224
      3          8           0       -4.491452   -0.222480   -0.215975
      4          6           0       -3.328673    0.469406   -0.205659
      5          8           0       -3.267963    1.682934   -0.143543
      6          6           0       -2.137816   -0.425134   -0.283253
      7          6           0       -2.243679   -1.819568   -0.365402
      8          6           0       -1.086228   -2.592975   -0.438058
      9          6           0        0.176135   -1.998047   -0.432301
     10          6           0        0.267328   -0.606647   -0.342361
     11          6           0       -0.875788    0.180383   -0.268215
     12          8           0        1.475366    0.076870   -0.410808
     13          6           0        2.555904   -0.353423    0.339236
     14          8           0        2.519990   -1.298336    1.105584
     15          7           0        3.641823    0.430542    0.100854
     16          6           0        3.647334    1.550633   -0.847024
     17          6           0        3.212830    2.877886   -0.219777
     18          6           0        4.862013    0.144796    0.863253
     19          6           0        5.781452   -0.860800    0.166036
     20          1           0       -7.033270    1.401771    1.336695
     21          1           0       -5.313165    1.522817    1.756994
     22          1           0       -6.157921   -0.038510    1.897299
     23          1           0       -5.578578    1.469116   -0.725845
     24          1           0       -6.463222   -0.076044   -0.610480
     25          1           0       -3.222061   -2.285315   -0.372765
     26          1           0       -1.162566   -3.674650   -0.502730
     27          1           0        1.074793   -2.599148   -0.481066
     28          1           0       -0.797114    1.259693   -0.203966
     29          1           0        2.999892    1.300741   -1.689320
     30          1           0        4.667544    1.631159   -1.239452
     31          1           0        2.179714    2.813680    0.134939
     32          1           0        3.273284    3.685773   -0.958189
     33          1           0        3.851912    3.146213    0.629131
     34          1           0        4.564087   -0.236976    1.842047
     35          1           0        5.380454    1.097336    1.021001
     36          1           0        5.273284   -1.823662    0.056629
     37          1           0        6.691853   -1.017615    0.756092
     38          1           0        6.078927   -0.509861   -0.828920
 ---------------------------------------------------------------------

 SCF Done:  E(RB3LYP) =  -900.625422341     A.U. after    1 cycles

 Excitation energies and oscillator strengths:

 Excited State   1:      Singlet-A      4.7163 eV  262.89 nm  f=0.0295  <S**2>=0.000
      69 -> 72         0.14298
      69 -> 73         0.21090
      70 -> 72        -0.14888
      71 -> 72         0.63249
 This state for optimization and/or second-order correction.
 Total Energy, E(TD-HF/TD-KS) =  -900.452102263
 Copying the excited state density for this state as the 1-particle RhoCI density.

 Excited State   2:      Singlet-A      4.8623 eV  254.99 nm  f=0.0003  <S**2>=0.000
      67 -> 72         0.14468
      68 -> 72         0.67565

 Excited State   3:      Singlet-A      4.9737 eV  249.28 nm  f=0.0008  <S**2>=0.000
      69 -> 73        -0.10205
      70 -> 72         0.65298
      71 -> 72         0.21992

 Excited State   4:      Singlet-A      5.3676 eV  230.99 nm  f=0.1712  <S**2>=0.000
      67 -> 72        -0.19715
      69 -> 72         0.60650
      70 -> 72         0.14807
      70 -> 73         0.11350
      71 -> 72        -0.12106
      71 -> 73        -0.18795

 Excited State   5:      Singlet-A      5.7001 eV  217.51 nm  f=0.0252  <S**2>=0.000
      67 -> 72         0.63658
      68 -> 72        -0.14821
      71 -> 73        -0.19819

 Excited State   6:      Singlet-A      5.8985 eV  210.20 nm  f=0.1737  <S**2>=0.000
      67 -> 72         0.10017
      69 -> 72         0.11888
      70 -> 73         0.43559
      71 -> 73         0.52555

 Excited State   7:      Singlet-A      6.2685 eV  197.79 nm  f=0.3835  <S**2>=0.000
      65 -> 72         0.15359
      66 -> 72        -0.19322
      67 -> 72        -0.10330
      69 -> 72        -0.23063
      69 -> 73         0.31287
      70 -> 73         0.40892
      71 -> 73        -0.21991
      71 -> 75        -0.10175

 Excited State   8:      Singlet-A      6.2992 eV  196.83 nm  f=0.2567  <S**2>=0.000
      66 -> 72         0.27442
      67 -> 73         0.34650
      67 -> 74         0.14185
      68 -> 73        -0.17687
      69 -> 73        -0.31323
      70 -> 73         0.25143
      71 -> 73        -0.22207

 Excited State   9:      Singlet-A      6.3675 eV  194.72 nm  f=0.0632  <S**2>=0.000
      65 -> 72         0.10712
      66 -> 72         0.58515
      67 -> 73        -0.22643
      68 -> 73         0.21256
      69 -> 73         0.13108

 Excited State  10:      Singlet-A      6.4656 eV  191.76 nm  f=0.0078  <S**2>=0.000
      65 -> 72        -0.12156
      67 -> 73         0.20279
      68 -> 73         0.63688
      69 -> 73        -0.13551

 The electronic state is 1-A.
 Alpha  occ. eigenvalues --  -19.19709 -19.18716 -19.13034 -19.11815 -14.36621
 Alpha  occ. eigenvalues --  -10.33278 -10.31277 -10.25499 -10.24171 -10.22834
 Alpha  occ. eigenvalues --  -10.22398 -10.20485 -10.19775 -10.19687 -10.19548
 Alpha  occ. eigenvalues --  -10.19522 -10.18368 -10.18139 -10.18116  -1.10692
 Alpha  occ. eigenvalues --   -1.09550  -1.01605  -1.00800  -0.94242  -0.86142
 Alpha  occ. eigenvalues --   -0.78269  -0.77453  -0.76256  -0.75437  -0.73654
 Alpha  occ. eigenvalues --   -0.66752  -0.66510  -0.64593  -0.62351  -0.60742
 Alpha  occ. eigenvalues --   -0.58132  -0.54558  -0.52888  -0.51032  -0.49721
 Alpha  occ. eigenvalues --   -0.49140  -0.48043  -0.47269  -0.46116  -0.45126
 Alpha  occ. eigenvalues --   -0.44916  -0.44171  -0.43722  -0.43544  -0.42742
 Alpha  occ. eigenvalues --   -0.41700  -0.40510  -0.39816  -0.39138  -0.38600
 Alpha  occ. eigenvalues --   -0.37923  -0.37766  -0.37434  -0.36843  -0.36560
 Alpha  occ. eigenvalues --   -0.35772  -0.35310  -0.34742  -0.33775  -0.31614
 Alpha  occ. eigenvalues --   -0.29592  -0.27537  -0.27038  -0.25489  -0.24673
 Alpha  occ. eigenvalues --   -0.23774
 Alpha virt. eigenvalues --   -0.04197  -0.00284   0.04788   0.06844   0.08033
 Alpha virt. eigenvalues --    0.09573   0.11181   0.11249   0.12361   0.12954
 Alpha virt. eigenvalues --    0.13943   0.14007   0.14870   0.15084   0.15497

 Mulliken atomic charges:
              1
     1  C   -0.456142
     2  C   -0.027138
     3  O   -0.502714
     4  C    0.532085
     5  O   -0.551990
     6  C    0.041363
     7  C   -0.142835
     8  C   -0.147749
     9  C   -0.151846
    10  C    0.354071
    11  C   -0.204075
    12  O   -0.521294
    13  C    0.799421
    14  O   -0.490011
    15  N   -0.411192
    16  C   -0.156354
    17  C   -0.449192
    18  C   -0.157230
    19  C   -0.449035
    20  H    0.135007
    21  H    0.175739
    22  H    0.146187
    23  H    0.161272
    24  H    0.133870
    25  H    0.165742
    26  H    0.141079
    27  H    0.143174
    28  H    0.169751
    29  H    0.192357
    30  H    0.164539
    31  H    0.181337
    32  H    0.164936
    33  H    0.157466
    34  H    0.198974
    35  H    0.160766
    36  H    0.181993
    37  H    0.163630
    38  H    0.154035
 Sum of Mulliken atomic charges =   0.00000

 Dipole moment (field-independent basis, Debye):
    X=              7.5505    Y=              0.0696    Z=             -1.0903  Tot=              7.6291
 Quadrupole moment (field-independent basis, Debye-Ang):
   XX=            -86.0718   YY=           -110.6827   ZZ=           -113.3176
   XY=             15.0658   XZ=             -2.6998   YZ=              2.2731

 Summary of Natural Population Analysis:

                                       Natural Population
                Natural  -----------------------------------------------
    Atom  No    Charge         Core      Valence    Rydberg      Total
 -----------------------------------------------------------------------
      C    1   -0.70363      1.99945     4.69702    0.00716     6.70363
      C    2   -0.10875      1.99927     4.09168    0.01780     6.10875
      O    3   -0.58185      1.99975     6.57133    0.01077     8.58185
      C    4    0.70003      1.99937     3.25508    0.04553     5.29997
      O    5   -0.67124      1.99979     6.65257    0.01888     8.67124
      C    6   -0.17199      1.99896     4.15448    0.01855     6.17199
      C    7   -0.14651      1.99907     4.13231    0.01513     6.14651
      C    8   -0.20603      1.99914     4.19109    0.01580     6.20603
      C    9   -0.33743      1.99904     4.32243    0.01597     6.33743
      C   10    0.34562      1.99872     3.63351    0.02216     5.65438
      C   11   -0.20732      1.99899     4.19081    0.01752     6.20732
      O   12   -0.49812      1.99969     6.48796    0.01046     8.49812
      C   13    0.93273      1.99936     3.02289    0.04502     5.06727
      O   14   -0.61994      1.99978     6.60092    0.01924     8.61994
      N   15   -0.42368      1.99930     5.41101    0.01336     7.42368
      C   16   -0.26706      1.99934     4.25262    0.01510     6.26706
      C   17   -0.68871      1.99944     4.68153    0.00774     6.68871
      C   18   -0.26189      1.99934     4.24710    0.01545     6.26189
      C   19   -0.68806      1.99944     4.68099    0.00763     6.68806
      H   20    0.22807      0.00000     0.77086    0.00107     0.77193
      H   21    0.24466      0.00000     0.75370    0.00164     0.75534
      H   22    0.22740      0.00000     0.77111    0.00149     0.77260
      H   23    0.22810      0.00000     0.76924    0.00266     0.77190
      H   24    0.21569      0.00000     0.78306    0.00125     0.78431
      H   25    0.25381      0.00000     0.74496    0.00123     0.74619
      H   26    0.23868      0.00000     0.76048    0.00084     0.76132
      H   27    0.25001      0.00000     0.74893    0.00106     0.74999
      H   28    0.26276      0.00000     0.73499    0.00225     0.73724
      H   29    0.26226      0.00000     0.73644    0.00131     0.73774
      H   30    0.24092      0.00000     0.75774    0.00134     0.75908
      H   31    0.24663      0.00000     0.75213    0.00124     0.75337
      H   32    0.24603      0.00000     0.75324    0.00072     0.75397
      H   33    0.23169      0.00000     0.76745    0.00086     0.76831
      H   34    0.26790      0.00000     0.73025    0.00185     0.73210
      H   35    0.23702      0.00000     0.76172    0.00126     0.76298
      H   36    0.24757      0.00000     0.75123    0.00120     0.75243
      H   37    0.24521      0.00000     0.75410    0.00069     0.75479
      H   38    0.22941      0.00000     0.76971    0.00088     0.77059
 =======================================================================
   * Total *   -0.00000     37.98723   103.64869    0.36408   142.00000

 Normal termination of Gaussian 09 at Thu Sep 30 13:27:45 2021.
