 Gaussian 09, Revision A.02,

 -----------------------------------
 #p opt b3lyp/6-31G* scf=(xqc,tight)
 -----------------------------------

 -------------------------------------
 O=C(C(C)(C)C)Oc1ccc2c(c1)cccn2_conf_0
 -------------------------------------
 Symbolic Z-matrix:
 Charge =  0 Multiplicity = 1

 SCF Done:  E(RB3LYP) =  -747.739900737     A.U. after   15 cycles
 SCF Done:  E(RB3LYP) =  -747.747107414     A.U. after   16 cycles
 SCF Done:  E(RB3LYP) =  -747.746289695     A.U. after   16 cycles
 SCF Done:  E(RB3LYP) =  -747.747486283     A.U. after   16 cycles
 SCF Done:  E(RB3LYP) =  -747.748074034     A.U. after   16 cycles
 SCF Done:  E(RB3LYP) =  -747.748372267     A.U. after   12 cycles
 SCF Done:  E(RB3LYP) =  -747.748591886     A.U. after   14 cycles
 SCF Done:  E(RB3LYP) =  -747.748782056     A.U. after   12 cycles
 SCF Done:  E(RB3LYP) =  -747.748840790     A.U. after   11 cycles
 SCF Done:  E(RB3LYP) =  -747.748843009     A.U. after    8 cycles
 SCF Done:  E(RB3LYP) =  -747.748843365     A.U. after    8 cycles
 SCF Done:  E(RB3LYP) =  -747.748843377     A.U. after    6 cycles
 Optimization completed.
    -- Stationary point found.
 Normal termination of Gaussian 09 at Wed Sep 29 05:03:32 2021.

 ----------------------------------------------------------------------
 #p freq b3lyp/6-31G* volume NMR pop=NPA density=current Geom=AllCheck
 Guess=Read
 ----------------------------------------------------------------------

 O=C(C(C)(C)C)Oc1ccc2c(c1)cccn2_conf_0
 -------------------------------------
 Redundant internal coordinates taken from checkpoint file:
 C14H15NO2_eefb_conf_0.chk
 Charge =  0 Multiplicity = 1

 SCF Done:  E(RB3LYP) =  -747.748843377     A.U. after    1 cycles

  1  O    Isotropic =   -66.0131   Anisotropy =   574.3410

  2  C    Isotropic =    22.1998   Anisotropy =    77.6511

  3  C    Isotropic =   148.9549   Anisotropy =    24.1880

  4  C    Isotropic =   162.1854   Anisotropy =    38.0054

  5  C    Isotropic =   162.0514   Anisotropy =    37.2505

  6  C    Isotropic =   162.8941   Anisotropy =    31.3200

  7  O    Isotropic =   107.4690   Anisotropy =   158.5336

  8  C    Isotropic =    45.8621   Anisotropy =   109.1531

  9  C    Isotropic =    70.4182   Anisotropy =   152.3123

 10  C    Isotropic =    63.9896   Anisotropy =   145.7206

 11  C    Isotropic =    49.9464   Anisotropy =   180.0146

 12  C    Isotropic =    67.6701   Anisotropy =   192.8435

 13  C    Isotropic =    78.1872   Anisotropy =   119.8128

 14  C    Isotropic =    61.6246   Anisotropy =   162.5148

 15  C    Isotropic =    75.1113   Anisotropy =   154.1444

 16  C    Isotropic =    47.3321   Anisotropy =   153.5335

 17  N    Isotropic =   -60.1810   Anisotropy =   511.5395

 18  H    Isotropic =    30.2952   Anisotropy =     7.4203

 19  H    Isotropic =    30.8001   Anisotropy =     8.0965

 20  H    Isotropic =    31.0467   Anisotropy =     7.9336

 21  H    Isotropic =    30.3888   Anisotropy =     5.9122

 22  H    Isotropic =    31.0432   Anisotropy =     7.8606

 23  H    Isotropic =    30.7799   Anisotropy =     8.2325

 24  H    Isotropic =    30.6429   Anisotropy =     7.8684

 25  H    Isotropic =    30.5965   Anisotropy =     8.2651

 26  H    Isotropic =    31.4385   Anisotropy =     7.8606

 27  H    Isotropic =    24.5454   Anisotropy =     9.4110

 28  H    Isotropic =    24.1809   Anisotropy =     6.3671

 29  H    Isotropic =    25.0657   Anisotropy =     8.8892

 30  H    Isotropic =    24.4282   Anisotropy =     7.8782

 31  H    Isotropic =    25.0692   Anisotropy =     5.7828

 32  H    Isotropic =    23.3016   Anisotropy =     5.7666

  Exact polarizability: 243.550 -11.576 151.471   6.511  -3.372  85.676
 Approx polarizability: 344.317 -17.573 268.731  15.049  -2.100 133.719

                     1                      2                      3
                     A                      A                      A
 Frequencies --    20.2790                40.8772                46.8783
 Red. masses --     3.4156                 4.6155                 5.7951
 Frc consts  --     0.0008                 0.0045                 0.0075
 IR Inten    --     0.1939                 0.1300                 0.6533

                     4                      5                      6
                     A                      A                      A
 Frequencies --    77.6455               143.2346               179.7578
 Red. masses --     5.6563                 4.7015                 4.1444
 Frc consts  --     0.0201                 0.0568                 0.0789
 IR Inten    --     0.3176                 0.2190                 2.9910

                     7                      8                      9
                     A                      A                      A
 Frequencies --   197.1318               205.8563               227.0475
 Red. masses --     4.5956                 1.4022                 1.4961
 Frc consts  --     0.1052                 0.0350                 0.0454
 IR Inten    --     1.0334                 0.4150                 0.3544

                    10                     11                     12
                     A                      A                      A
 Frequencies --   264.1327               272.3124               283.5790
 Red. masses --     1.3551                 1.2576                 1.8490
 Frc consts  --     0.0557                 0.0549                 0.0876
 IR Inten    --     0.0900                 0.1148                 0.3623

                    13                     14                     15
                     A                      A                      A
 Frequencies --   323.1205               333.8056               355.0085
 Red. masses --     3.8117                 3.9914                 3.2658
 Frc consts  --     0.2345                 0.2620                 0.2425
 IR Inten    --     7.4563                 2.6715                 7.9041

                    16                     17                     18
                     A                      A                      A
 Frequencies --   375.9061               411.5897               423.2925
 Red. masses --     2.4069                 3.7497                 3.6965
 Frc consts  --     0.2004                 0.3743                 0.3902
 IR Inten    --     0.7918                 2.5793                 2.2567

                    19                     20                     21
                     A                      A                      A
 Frequencies --   463.5487               493.3620               533.0726
 Red. masses --     4.1637                 2.8918                 6.0414
 Frc consts  --     0.5271                 0.4147                 1.0115
 IR Inten    --     3.2202                 2.9242                 1.1160

                    22                     23                     24
                     A                      A                      A
 Frequencies --   540.0345               550.2755               600.4131
 Red. masses --     5.1927                 4.9422                 3.7334
 Frc consts  --     0.8923                 0.8817                 0.7930
 IR Inten    --     3.4960                 1.2622                 3.6984

                    25                     26                     27
                     A                      A                      A
 Frequencies --   629.0614               654.0715               748.4244
 Red. masses --     7.2012                 3.2182                 6.3351
 Frc consts  --     1.6790                 0.8112                 2.0908
 IR Inten    --     4.9510                 0.6831                 2.8703

                    28                     29                     30
                     A                      A                      A
 Frequencies --   759.2736               773.0325               784.6321
 Red. masses --     6.1672                 2.3387                 4.4853
 Frc consts  --     2.0948                 0.8234                 1.6270
 IR Inten    --     3.4878                 2.6723                 0.5059

                    31                     32                     33
                     A                      A                      A
 Frequencies --   807.3638               816.9334               850.0969
 Red. masses --     1.7943                 2.3507                 2.1150
 Frc consts  --     0.6891                 0.9243                 0.9005
 IR Inten    --     6.3238                13.7791                14.8151

                    34                     35                     36
                     A                      A                      A
 Frequencies --   876.7661               904.6905               935.5577
 Red. masses --     2.3672                 2.2186                 4.6040
 Frc consts  --     1.0721                 1.0698                 2.3742
 IR Inten    --     5.8377                35.4061                 5.9284

                    37                     38                     39
                     A                      A                      A
 Frequencies --   948.6805               956.7131               965.7387
 Red. masses --     1.7629                 1.6516                 1.3870
 Frc consts  --     0.9348                 0.8907                 0.7622
 IR Inten    --     1.5323                 4.4284                 0.2982

                    40                     41                     42
                     A                      A                      A
 Frequencies --   974.3130               980.5044               983.2434
 Red. masses --     1.3996                 1.1996                 2.9014
 Frc consts  --     0.7828                 0.6795                 1.6527
 IR Inten    --     3.0161                 0.0368                 5.4227

                    43                     44                     45
                     A                      A                      A
 Frequencies --   993.1054              1057.1104              1059.5515
 Red. masses --     1.3337                 1.5343                 1.7094
 Frc consts  --     0.7750                 1.0102                 1.1307
 IR Inten    --     1.6901                35.1213                 1.1103

                    46                     47                     48
                     A                      A                      A
 Frequencies --  1060.6161              1135.0990              1155.4209
 Red. masses --     1.8621                 2.6200                 1.7596
 Frc consts  --     1.2341                 1.9889                 1.3841
 IR Inten    --    18.1738               313.8951               214.0962

                    49                     50                     51
                     A                      A                      A
 Frequencies --  1173.7946              1184.1127              1242.6054
 Red. masses --     1.2091                 1.8886                 2.6674
 Frc consts  --     0.9816                 1.5602                 2.4266
 IR Inten    --    35.3332               271.6364                 1.7864

                    52                     53                     54
                     A                      A                      A
 Frequencies --  1253.7855              1266.0415              1269.9906
 Red. masses --     4.3752                 2.9769                 2.0040
 Frc consts  --     4.0522                 2.8114                 1.9044
 IR Inten    --   118.3223                47.7928                13.9412

                    55                     56                     57
                     A                      A                      A
 Frequencies --  1284.4212              1309.1520              1380.4005
 Red. masses --     1.6024                 3.1215                 3.6698
 Frc consts  --     1.5575                 3.1520                 4.1201
 IR Inten    --    20.8300                52.5041                23.5358

                    58                     59                     60
                     A                      A                      A
 Frequencies --  1400.4493              1414.1372              1421.0725
 Red. masses --     2.4449                 3.5451                 1.2087
 Frc consts  --     2.8252                 4.1770                 1.4381
 IR Inten    --     4.1578                 3.3546                 3.9045

                    61                     62                     63
                     A                      A                      A
 Frequencies --  1429.9439              1458.2134              1475.2753
 Red. masses --     1.2312                 1.2222                 2.3760
 Frc consts  --     1.4833                 1.5312                 3.0468
 IR Inten    --     4.6455                16.1771                 1.1987

                    64                     65                     66
                     A                      A                      A
 Frequencies --  1508.4225              1515.0500              1515.5899
 Red. masses --     1.0486                 2.5781                 1.0837
 Frc consts  --     1.4058                 3.4867                 1.4666
 IR Inten    --     0.0283                14.4632                 0.5267

                    67                     68                     69
                     A                      A                      A
 Frequencies --  1520.6372              1530.1841              1532.7372
 Red. masses --     1.0472                 1.0488                 1.0545
 Frc consts  --     1.4267                 1.4469                 1.4596
 IR Inten    --     0.0699                 5.7574                 7.7041

                    70                     71                     72
                     A                      A                      A
 Frequencies --  1549.5964              1551.7426              1618.5467
 Red. masses --     1.7592                 1.5477                 6.9413
 Frc consts  --     2.4888                 2.1957                10.7138
 IR Inten    --   108.3436                 5.5367                 7.7785

                    73                     74                     75
                     A                      A                      A
 Frequencies --  1657.3477              1681.8763              1832.8628
 Red. masses --     5.6869                 6.5878                12.6974
 Frc consts  --     9.2035                10.9793                25.1319
 IR Inten    --    27.4118                20.6066               185.7449

                    76                     77                     78
                     A                      A                      A
 Frequencies --  3050.7467              3052.8167              3062.0007
 Red. masses --     1.0355                 1.0360                 1.0364
 Frc consts  --     5.6781                 5.6888                 5.7252
 IR Inten    --    27.1053                10.8562                27.6597

                    79                     80                     81
                     A                      A                      A
 Frequencies --  3114.5823              3116.5267              3130.0555
 Red. masses --     1.1031                 1.1025                 1.1020
 Frc consts  --     6.3048                 6.3090                 6.3609
 IR Inten    --    11.7316                24.0450                40.1087

                    82                     83                     84
                     A                      A                      A
 Frequencies --  3138.9123              3140.2374              3143.5851
 Red. masses --     1.1027                 1.1021                 1.1011
 Frc consts  --     6.4014                 6.4029                 6.4108
 IR Inten    --     8.9484                14.9805                45.2302

                    85                     86                     87
                     A                      A                      A
 Frequencies --  3163.3067              3185.8241              3205.1773
 Red. masses --     1.0892                 1.0890                 1.0913
 Frc consts  --     6.4213                 6.5123                 6.6056
 IR Inten    --    31.9399                 8.7542                 7.8773

                    88                     89                     90
                     A                      A                      A
 Frequencies --  3212.5952              3219.1088              3243.0838
 Red. masses --     1.0960                 1.0895                 1.0944
 Frc consts  --     6.6648                 6.6522                 6.7817
 IR Inten    --    23.8472                 2.2989                 4.0282

 - Thermochemistry -
 -------------------
 Temperature   298.150 Kelvin.  Pressure   1.00000 Atm.
 Atom     1 has atomic number  8 and mass  15.99491

 Molecular mass:   229.11028 amu.
 Principal axes and moments of inertia in atomic units:
                           1         2         3
     Eigenvalues --  1233.956598551.320309170.77914
           X            0.99999   0.00086   0.00314
           Y           -0.00080   0.99982  -0.01875
           Z           -0.00316   0.01875   0.99982
 This molecule is an asymmetric top.
 Rotational symmetry number  1.
 Warning -- assumption of classical behavior for rotation
           may cause significant error
 Rotational temperatures (Kelvin)      0.07019     0.01013     0.00944
 Rotational constants (GHZ):           1.46256     0.21105     0.19679
 Zero-point vibrational energy     689818.9 (Joules/Mol)
                                  164.87067 (Kcal/Mol)
 Warning -- explicit consideration of  24 degrees of freedom as
           vibrations may cause significant error
 Vibrational temperatures:     29.18    58.81    67.45   111.71   206.08
          (Kelvin)            258.63   283.63   296.18   326.67   380.03
                              391.80   408.01   464.90   480.27   510.78
                              540.84   592.19   609.02   666.94   709.84
                              766.97   776.99   791.72   863.86   905.08
                              941.06  1076.81  1092.42  1112.22  1128.91
                             1161.61  1175.38  1223.10  1261.47  1301.65
                             1346.06  1364.94  1376.50  1389.48  1401.82
                             1410.73  1414.67  1428.86  1520.94  1524.46
                             1525.99  1633.15  1662.39  1688.83  1703.67
                             1787.83  1803.92  1821.55  1827.23  1847.99
                             1883.58  1986.09  2014.93  2034.63  2044.60
                             2057.37  2098.04  2122.59  2170.28  2179.82
                             2180.59  2187.86  2201.59  2205.26  2229.52
                             2232.61  2328.72  2384.55  2419.84  2637.08
                             4389.34  4392.32  4405.53  4481.18  4483.98
                             4503.45  4516.19  4518.10  4522.91  4551.29
                             4583.68  4611.53  4622.20  4631.57  4666.07

 Zero-point correction=                           0.262738 (Hartree/Particle)
 Thermal correction to Energy=                    0.278094
 Thermal correction to Enthalpy=                  0.279038
 Thermal correction to Gibbs Free Energy=         0.219097
 Sum of electronic and zero-point Energies=           -747.486105
 Sum of electronic and thermal Energies=              -747.470749
 Sum of electronic and thermal Enthalpies=            -747.469805
 Sum of electronic and thermal Free Energies=         -747.529746

                     E (Thermal)             CV                S
                      KCal/Mol        Cal/Mol-Kelvin    Cal/Mol-Kelvin
 Total                  174.507             59.721            126.157
 Electronic               0.000              0.000              0.000
 Translational            0.889              2.981             42.189
 Rotational               0.889              2.981             32.937
 Vibrational            172.729             53.759             51.031
 Vibration     1          0.593              1.986              6.607
 Vibration     2          0.594              1.981              5.216
 Vibration     3          0.595              1.979              4.945
 Vibration     4          0.599              1.964              3.950
 Vibration     5          0.616              1.910              2.760
 Vibration     6          0.629              1.867              2.331
 Vibration     7          0.637              1.844              2.160
 Vibration     8          0.640              1.832              2.080
 Vibration     9          0.651              1.800              1.902
 Vibration    10          0.671              1.739              1.634
 Vibration    11          0.675              1.724              1.581
 Vibration    12          0.682              1.704              1.512
 Vibration    13          0.708              1.629              1.294
 Vibration    14          0.715              1.608              1.242
 Vibration    15          0.731              1.565              1.144
 Vibration    16          0.747              1.521              1.056
 Vibration    17          0.776              1.445              0.921
 Vibration    18          0.785              1.420              0.881
 Vibration    19          0.821              1.331              0.756
 Vibration    20          0.849              1.265              0.675
 Vibration    21          0.888              1.177              0.580
 Vibration    22          0.895              1.162              0.565
 Vibration    23          0.906              1.139              0.544
 Vibration    24          0.959              1.031              0.449

 Optimization completed.
    -- Stationary point found.
 Normal termination of Gaussian 09 at Wed Sep 29 06:16:42 2021.
 Gaussian 09:  AM64L-G09RevA.02 11-Jun-2009

 ----------------------------------------------------------------------
 #p TD(NStates=10, Root=1) b3lyp/6-31G* volume pop=NPA density=current
 Geom=AllCheck Guess=Read
 ----------------------------------------------------------------------

 O=C(C(C)(C)C)Oc1ccc2c(c1)cccn2_conf_0
 -------------------------------------
 Redundant internal coordinates taken from checkpoint file:
 C14H15NO2_eefb_conf_0.chk
 Charge =  0 Multiplicity = 1

                         Standard orientation:
 ---------------------------------------------------------------------
 Center     Atomic      Atomic             Coordinates (Angstroms)
 Number     Number       Type             X           Y           Z
 ---------------------------------------------------------------------
      1          8           0        2.031660   -1.129012   -1.197987
      2          6           0        2.265570   -0.303232   -0.349974
      3          6           0        3.647184    0.239565    0.026363
      4          6           0        3.671917    1.767205   -0.206483
      5          6           0        3.919126   -0.066085    1.516796
      6          6           0        4.699116   -0.448573   -0.857753
      7          8           0        1.288085    0.286023    0.418384
      8          6           0       -0.047974   -0.079373    0.253482
      9          6           0       -0.454939   -1.433304    0.340414
     10          6           0       -1.791849   -1.743788    0.260095
     11          6           0       -2.771052   -0.727696    0.096703
     12          6           0       -2.343309    0.636234    0.017262
     13          6           0       -0.959766    0.936498    0.097939
     14          6           0       -3.346077    1.626804   -0.141424
     15          6           0       -4.663917    1.242694   -0.212565
     16          6           0       -4.978717   -0.137194   -0.122543
     17          7           0       -4.084099   -1.093424    0.026099
     18          1           0        2.934870    2.278873    0.418599
     19          1           0        3.465385    2.012296   -1.254709
     20          1           0        4.665175    2.159153    0.040497
     21          1           0        3.181528    0.415198    2.164947
     22          1           0        4.913590    0.303627    1.791621
     23          1           0        3.897637   -1.144708    1.711299
     24          1           0        4.515037   -0.253756   -1.918498
     25          1           0        4.689364   -1.533319   -0.714877
     26          1           0        5.697242   -0.074374   -0.604186
     27          1           0        0.290745   -2.209352    0.462688
     28          1           0       -2.136718   -2.770900    0.321393
     29          1           0       -0.616191    1.965414    0.042904
     30          1           0       -3.059783    2.674064   -0.205684
     31          1           0       -5.459262    1.971842   -0.334996
     32          1           0       -6.019771   -0.454715   -0.176725
 ---------------------------------------------------------------------

 SCF Done:  E(RB3LYP) =  -747.748843377     A.U. after    3 cycles

 Excitation energies and oscillator strengths:

 Excited State   1:      Singlet-A      4.2954 eV  288.64 nm  f=0.0019  <S**2>=0.000
      59 -> 62         0.70193
 This state for optimization and/or second-order correction.
 Total Energy, E(TD-HF/TD-KS) =  -747.590990312
 Copying the excited state density for this state as the 1-particle RhoCI density.

 Excited State   2:      Singlet-A      4.3728 eV  283.54 nm  f=0.0498  <S**2>=0.000
      60 -> 62         0.20389
      60 -> 63        -0.15291
      61 -> 62         0.62774
      61 -> 63         0.17413

 Excited State   3:      Singlet-A      4.5236 eV  274.08 nm  f=0.0188  <S**2>=0.000
      60 -> 62         0.52277
      61 -> 62        -0.26735
      61 -> 63         0.37737

 Excited State   4:      Singlet-A      5.2426 eV  236.50 nm  f=0.0000  <S**2>=0.000
      59 -> 63         0.68562
      59 -> 64         0.15449

 Excited State   5:      Singlet-A      5.3153 eV  233.26 nm  f=0.0217  <S**2>=0.000
      58 -> 62         0.55610
      58 -> 63        -0.21442
      58 -> 64         0.26000
      61 -> 63        -0.12105
      61 -> 64         0.22071

 Excited State   6:      Singlet-A      5.4828 eV  226.13 nm  f=0.3128  <S**2>=0.000
      58 -> 62         0.36433
      58 -> 63         0.12067
      58 -> 64        -0.12637
      60 -> 62        -0.21129
      61 -> 63         0.37113
      61 -> 64        -0.36613

 Excited State   7:      Singlet-A      5.7055 eV  217.31 nm  f=0.1299  <S**2>=0.000
      58 -> 62         0.21196
      58 -> 63         0.33741
      58 -> 64        -0.32448
      58 -> 65        -0.11003
      60 -> 62         0.10433
      60 -> 63        -0.32466
      60 -> 64         0.15680
      61 -> 63        -0.20162
      61 -> 64         0.11814

 Excited State   8:      Singlet-A      5.9002 eV  210.14 nm  f=0.2870  <S**2>=0.000
      57 -> 62         0.23072
      58 -> 63         0.11407
      58 -> 64        -0.18998
      60 -> 62         0.21996
      60 -> 63         0.38571
      61 -> 63        -0.22083
      61 -> 64        -0.13109
      61 -> 65         0.30626

 Excited State   9:      Singlet-A      5.9633 eV  207.91 nm  f=0.3239  <S**2>=0.000
      58 -> 63         0.22648
      58 -> 64        -0.11857
      60 -> 62        -0.19534
      60 -> 63         0.26573
      60 -> 65        -0.11216
      61 -> 63         0.19313
      61 -> 64         0.49303

 Excited State  10:      Singlet-A      6.1143 eV  202.78 nm  f=0.0570  <S**2>=0.000
      57 -> 62         0.34965
      58 -> 64         0.10201
      60 -> 63        -0.15660
      60 -> 64         0.42319
      60 -> 65        -0.13796
      61 -> 65         0.32964

 The electronic state is 1-A.
 Alpha  occ. eigenvalues --  -19.20482 -19.14539 -14.32931 -10.32112 -10.25995
 Alpha  occ. eigenvalues --  -10.22603 -10.22551 -10.21835 -10.21131 -10.21006
 Alpha  occ. eigenvalues --  -10.20177 -10.20130 -10.20088 -10.19566 -10.18643
 Alpha  occ. eigenvalues --  -10.18628 -10.17775  -1.11185  -1.02873  -0.94285
 Alpha  occ. eigenvalues --   -0.85577  -0.82696  -0.80925  -0.75688  -0.74971
 Alpha  occ. eigenvalues --   -0.69591  -0.69169  -0.67176  -0.64644  -0.61559
 Alpha  occ. eigenvalues --   -0.60618  -0.56820  -0.53055  -0.51867  -0.49470
 Alpha  occ. eigenvalues --   -0.49106  -0.47358  -0.46770  -0.44967  -0.44191
 Alpha  occ. eigenvalues --   -0.43761  -0.43708  -0.42783  -0.41269  -0.40909
 Alpha  occ. eigenvalues --   -0.40588  -0.39433  -0.38892  -0.38113  -0.37228
 Alpha  occ. eigenvalues --   -0.36434  -0.35917  -0.34545  -0.33833  -0.33545
 Alpha  occ. eigenvalues --   -0.31536  -0.30814  -0.27565  -0.25504  -0.24828
 Alpha  occ. eigenvalues --   -0.23160
 Alpha virt. eigenvalues --   -0.05374  -0.01963   0.00469   0.02062   0.07923
 Alpha virt. eigenvalues --    0.09107   0.09205   0.11065   0.12363   0.13131
 Alpha virt. eigenvalues --    0.14582   0.14818   0.15076   0.15460   0.16766

 Mulliken atomic charges:
              1
     1  O   -0.464169
     2  C    0.633374
     3  C   -0.008179
     4  C   -0.450810
     5  C   -0.451517
     6  C   -0.433621
     7  O   -0.541399
     8  C    0.354544
     9  C   -0.146452
    10  C   -0.206265
    11  C    0.298431
    12  C    0.187694
    13  C   -0.279472
    14  C   -0.190864
    15  C   -0.162688
    16  C    0.042800
    17  N   -0.439131
    18  H    0.162522
    19  H    0.151343
    20  H    0.146764
    21  H    0.165887
    22  H    0.146975
    23  H    0.149380
    24  H    0.156458
    25  H    0.154726
    26  H    0.135780
    27  H    0.144088
    28  H    0.138230
    29  H    0.138935
    30  H    0.141206
    31  H    0.151958
    32  H    0.173474
 Sum of Mulliken atomic charges =  -0.00000

 Dipole moment (field-independent basis, Debye):
    X=             -1.6014    Y=              1.3034    Z=              1.0952  Tot=              2.3373
 Quadrupole moment (field-independent basis, Debye-Ang):
   XX=            -76.4617   YY=            -94.1046   ZZ=           -105.0853
   XY=              2.2497   XZ=              3.8851   YZ=             -3.8427

 Summary of Natural Population Analysis:

                                       Natural Population
                Natural  -----------------------------------------------
    Atom  No    Charge         Core      Valence    Rydberg      Total
 -----------------------------------------------------------------------
      O    1   -0.57844      1.99977     6.55876    0.01990     8.57844
      C    2    0.84437      1.99928     3.10734    0.04902     5.15563
      C    3   -0.15157      1.99905     4.14020    0.01233     6.15157
      C    4   -0.66867      1.99938     4.65953    0.00975     6.66867
      C    5   -0.66925      1.99938     4.66014    0.00972     6.66925
      C    6   -0.66970      1.99940     4.65921    0.01109     6.66970
      O    7   -0.55131      1.99969     6.54062    0.01100     8.55131
      C    8    0.29594      1.99872     3.68314    0.02221     5.70406
      C    9   -0.25992      1.99901     4.24723    0.01368     6.25992
      C   10   -0.28807      1.99906     4.27397    0.01504     6.28807
      C   11    0.13877      1.99891     3.84433    0.01799     5.86123
      C   12   -0.04657      1.99897     4.03348    0.01413     6.04657
      C   13   -0.29931      1.99893     4.28648    0.01390     6.29931
      C   14   -0.26530      1.99903     4.25049    0.01578     6.26530
      C   15   -0.29630      1.99905     4.28275    0.01449     6.29630
      C   16   -0.05425      1.99918     4.03433    0.02074     6.05425
      N   17   -0.13186      1.99891     5.11958    0.01338     7.13186
      H   18    0.24335      0.00000     0.75552    0.00113     0.75665
      H   19    0.23599      0.00000     0.76310    0.00091     0.76401
      H   20    0.23362      0.00000     0.76533    0.00105     0.76638
      H   21    0.24523      0.00000     0.75370    0.00107     0.75477
      H   22    0.23384      0.00000     0.76509    0.00107     0.76616
      H   23    0.23498      0.00000     0.76410    0.00092     0.76502
      H   24    0.24307      0.00000     0.75587    0.00105     0.75693
      H   25    0.24214      0.00000     0.75681    0.00105     0.75786
      H   26    0.22902      0.00000     0.77005    0.00092     0.77098
      H   27    0.25295      0.00000     0.74616    0.00089     0.74705
      H   28    0.24508      0.00000     0.75418    0.00073     0.75492
      H   29    0.25168      0.00000     0.74706    0.00125     0.74832
      H   30    0.24694      0.00000     0.75225    0.00081     0.75306
      H   31    0.25850      0.00000     0.74102    0.00048     0.74150
      H   32    0.25504      0.00000     0.74436    0.00060     0.74496
 =======================================================================
   * Total *    0.00000     33.98573    87.71617    0.29811   122.00000

 Normal termination of Gaussian 09 at Wed Sep 29 11:45:38 2021.
