 Gaussian 09, Revision A.02,

 -----------------------------------
 #p opt b3lyp/6-31G* scf=(xqc,tight)
 -----------------------------------

 ------------------------------
 COc1cccc(c1)c1ccc(cc1)C_conf_0
 ------------------------------
 Symbolic Z-matrix:
 Charge =  0 Multiplicity = 1

 SCF Done:  E(RB3LYP) =  -617.144461680     A.U. after   14 cycles
 SCF Done:  E(RB3LYP) =  -617.146541942     A.U. after   12 cycles
 SCF Done:  E(RB3LYP) =  -617.146711284     A.U. after   11 cycles
 SCF Done:  E(RB3LYP) =  -617.146728093     A.U. after   10 cycles
 SCF Done:  E(RB3LYP) =  -617.146730892     A.U. after    8 cycles
 SCF Done:  E(RB3LYP) =  -617.146731579     A.U. after    8 cycles
 SCF Done:  E(RB3LYP) =  -617.146731935     A.U. after    7 cycles
 SCF Done:  E(RB3LYP) =  -617.146732132     A.U. after    7 cycles
 SCF Done:  E(RB3LYP) =  -617.146732155     A.U. after    7 cycles
 Optimization completed.
    -- Stationary point found.
 Normal termination of Gaussian 09 at Tue Sep 28 19:48:43 2021.

 ----------------------------------------------------------------------
 #p freq b3lyp/6-31G* volume NMR pop=NPA density=current Geom=AllCheck
 Guess=Read
 ----------------------------------------------------------------------

 COc1cccc(c1)c1ccc(cc1)C_conf_0
 ------------------------------
 Redundant internal coordinates taken from checkpoint file:
 C14H14O_5486_conf_0.chk
 Charge =  0 Multiplicity = 1

 SCF Done:  E(RB3LYP) =  -617.146732155     A.U. after    1 cycles

  1  C    Isotropic =   137.4325   Anisotropy =    65.3533

  2  O    Isotropic =   237.7619   Anisotropy =    75.6691

  3  C    Isotropic =    38.4882   Anisotropy =   125.7054

  4  C    Isotropic =    87.8729   Anisotropy =   141.8323

  5  C    Isotropic =    66.7900   Anisotropy =   162.2800

  6  C    Isotropic =    76.4872   Anisotropy =   143.1646

  7  C    Isotropic =    52.5896   Anisotropy =   172.8097

  8  C    Isotropic =    79.3127   Anisotropy =   123.6415

  9  C    Isotropic =    56.3077   Anisotropy =   173.8460

 10  C    Isotropic =    68.5921   Anisotropy =   151.9149

 11  C    Isotropic =    66.6701   Anisotropy =   146.0019

 12  C    Isotropic =    59.6974   Anisotropy =   177.8769

 13  C    Isotropic =    67.1578   Anisotropy =   150.4598

 14  C    Isotropic =    68.5756   Anisotropy =   151.9545

 15  C    Isotropic =   167.8279   Anisotropy =    34.4872

 16  H    Isotropic =    28.2841   Anisotropy =     8.1861

 17  H    Isotropic =    28.6286   Anisotropy =     8.2726

 18  H    Isotropic =    28.5998   Anisotropy =     8.2567

 19  H    Isotropic =    25.8604   Anisotropy =     6.8198

 20  H    Isotropic =    25.0166   Anisotropy =     4.9090

 21  H    Isotropic =    25.3040   Anisotropy =     7.7416

 22  H    Isotropic =    25.4058   Anisotropy =     9.6347

 23  H    Isotropic =    24.9041   Anisotropy =     8.7332

 24  H    Isotropic =    25.1147   Anisotropy =     6.8066

 25  H    Isotropic =    25.0583   Anisotropy =     6.9127

 26  H    Isotropic =    24.8984   Anisotropy =     8.5264

 27  H    Isotropic =    30.2111   Anisotropy =     7.2126

 28  H    Isotropic =    29.7139   Anisotropy =     8.3271

 29  H    Isotropic =    29.9683   Anisotropy =     7.5206

  Exact polarizability: 244.812   4.148 144.245  -3.669   6.878  72.843
 Approx polarizability: 326.015   3.934 254.659  -7.706  15.291 114.330

                     1                      2                      3
                     A                      A                      A
 Frequencies --    35.1551                49.5884                64.5579
 Red. masses --     1.0334                 3.4676                 3.7865
 Frc consts  --     0.0008                 0.0050                 0.0093
 IR Inten    --     0.3275                 0.9103                 1.3358

                     4                      5                      6
                     A                      A                      A
 Frequencies --    79.8652               104.0874               177.9221
 Red. masses --     3.6271                 3.9203                 3.8801
 Frc consts  --     0.0136                 0.0250                 0.0724
 IR Inten    --     2.1731                 0.7377                 0.2179

                     7                      8                      9
                     A                      A                      A
 Frequencies --   211.9574               253.8443               266.4704
 Red. masses --     1.6156                 3.5505                 4.3848
 Frc consts  --     0.0428                 0.1348                 0.1834
 IR Inten    --     0.2396                 1.4438                 0.5794

                    10                     11                     12
                     A                      A                      A
 Frequencies --   277.0474               302.3730               348.8504
 Red. masses --     1.9388                 3.6541                 3.5041
 Frc consts  --     0.0877                 0.1968                 0.2512
 IR Inten    --     0.5782                 0.7063                 0.4788

                    13                     14                     15
                     A                      A                      A
 Frequencies --   391.5958               420.8317               457.9624
 Red. masses --     3.5358                 3.0716                 3.5469
 Frc consts  --     0.3195                 0.3205                 0.4383
 IR Inten    --     0.3625                 0.3027                 3.1528

                    16                     17                     18
                     A                      A                      A
 Frequencies --   487.9739               535.4263               566.8158
 Red. masses --     3.7293                 3.2858                 5.1035
 Frc consts  --     0.5232                 0.5550                 0.9661
 IR Inten    --     1.5375                 7.3273                 1.3206

                    19                     20                     21
                     A                      A                      A
 Frequencies --   583.0765               627.4768               659.3003
 Red. masses --     4.7105                 4.2690                 6.4653
 Frc consts  --     0.9436                 0.9903                 1.6558
 IR Inten    --     6.2499                 1.0327                 0.0941

                    22                     23                     24
                     A                      A                      A
 Frequencies --   702.8070               709.9104               737.0472
 Red. masses --     5.2985                 2.5698                 3.0588
 Frc consts  --     1.5420                 0.7631                 0.9790
 IR Inten    --     1.6495                 5.9475                 0.9632

                    25                     26                     27
                     A                      A                      A
 Frequencies --   790.6644               806.9960               838.2393
 Red. masses --     1.4948                 4.6411                 1.4908
 Frc consts  --     0.5506                 1.7808                 0.6172
 IR Inten    --    48.3503                 7.4965                25.3012

                    28                     29                     30
                     A                      A                      A
 Frequencies --   857.6727               876.4017               883.6044
 Red. masses --     1.2521                 4.6073                 1.4441
 Frc consts  --     0.5427                 2.0850                 0.6643
 IR Inten    --     0.7252                10.8726                 1.3870

                    31                     32                     33
                     A                      A                      A
 Frequencies --   896.7146               963.8031               966.3233
 Red. masses --     1.4964                 1.2735                 1.3203
 Frc consts  --     0.7089                 0.6970                 0.7264
 IR Inten    --    12.2898                 0.6592                 0.2882

                    34                     35                     36
                     A                      A                      A
 Frequencies --   968.9710              1012.3130              1018.8954
 Red. masses --     1.2844                 5.9645                 1.4136
 Frc consts  --     0.7105                 3.6013                 0.8646
 IR Inten    --     0.4991                 0.4128                 0.6501

                    37                     38                     39
                     A                      A                      A
 Frequencies --  1035.8964              1064.3633              1074.9237
 Red. masses --     3.5941                 2.9851                 1.5235
 Frc consts  --     2.2724                 1.9925                 1.0372
 IR Inten    --     9.7479                12.3363                15.5566

                    40                     41                     42
                     A                      A                      A
 Frequencies --  1093.4522              1130.1619              1152.8541
 Red. masses --     2.7544                 1.6294                 1.3230
 Frc consts  --     1.9404                 1.2262                 1.0360
 IR Inten    --    53.6990                 4.3582                 5.6669

                    43                     44                     45
                     A                      A                      A
 Frequencies --  1184.3976              1206.4354              1213.8288
 Red. masses --     1.2703                 1.1334                 1.4402
 Frc consts  --     1.0499                 0.9719                 1.2502
 IR Inten    --     0.7668                15.4722                16.8581

                    46                     47                     48
                     A                      A                      A
 Frequencies --  1223.6683              1242.8533              1256.4440
 Red. masses --     1.1372                 3.2747                 2.3270
 Frc consts  --     1.0033                 2.9803                 2.1644
 IR Inten    --     5.0097                13.3268               112.9054

                    49                     50                     51
                     A                      A                      A
 Frequencies --  1312.5966              1333.2951              1342.7160
 Red. masses --     2.4847                 3.2678                 2.6247
 Frc consts  --     2.5223                 3.4226                 2.7880
 IR Inten    --     5.7547               116.5846                10.4246

                    52                     53                     54
                     A                      A                      A
 Frequencies --  1351.2098              1373.5313              1442.1715
 Red. masses --     1.6135                 3.4863                 1.2457
 Frc consts  --     1.7357                 3.8751                 1.5265
 IR Inten    --     8.4360                31.8913                 0.8952

                    55                     56                     57
                     A                      A                      A
 Frequencies --  1447.0198              1484.9937              1501.1245
 Red. masses --     2.6922                 2.2641                 1.3994
 Frc consts  --     3.3213                 2.9416                 1.8579
 IR Inten    --     9.2796                40.9275                 2.7422

                    58                     59                     60
                     A                      A                      A
 Frequencies --  1517.6852              1519.3264              1521.9273
 Red. masses --     1.0510                 1.0489                 1.1412
 Frc consts  --     1.4263                 1.4266                 1.5574
 IR Inten    --     5.5909                 5.1709                 5.3859

                    61                     62                     63
                     A                      A                      A
 Frequencies --  1534.8404              1536.5650              1567.6057
 Red. masses --     1.3259                 1.5573                 2.6528
 Frc consts  --     1.8403                 2.1663                 3.8409
 IR Inten    --    83.6383                 9.1037                14.9693

                    64                     65                     66
                     A                      A                      A
 Frequencies --  1618.6325              1638.1498              1665.7744
 Red. masses --     4.9595                 5.7591                 6.0078
 Frc consts  --     7.6557                 9.1057                 9.8220
 IR Inten    --    28.9607                51.6097               104.5432

                    67                     68                     69
                     A                      A                      A
 Frequencies --  1673.6104              3023.2930              3039.4704
 Red. masses --     5.8101                 1.0349                 1.0405
 Frc consts  --     9.5883                 5.5732                 5.6634
 IR Inten    --     1.2855                64.3921                41.0301

                    70                     71                     72
                     A                      A                      A
 Frequencies --  3081.3653              3095.2485              3123.2340
 Red. masses --     1.1066                 1.0960                 1.1023
 Frc consts  --     6.1907                 6.1865                 6.3352
 IR Inten    --    45.1069                22.6771                16.8101

                    73                     74                     75
                     A                      A                      A
 Frequencies --  3155.5016              3173.9267              3175.7771
 Red. masses --     1.0995                 1.0878                 1.0879
 Frc consts  --     6.4502                 6.4565                 6.4648
 IR Inten    --    28.2765                20.7436                23.5751

                    76                     77                     78
                     A                      A                      A
 Frequencies --  3186.4042              3198.5045              3201.1421
 Red. masses --     1.0872                 1.0927                 1.0932
 Frc consts  --     6.5034                 6.5864                 6.6001
 IR Inten    --    14.4015                17.2709                 3.5104

                    79                     80                     81
                     A                      A                      A
 Frequencies --  3210.2407              3215.1584              3228.3170
 Red. masses --     1.0921                 1.0903                 1.0919
 Frc consts  --     6.6310                 6.6405                 6.7051
 IR Inten    --    19.9683                 1.8639                13.5418

 - Thermochemistry -
 -------------------
 Temperature   298.150 Kelvin.  Pressure   1.00000 Atm.
 Atom     1 has atomic number  6 and mass  12.00000

 Molecular mass:   198.10447 amu.
 Principal axes and moments of inertia in atomic units:
                           1         2         3
     Eigenvalues --  1021.887416797.349837617.10856
           X            1.00000   0.00180  -0.00044
           Y           -0.00180   0.99995   0.00970
           Z            0.00045  -0.00970   0.99995
 This molecule is an asymmetric top.
 Rotational symmetry number  1.
 Warning -- assumption of classical behavior for rotation
           may cause significant error
 Rotational temperatures (Kelvin)      0.08476     0.01274     0.01137
 Rotational constants (GHZ):           1.76609     0.26551     0.23693
 Zero-point vibrational energy     635828.2 (Joules/Mol)
                                  151.96659 (Kcal/Mol)
 Warning -- explicit consideration of  19 degrees of freedom as
           vibrations may cause significant error
 Vibrational temperatures:     50.58    71.35    92.88   114.91   149.76
          (Kelvin)            255.99   304.96   365.22   383.39   398.61
                              435.05   501.92   563.42   605.48   658.90
                              702.08   770.36   815.52   838.92   902.80
                              948.58  1011.18  1021.40  1060.45  1137.59
                             1161.09  1206.04  1234.00  1260.94  1271.31
                             1290.17  1386.70  1390.32  1394.13  1456.49
                             1465.96  1490.42  1531.38  1546.57  1573.23
                             1626.05  1658.70  1704.08  1735.79  1746.43
                             1760.58  1788.19  1807.74  1888.53  1918.31
                             1931.87  1944.09  1976.20  2074.96  2081.94
                             2136.57  2159.78  2183.61  2185.97  2189.71
                             2208.29  2210.77  2255.43  2328.85  2356.93
                             2396.67  2407.95  4349.84  4373.11  4433.39
                             4453.37  4493.63  4540.06  4566.57  4569.23
                             4584.52  4601.93  4605.72  4618.81  4625.89
                             4644.82

 Zero-point correction=                           0.242174 (Hartree/Particle)
 Thermal correction to Energy=                    0.255577
 Thermal correction to Enthalpy=                  0.256521
 Thermal correction to Gibbs Free Energy=         0.200949
 Sum of electronic and zero-point Energies=           -616.904558
 Sum of electronic and thermal Energies=              -616.891155
 Sum of electronic and thermal Enthalpies=            -616.890211
 Sum of electronic and thermal Free Energies=         -616.945783

                     E (Thermal)             CV                S
                      KCal/Mol        Cal/Mol-Kelvin    Cal/Mol-Kelvin
 Total                  160.377             51.526            116.962
 Electronic               0.000              0.000              0.000
 Translational            0.889              2.981             41.756
 Rotational               0.889              2.981             32.337
 Vibrational            158.600             45.564             42.869
 Vibration     1          0.594              1.982              5.515
 Vibration     2          0.595              1.978              4.834
 Vibration     3          0.597              1.971              4.313
 Vibration     4          0.600              1.963              3.894
 Vibration     5          0.605              1.946              3.376
 Vibration     6          0.628              1.869              2.350
 Vibration     7          0.643              1.823              2.027
 Vibration     8          0.665              1.756              1.704
 Vibration     9          0.672              1.735              1.619
 Vibration    10          0.678              1.716              1.552
 Vibration    11          0.694              1.669              1.404
 Vibration    12          0.726              1.578              1.171
 Vibration    13          0.759              1.488              0.994
 Vibration    14          0.783              1.425              0.889
 Vibration    15          0.816              1.343              0.772
 Vibration    16          0.844              1.277              0.689
 Vibration    17          0.890              1.172              0.575
 Vibration    18          0.923              1.103              0.510
 Vibration    19          0.940              1.068              0.480

 Normal termination of Gaussian 09 at Tue Sep 28 20:47:09 2021.
 Gaussian 09:  AM64L-G09RevA.02 11-Jun-2009

 ----------------------------------------------------------------------
 #p TD(NStates=10, Root=1) b3lyp/6-31G* volume pop=NPA density=current
 Geom=AllCheck Guess=Read
 ----------------------------------------------------------------------

 COc1cccc(c1)c1ccc(cc1)C_conf_0
 ------------------------------
 Redundant internal coordinates taken from checkpoint file:
 C14H14O_5486_conf_0.chk
 Charge =  0 Multiplicity = 1

                         Standard orientation:
 ---------------------------------------------------------------------
 Center     Atomic      Atomic             Coordinates (Angstroms)
 Number     Number       Type             X           Y           Z
 ---------------------------------------------------------------------
      1          6           0        4.920273   -1.236773    0.277817
      2          8           0        3.514397   -1.418928    0.290411
      3          6           0        2.719741   -0.328873    0.068352
      4          6           0        3.195416    0.963165   -0.180800
      5          6           0        2.273274    1.994546   -0.383999
      6          6           0        0.904367    1.756514   -0.341568
      7          6           0        0.418429    0.458608   -0.090183
      8          6           0        1.341006   -0.572350    0.113756
      9          6           0       -1.041357    0.187090   -0.042518
     10          6           0       -1.578751   -1.003765   -0.555502
     11          6           0       -2.948470   -1.255435   -0.505392
     12          6           0       -3.837658   -0.330151    0.054493
     13          6           0       -3.301716    0.857873    0.569725
     14          6           0       -1.933901    1.113812    0.521916
     15          6           0       -5.325687   -0.589872    0.082646
     16          1           0        5.351559   -2.218745    0.481617
     17          1           0        5.244138   -0.530930    1.054478
     18          1           0        5.274576   -0.882076   -0.699433
     19          1           0        4.257800    1.174435   -0.218620
     20          1           0        2.639385    2.997617   -0.587617
     21          1           0        0.206456    2.566029   -0.531726
     22          1           0        1.009367   -1.580725    0.339703
     23          1           0       -0.918548   -1.732282   -1.017965
     24          1           0       -3.334294   -2.185978   -0.916277
     25          1           0       -3.965090    1.590509    1.024960
     26          1           0       -1.547111    2.032117    0.955180
     27          1           0       -5.548351   -1.657457   -0.015554
     28          1           0       -5.837152   -0.072418   -0.740248
     29          1           0       -5.777692   -0.234994    1.015763
 ---------------------------------------------------------------------

 SCF Done:  E(RB3LYP) =  -617.146732155     A.U. after    1 cycles

 Excitation energies and oscillator strengths:

 Excited State   1:      Singlet-A      4.6423 eV  267.08 nm  f=0.0948  <S**2>=0.000
      52 -> 54        -0.31616
      52 -> 56        -0.12582
      53 -> 54         0.57231
      53 -> 56        -0.18184
 This state for optimization and/or second-order correction.
 Total Energy, E(TD-HF/TD-KS) =  -616.976130949
 Copying the excited state density for this state as the 1-particle RhoCI density.

 Excited State   2:      Singlet-A      4.9833 eV  248.80 nm  f=0.4026  <S**2>=0.000
      51 -> 54         0.13120
      52 -> 54         0.54722
      53 -> 54         0.35034
      53 -> 56         0.17533

 Excited State   3:      Singlet-A      4.9851 eV  248.71 nm  f=0.0406  <S**2>=0.000
      51 -> 54        -0.41861
      52 -> 54         0.12679
      52 -> 55         0.22264
      53 -> 54         0.13825
      53 -> 55         0.47309

 Excited State   4:      Singlet-A      5.3848 eV  230.25 nm  f=0.0104  <S**2>=0.000
      51 -> 54        -0.18158
      52 -> 55         0.51590
      53 -> 55        -0.42865

 Excited State   5:      Singlet-A      5.5101 eV  225.01 nm  f=0.0438  <S**2>=0.000
      50 -> 54        -0.20240
      51 -> 54         0.10064
      52 -> 54        -0.23774
      52 -> 56         0.11801
      52 -> 57         0.13687
      53 -> 54         0.10324
      53 -> 55         0.12343
      53 -> 56         0.54216
      53 -> 57        -0.16087

 Excited State   6:      Singlet-A      5.8559 eV  211.72 nm  f=0.1218  <S**2>=0.000
      50 -> 54         0.20081
      50 -> 55        -0.16356
      51 -> 54         0.41607
      51 -> 56        -0.10973
      51 -> 57         0.11082
      52 -> 55         0.36019
      52 -> 56         0.18221
      53 -> 55         0.19455
      53 -> 56        -0.14374

 Excited State   7:      Singlet-A      5.9182 eV  209.50 nm  f=0.1980  <S**2>=0.000
      50 -> 55         0.12467
      51 -> 54        -0.17984
      52 -> 56         0.61394
      53 -> 57        -0.12984

 Excited State   8:      Singlet-A      6.0217 eV  205.89 nm  f=0.0522  <S**2>=0.000
      50 -> 54         0.52355
      52 -> 57         0.35918
      53 -> 56         0.15935
      53 -> 57         0.17853

 Excited State   9:      Singlet-A      6.2634 eV  197.95 nm  f=0.0258  <S**2>=0.000
      50 -> 54        -0.10704
      50 -> 55         0.22007
      50 -> 56         0.20373
      51 -> 55        -0.25414
      51 -> 56        -0.22960
      52 -> 57        -0.10196
      53 -> 56         0.10731
      53 -> 57         0.49467

 Excited State  10:      Singlet-A      6.3028 eV  196.71 nm  f=0.0175  <S**2>=0.000
      50 -> 55        -0.13976
      50 -> 56         0.18618
      51 -> 55         0.14487
      51 -> 56         0.56181
      52 -> 57        -0.14767
      53 -> 57         0.26443

 The electronic state is 1-A.
 Alpha  occ. eigenvalues --  -19.17454 -10.24339 -10.23941 -10.19469 -10.19257
 Alpha  occ. eigenvalues --  -10.19112 -10.18769 -10.18371 -10.18353 -10.18309
 Alpha  occ. eigenvalues --  -10.18209 -10.18203 -10.18162 -10.17842 -10.17795
 Alpha  occ. eigenvalues --   -1.06029  -0.85994  -0.83975  -0.78059  -0.75242
 Alpha  occ. eigenvalues --   -0.73740  -0.73467  -0.69163  -0.67705  -0.61250
 Alpha  occ. eigenvalues --   -0.60256  -0.58451  -0.56467  -0.53146  -0.48549
 Alpha  occ. eigenvalues --   -0.48210  -0.47723  -0.46586  -0.45180  -0.44958
 Alpha  occ. eigenvalues --   -0.42551  -0.41670  -0.41521  -0.41167  -0.40524
 Alpha  occ. eigenvalues --   -0.38445  -0.37293  -0.36422  -0.36152  -0.34847
 Alpha  occ. eigenvalues --   -0.33776  -0.33047  -0.32036  -0.31396  -0.26202
 Alpha  occ. eigenvalues --   -0.24419  -0.22072  -0.21111
 Alpha virt. eigenvalues --   -0.02005   0.00364   0.01150   0.03916   0.09670
 Alpha virt. eigenvalues --    0.10434   0.11240   0.12530   0.12934   0.13854
 Alpha virt. eigenvalues --    0.14246   0.15517   0.16188   0.16769   0.16962

 Mulliken atomic charges:
              1
     1  C   -0.234058
     2  O   -0.443063
     3  C    0.372788
     4  C   -0.190431
     5  C   -0.151758
     6  C   -0.134821
     7  C    0.077221
     8  C   -0.234522
     9  C    0.068412
    10  C   -0.186399
    11  C   -0.187128
    12  C    0.163007
    13  C   -0.188798
    14  C   -0.185491
    15  C   -0.526124
    16  H    0.187257
    17  H    0.176838
    18  H    0.176593
    19  H    0.134429
    20  H    0.140281
    21  H    0.160719
    22  H    0.150359
    23  H    0.105443
    24  H    0.104371
    25  H    0.103320
    26  H    0.103150
    27  H    0.144201
    28  H    0.149213
    29  H    0.144990
 Sum of Mulliken atomic charges =   0.00000

 Dipole moment (field-independent basis, Debye):
    X=              6.3718    Y=              0.4893    Z=             -0.0622  Tot=              6.3909
 Quadrupole moment (field-independent basis, Debye-Ang):
   XX=            -65.7005   YY=            -82.1836   ZZ=            -91.3854
   XY=             -2.4881   XZ=              0.3035   YZ=              0.4883

 Summary of Natural Population Analysis:

                                       Natural Population
                Natural  -----------------------------------------------
    Atom  No    Charge         Core      Valence    Rydberg      Total
 -----------------------------------------------------------------------
      C    1   -0.32836      1.99942     4.31476    0.01419     6.32836
      O    2   -0.42306      1.99975     6.41170    0.01161     8.42306
      C    3    0.36246      1.99879     3.61607    0.02268     5.63754
      C    4   -0.33141      1.99904     4.31754    0.01484     6.33141
      C    5   -0.24494      1.99915     4.22846    0.01734     6.24494
      C    6   -0.11262      1.99905     4.09979    0.01378     6.11262
      C    7   -0.04725      1.99906     4.03101    0.01718     6.04725
      C    8   -0.28729      1.99900     4.27116    0.01713     6.28729
      C    9   -0.12369      1.99901     4.10848    0.01619     6.12369
      C   10   -0.24182      1.99905     4.22876    0.01401     6.24182
      C   11   -0.22589      1.99904     4.21356    0.01329     6.22589
      C   12   -0.07922      1.99903     4.06514    0.01505     6.07922
      C   13   -0.23671      1.99903     4.22396    0.01372     6.23671
      C   14   -0.22842      1.99905     4.21596    0.01340     6.22842
      C   15   -0.68087      1.99940     4.67432    0.00715     6.68087
      H   16    0.23740      0.00000     0.76212    0.00048     0.76260
      H   17    0.21977      0.00000     0.77853    0.00170     0.78023
      H   18    0.21958      0.00000     0.77872    0.00170     0.78042
      H   19    0.23549      0.00000     0.76353    0.00098     0.76451
      H   20    0.23976      0.00000     0.75940    0.00084     0.76024
      H   21    0.24348      0.00000     0.75550    0.00101     0.75652
      H   22    0.25035      0.00000     0.74826    0.00139     0.74965
      H   23    0.22303      0.00000     0.77570    0.00127     0.77697
      H   24    0.22406      0.00000     0.77485    0.00109     0.77594
      H   25    0.22391      0.00000     0.77497    0.00112     0.77609
      H   26    0.22022      0.00000     0.77862    0.00116     0.77978
      H   27    0.23054      0.00000     0.76849    0.00097     0.76946
      H   28    0.23090      0.00000     0.76732    0.00178     0.76910
      H   29    0.23058      0.00000     0.76811    0.00131     0.76942
 =======================================================================
   * Total *    0.00000     29.98686    75.77477    0.23837   106.00000

 Normal termination of Gaussian 09 at Wed Sep 29 00:31:42 2021.
