 Gaussian 09, Revision A.02,

 -----------------------------------
 #p opt b3lyp/6-31G* scf=(xqc,tight)
 -----------------------------------

 --------------------------------
 CC(Oc1ccc2c(c1)cccc2)(C)C_conf_0
 --------------------------------
 Symbolic Z-matrix:
 Charge =  0 Multiplicity = 1

 SCF Done:  E(RB3LYP) =  -618.354042051     A.U. after   14 cycles
 SCF Done:  E(RB3LYP) =  -618.358907925     A.U. after   15 cycles
 SCF Done:  E(RB3LYP) =  -618.357085002     A.U. after   15 cycles
 SCF Done:  E(RB3LYP) =  -618.359235682     A.U. after   12 cycles
 SCF Done:  E(RB3LYP) =  -618.359459248     A.U. after   15 cycles
 SCF Done:  E(RB3LYP) =  -618.359501734     A.U. after   11 cycles
 SCF Done:  E(RB3LYP) =  -618.359580548     A.U. after   11 cycles
 SCF Done:  E(RB3LYP) =  -618.359593064     A.U. after    9 cycles
 SCF Done:  E(RB3LYP) =  -618.359595298     A.U. after    8 cycles
 SCF Done:  E(RB3LYP) =  -618.359595995     A.U. after    8 cycles
 SCF Done:  E(RB3LYP) =  -618.361683508     A.U. after   11 cycles
 SCF Done:  E(RB3LYP) =  -618.361880613     A.U. after   12 cycles
 SCF Done:  E(RB3LYP) =  -618.361837463     A.U. after   12 cycles
 SCF Done:  E(RB3LYP) =  -618.361955699     A.U. after   11 cycles
 SCF Done:  E(RB3LYP) =  -618.361966584     A.U. after   10 cycles
 SCF Done:  E(RB3LYP) =  -618.361973509     A.U. after   10 cycles
 SCF Done:  E(RB3LYP) =  -618.361972680     A.U. after    9 cycles
 SCF Done:  E(RB3LYP) =  -618.361972967     A.U. after    7 cycles
 Optimization completed.
    -- Stationary point found.
 Normal termination of Gaussian 09 at Thu Sep 30 13:09:37 2021.

 ----------------------------------------------------------------------
 #p freq b3lyp/6-31G* volume NMR pop=NPA density=current Geom=AllCheck
 Guess=Read
 ----------------------------------------------------------------------

 CC(Oc1ccc2c(c1)cccc2)(C)C_conf_0
 --------------------------------
 Redundant internal coordinates taken from checkpoint file:
 C14H16O_13d7_conf_0.chk
 Charge =  0 Multiplicity = 1

 SCF Done:  E(RB3LYP) =  -618.361972967     A.U. after    1 cycles

  1  C    Isotropic =   163.4657   Anisotropy =    32.2590

  2  C    Isotropic =   112.6084   Anisotropy =    66.2155

  3  O    Isotropic =   203.3527   Anisotropy =    93.6061

  4  C    Isotropic =    43.5008   Anisotropy =   121.4386

  5  C    Isotropic =    69.5732   Anisotropy =   140.5658

  6  C    Isotropic =    66.9720   Anisotropy =   141.3153

  7  C    Isotropic =    66.2061   Anisotropy =   196.5401

  8  C    Isotropic =    62.7746   Anisotropy =   194.4521

  9  C    Isotropic =    71.8086   Anisotropy =   122.0292

 10  C    Isotropic =    68.3413   Anisotropy =   143.9865

 11  C    Isotropic =    70.3148   Anisotropy =   161.7838

 12  C    Isotropic =    71.6293   Anisotropy =   159.6264

 13  C    Isotropic =    67.8818   Anisotropy =   145.6511

 14  C    Isotropic =   163.0695   Anisotropy =    32.0388

 15  C    Isotropic =   158.7924   Anisotropy =    42.0617

 16  H    Isotropic =    30.6049   Anisotropy =     4.5683

 17  H    Isotropic =    31.2218   Anisotropy =     8.3279

 18  H    Isotropic =    30.7627   Anisotropy =     7.6240

 19  H    Isotropic =    25.0232   Anisotropy =     8.2736

 20  H    Isotropic =    24.6171   Anisotropy =     7.0472

 21  H    Isotropic =    24.9231   Anisotropy =     9.8932

 22  H    Isotropic =    24.6396   Anisotropy =     7.8774

 23  H    Isotropic =    24.8284   Anisotropy =     5.2567

 24  H    Isotropic =    24.8823   Anisotropy =     4.9188

 25  H    Isotropic =    24.6009   Anisotropy =     6.9465

 26  H    Isotropic =    30.7547   Anisotropy =     4.3737

 27  H    Isotropic =    30.7822   Anisotropy =     7.6078

 28  H    Isotropic =    31.2011   Anisotropy =     8.3969

 29  H    Isotropic =    30.5064   Anisotropy =     7.3232

 30  H    Isotropic =    31.0048   Anisotropy =     8.2586

 31  H    Isotropic =    30.5199   Anisotropy =     7.3960

  Exact polarizability: 227.505   9.691 150.636 -12.786   3.857  77.733
 Approx polarizability: 333.255  21.382 260.950 -30.712   7.876 120.723

                     1                      2                      3
                     A                      A                      A
 Frequencies --    23.2489                62.8829                72.3564
 Red. masses --     3.0554                 4.0461                 3.8425
 Frc consts  --     0.0010                 0.0094                 0.0119
 IR Inten    --     0.0145                 0.6298                 0.7457

                     4                      5                      6
                     A                      A                      A
 Frequencies --   165.9261               190.2492               215.7795
 Red. masses --     4.5333                 3.5886                 1.0245
 Frc consts  --     0.0735                 0.0765                 0.0281
 IR Inten    --     0.6415                 0.5770                 0.0228

                     7                      8                      9
                     A                      A                      A
 Frequencies --   244.7567               273.0467               274.4180
 Red. masses --     2.6234                 1.3075                 1.7020
 Frc consts  --     0.0926                 0.0574                 0.0755
 IR Inten    --     0.0913                 0.0069                 0.1098

                    10                     11                     12
                     A                      A                      A
 Frequencies --   287.2704               312.9252               344.2440
 Red. masses --     1.2542                 3.9797                 2.8834
 Frc consts  --     0.0610                 0.2296                 0.2013
 IR Inten    --     0.6261                 0.1904                 0.5461

                    13                     14                     15
                     A                      A                      A
 Frequencies --   383.5286               414.2315               420.6605
 Red. masses --     2.6385                 3.1504                 2.8663
 Frc consts  --     0.2287                 0.3185                 0.2988
 IR Inten    --     0.6241                 0.0147                 0.5116

                    16                     17                     18
                     A                      A                      A
 Frequencies --   450.9846               476.6626               491.9844
 Red. masses --     2.6400                 4.1010                 2.6720
 Frc consts  --     0.3164                 0.5490                 0.3811
 IR Inten    --     0.9586                 6.7315                10.7447

                    19                     20                     21
                     A                      A                      A
 Frequencies --   511.9793               535.2776               570.5874
 Red. masses --     4.2387                 5.9143                 4.0229
 Frc consts  --     0.6546                 0.9984                 0.7717
 IR Inten    --     0.6486                 1.4031                 1.5100

                    22                     23                     24
                     A                      A                      A
 Frequencies --   635.1371               660.4587               716.2499
 Red. masses --     5.8242                 4.0455                 2.5192
 Frc consts  --     1.3843                 1.0397                 0.7615
 IR Inten    --     4.7478                 6.5951                 2.7431

                    25                     26                     27
                     A                      A                      A
 Frequencies --   768.5971               771.7683               778.1877
 Red. masses --     1.8282                 3.1607                 2.8823
 Frc consts  --     0.6363                 1.1092                 1.0284
 IR Inten    --    23.8902                 6.5868                 6.4945

                    28                     29                     30
                     A                      A                      A
 Frequencies --   784.1560               833.4938               861.6043
 Red. masses --     4.6470                 1.4365                 2.2222
 Frc consts  --     1.6836                 0.5880                 0.9719
 IR Inten    --     0.1414                13.8683                 9.5432

                    31                     32                     33
                     A                      A                      A
 Frequencies --   884.3116               908.1511               922.1059
 Red. masses --     1.9448                 1.7116                 1.6680
 Frc consts  --     0.8961                 0.8317                 0.8356
 IR Inten    --    20.8656                17.3683                 0.2434

                    34                     35                     36
                     A                      A                      A
 Frequencies --   930.7363               941.4901               952.6979
 Red. masses --     2.0895                 2.5092                 1.3818
 Frc consts  --     1.0665                 1.3104                 0.7389
 IR Inten    --    12.0092                20.1578                 6.6189

                    37                     38                     39
                     A                      A                      A
 Frequencies --   964.6645               975.5079               987.4034
 Red. masses --     1.3198                 1.2014                 1.3093
 Frc consts  --     0.7236                 0.6736                 0.7521
 IR Inten    --     0.5864                 0.0338                 2.4242

                    40                     41                     42
                     A                      A                      A
 Frequencies --   990.6742              1050.8041              1056.1421
 Red. masses --     3.1589                 2.2909                 1.4143
 Frc consts  --     1.8266                 1.4904                 0.9295
 IR Inten    --    55.6021                 1.1531                 1.2549

                    43                     44                     45
                     A                      A                      A
 Frequencies --  1064.9968              1151.1515              1175.8555
 Red. masses --     1.4119                 1.6276                 1.2572
 Frc consts  --     0.9435                 1.2708                 1.0241
 IR Inten    --     1.9183                18.1557                 1.5915

                    46                     47                     48
                     A                      A                      A
 Frequencies --  1186.8831              1196.6858              1223.3015
 Red. masses --     1.1943                 1.7678                 1.9712
 Frc consts  --     0.9912                 1.4916                 1.7380
 IR Inten    --     0.3691               213.7984               132.6696

                    49                     50                     51
                     A                      A                      A
 Frequencies --  1255.4012              1272.1282              1286.0625
 Red. masses --     2.4546                 2.6564                 1.9330
 Frc consts  --     2.2792                 2.5328                 1.8837
 IR Inten    --    20.6904                12.7706                56.3106

                    52                     53                     54
                     A                      A                      A
 Frequencies --  1293.4737              1295.5746              1388.0929
 Red. masses --     2.8063                 1.9874                 2.1748
 Frc consts  --     2.7663                 1.9655                 2.4689
 IR Inten    --    20.7097                12.9685                 6.7302

                    55                     56                     57
                     A                      A                      A
 Frequencies --  1411.5921              1416.9399              1425.4146
 Red. masses --     4.0966                 5.6045                 1.2828
 Frc consts  --     4.8095                 6.6296                 1.5357
 IR Inten    --    11.1751                 6.8239                14.6794

                    58                     59                     60
                     A                      A                      A
 Frequencies --  1427.2984              1452.0714              1483.6479
 Red. masses --     1.2922                 1.2327                 2.4887
 Frc consts  --     1.5511                 1.5313                 3.2276
 IR Inten    --     9.4630                15.1535                 3.1637

                    61                     62                     63
                     A                      A                      A
 Frequencies --  1502.0112              1514.9514              1516.1843
 Red. masses --     1.0483                 1.7995                 1.0518
 Frc consts  --     1.3934                 2.4334                 1.4246
 IR Inten    --     0.2885                21.8671                 1.6408

                    64                     65                     66
                     A                      A                      A
 Frequencies --  1517.6417              1526.5671              1529.3532
 Red. masses --     1.1738                 1.0594                 1.0666
 Frc consts  --     1.5928                 1.4546                 1.4699
 IR Inten    --    12.3828                 1.1628                 4.4808

                    67                     68                     69
                     A                      A                      A
 Frequencies --  1548.1574              1559.0170              1624.2567
 Red. masses --     1.0644                 3.2629                 6.9328
 Frc consts  --     1.5030                 4.6726                10.7763
 IR Inten    --     7.6014                32.6101                 2.8624

                    70                     71                     72
                     A                      A                      A
 Frequencies --  1657.4256              1685.3398              3052.5692
 Red. masses --     5.3457                 6.1782                 1.0349
 Frc consts  --     8.6521                10.3392                 5.6819
 IR Inten    --    46.5899                27.8917                16.8575

                    73                     74                     75
                     A                      A                      A
 Frequencies --  3054.9892              3062.6283              3119.7753
 Red. masses --     1.0348                 1.0356                 1.1022
 Frc consts  --     5.6902                 5.7233                 6.3208
 IR Inten    --    14.1812                14.2822                 3.2827

                    76                     77                     78
                     A                      A                      A
 Frequencies --  3123.4914              3130.6954              3133.9689
 Red. masses --     1.1024                 1.1036                 1.1022
 Frc consts  --     6.3368                 6.3728                 6.3782
 IR Inten    --    18.0233                 5.1275                64.6314

                    79                     80                     81
                     A                      A                      A
 Frequencies --  3134.7353              3135.8425              3176.3336
 Red. masses --     1.1025                 1.1029                 1.0857
 Frc consts  --     6.3830                 6.3897                 6.4535
 IR Inten    --    36.7562                31.4072                 2.6661

                    82                     83                     84
                     A                      A                      A
 Frequencies --  3180.3554              3183.1205              3194.7835
 Red. masses --     1.0883                 1.0883                 1.0932
 Frc consts  --     6.4854                 6.4969                 6.5741
 IR Inten    --     3.2538                 9.7694                32.8460

                    85                     86                     87
                     A                      A                      A
 Frequencies --  3205.9518              3208.2728              3217.5954
 Red. masses --     1.0914                 1.0964                 1.0934
 Frc consts  --     6.6090                 6.6490                 6.6693
 IR Inten    --    19.2526                27.2324                11.7612

 - Thermochemistry -
 -------------------
 Temperature   298.150 Kelvin.  Pressure   1.00000 Atm.
 Atom     1 has atomic number  6 and mass  12.00000

 Molecular mass:   200.12012 amu.
 Principal axes and moments of inertia in atomic units:
                           1         2         3
     Eigenvalues --  1137.210565626.311336266.57377
           X            0.99999  -0.00265   0.00401
           Y            0.00262   0.99997   0.00777
           Z           -0.00403  -0.00776   0.99996
 This molecule is an asymmetric top.
 Rotational symmetry number  1.
 Warning -- assumption of classical behavior for rotation
           may cause significant error
 Rotational temperatures (Kelvin)      0.07616     0.01539     0.01382
 Rotational constants (GHZ):           1.58699     0.32077     0.28799
 Zero-point vibrational energy     693833.6 (Joules/Mol)
                                  165.83022 (Kcal/Mol)
 Warning -- explicit consideration of  21 degrees of freedom as
           vibrations may cause significant error
 Vibrational temperatures:     33.45    90.47   104.10   238.73   273.73
          (Kelvin)            310.46   352.15   392.85   394.83   413.32
                              450.23   495.29   551.81   595.99   605.24
                              648.87   685.81   707.86   736.62   770.14
                              820.95   913.82   950.25  1030.52  1105.84
                             1110.40  1119.64  1128.22  1199.21  1239.65
                             1272.33  1306.63  1326.70  1339.12  1354.59
                             1370.72  1387.94  1403.54  1420.65  1425.36
                             1511.87  1519.55  1532.29  1656.25  1691.79
                             1707.66  1721.76  1760.06  1806.24  1830.31
                             1850.35  1861.02  1864.04  1997.15  2030.96
                             2038.66  2050.85  2053.56  2089.20  2134.64
                             2161.06  2179.67  2181.45  2183.55  2196.39
                             2200.40  2227.45  2243.07  2336.94  2384.66
                             2424.82  4391.96  4395.44  4406.43  4488.66
                             4494.00  4504.37  4509.08  4510.18  4511.77
                             4570.03  4575.82  4579.79  4596.58  4612.64
                             4615.98  4629.40

 Zero-point correction=                           0.264267 (Hartree/Particle)
 Thermal correction to Energy=                    0.277803
 Thermal correction to Enthalpy=                  0.278747
 Thermal correction to Gibbs Free Energy=         0.223976
 Sum of electronic and zero-point Energies=           -618.097706
 Sum of electronic and thermal Energies=              -618.084170
 Sum of electronic and thermal Enthalpies=            -618.083226
 Sum of electronic and thermal Free Energies=         -618.137997

                     E (Thermal)             CV                S
                      KCal/Mol        Cal/Mol-Kelvin    Cal/Mol-Kelvin
 Total                  174.324             54.547            115.275
 Electronic               0.000              0.000              0.000
 Translational            0.889              2.981             41.786
 Rotational               0.889              2.981             32.061
 Vibrational            172.546             48.586             41.428
 Vibration     1          0.593              1.985              6.335
 Vibration     2          0.597              1.972              4.365
 Vibration     3          0.598              1.967              4.088
 Vibration     4          0.624              1.884              2.481
 Vibration     5          0.634              1.853              2.225
 Vibration     6          0.645              1.817              1.994
 Vibration     7          0.660              1.771              1.768
 Vibration     8          0.676              1.723              1.577
 Vibration     9          0.677              1.721              1.568
 Vibration    10          0.684              1.697              1.490
 Vibration    11          0.701              1.649              1.347
 Vibration    12          0.723              1.587              1.192
 Vibration    13          0.753              1.505              1.025
 Vibration    14          0.778              1.439              0.912
 Vibration    15          0.783              1.425              0.890
 Vibration    16          0.810              1.359              0.793
 Vibration    17          0.833              1.302              0.719
 Vibration    18          0.848              1.268              0.678
 Vibration    19          0.867              1.223              0.629
 Vibration    20          0.890              1.172              0.576
 Vibration    21          0.927              1.095              0.503

 Optimization completed.
    -- Stationary point found.
 Normal termination of Gaussian 09 at Thu Sep 30 14:08:49 2021.
 Gaussian 09:  AM64L-G09RevA.02 11-Jun-2009

 ----------------------------------------------------------------------
 #p TD(NStates=10, Root=1) b3lyp/6-31G* volume pop=NPA density=current
 Geom=AllCheck Guess=Read
 ----------------------------------------------------------------------

 CC(Oc1ccc2c(c1)cccc2)(C)C_conf_0
 --------------------------------
 Redundant internal coordinates taken from checkpoint file:
 C14H16O_13d7_conf_0.chk
 Charge =  0 Multiplicity = 1

                         Standard orientation:
 ---------------------------------------------------------------------
 Center     Atomic      Atomic             Coordinates (Angstroms)
 Number     Number       Type             X           Y           Z
 ---------------------------------------------------------------------
      1          6           0        2.673391   -1.495586    0.924230
      2          6           0        2.999427   -0.207654    0.158374
      3          8           0        1.997647    0.041800   -0.878365
      4          6           0        0.682417    0.266562   -0.537401
      5          6           0        0.231111    1.602764   -0.359158
      6          6           0       -1.094991    1.861070   -0.102760
      7          6           0       -2.044795    0.807826   -0.014595
      8          6           0       -1.593871   -0.538435   -0.212357
      9          6           0       -0.219258   -0.776269   -0.477165
     10          6           0       -2.543281   -1.594030   -0.138933
     11          6           0       -3.869983   -1.333954    0.121108
     12          6           0       -4.314368   -0.003213    0.318452
     13          6           0       -3.420412    1.041726    0.250597
     14          6           0        3.099698    0.986225    1.116285
     15          6           0        4.291154   -0.367039   -0.646366
     16          1           0        1.731643   -1.406567    1.474719
     17          1           0        3.467211   -1.714656    1.647179
     18          1           0        2.593930   -2.343436    0.235483
     19          1           0        0.951797    2.409234   -0.448098
     20          1           0       -1.435055    2.885768    0.028774
     21          1           0        0.126305   -1.790884   -0.651332
     22          1           0       -2.202008   -2.615369   -0.291170
     23          1           0       -4.583693   -2.151740    0.175473
     24          1           0       -5.364267    0.188854    0.522409
     25          1           0       -3.756938    2.065343    0.399344
     26          1           0        2.166349    1.137438    1.668053
     27          1           0        3.330553    1.904722    0.566267
     28          1           0        3.898136    0.816337    1.847357
     29          1           0        4.200505   -1.200096   -1.350698
     30          1           0        5.138661   -0.562550    0.019360
     31          1           0        4.498264    0.543230   -1.218054
 ---------------------------------------------------------------------

 SCF Done:  E(RB3LYP) =  -618.361972967     A.U. after    1 cycles

 Excitation energies and oscillator strengths:

 Excited State   1:      Singlet-A      4.3247 eV  286.69 nm  f=0.0385  <S**2>=0.000
      53 -> 55         0.23359
      53 -> 56         0.15718
      54 -> 55         0.60356
      54 -> 56        -0.22911
 This state for optimization and/or second-order correction.
 Total Energy, E(TD-HF/TD-KS) =  -618.203043452
 Copying the excited state density for this state as the 1-particle RhoCI density.

 Excited State   2:      Singlet-A      4.5049 eV  275.22 nm  f=0.0141  <S**2>=0.000
      53 -> 55         0.46406
      54 -> 55        -0.32357
      54 -> 56        -0.41700

 Excited State   3:      Singlet-A      5.3632 eV  231.18 nm  f=0.0011  <S**2>=0.000
      52 -> 55         0.69622

 Excited State   4:      Singlet-A      5.7207 eV  216.73 nm  f=0.2185  <S**2>=0.000
      51 -> 55         0.45594
      53 -> 55        -0.21428
      54 -> 56        -0.22132
      54 -> 57         0.44094

 Excited State   5:      Singlet-A      5.8832 eV  210.74 nm  f=1.1082  <S**2>=0.000
      51 -> 55         0.16779
      53 -> 55         0.39650
      53 -> 56         0.17830
      54 -> 56         0.44988
      54 -> 57         0.25175

 Excited State   6:      Singlet-A      6.0549 eV  204.77 nm  f=0.1738  <S**2>=0.000
      50 -> 55         0.12910
      51 -> 56        -0.15321
      51 -> 57        -0.11234
      52 -> 56         0.15314
      53 -> 55        -0.11486
      53 -> 56         0.59688
      53 -> 57        -0.11083
      54 -> 55        -0.12917
      54 -> 57        -0.12407

 Excited State   7:      Singlet-A      6.1358 eV  202.07 nm  f=0.0091  <S**2>=0.000
      52 -> 56         0.66306
      53 -> 57         0.12667

 Excited State   8:      Singlet-A      6.2837 eV  197.31 nm  f=0.0755  <S**2>=0.000
      51 -> 55        -0.22319
      51 -> 56         0.35953
      52 -> 56        -0.13924
      53 -> 56         0.23394
      53 -> 57         0.42046
      54 -> 57         0.18635

 Excited State   9:      Singlet-A      6.5387 eV  189.62 nm  f=0.0436  <S**2>=0.000
      50 -> 55         0.16267
      51 -> 55         0.42765
      51 -> 56         0.18161
      53 -> 57         0.31066
      54 -> 57        -0.37291

 Excited State  10:      Singlet-A      6.7005 eV  185.04 nm  f=0.0324  <S**2>=0.000
      50 -> 55         0.59784
      51 -> 55        -0.13260
      51 -> 56        -0.16873
      53 -> 57         0.17362
      54 -> 57         0.19016

 The electronic state is 1-A.
 Alpha  occ. eigenvalues --  -19.14968 -10.24922 -10.23742 -10.19575 -10.19346
 Alpha  occ. eigenvalues --  -10.19014 -10.18815 -10.18787 -10.18694 -10.18681
 Alpha  occ. eigenvalues --  -10.18633 -10.18278 -10.17615 -10.17526 -10.17369
 Alpha  occ. eigenvalues --   -1.03484  -0.86719  -0.81884  -0.79415  -0.76719
 Alpha  occ. eigenvalues --   -0.73051  -0.71237  -0.69139  -0.68909  -0.62401
 Alpha  occ. eigenvalues --   -0.61072  -0.59311  -0.56159  -0.51080  -0.50538
 Alpha  occ. eigenvalues --   -0.49242  -0.46389  -0.45370  -0.44979  -0.44236
 Alpha  occ. eigenvalues --   -0.43055  -0.41614  -0.41405  -0.40492  -0.39090
 Alpha  occ. eigenvalues --   -0.39045  -0.38243  -0.37500  -0.36758  -0.36254
 Alpha  occ. eigenvalues --   -0.34948  -0.34256  -0.33029  -0.32764  -0.30383
 Alpha  occ. eigenvalues --   -0.27823  -0.26309  -0.23288  -0.20850
 Alpha virt. eigenvalues --   -0.03393  -0.00324   0.03619   0.08412   0.09020
 Alpha virt. eigenvalues --    0.10161   0.11139   0.11808   0.12845   0.14284
 Alpha virt. eigenvalues --    0.15357   0.15652   0.16324   0.17439   0.17607

 Mulliken atomic charges:
              1
     1  C   -0.459908
     2  C    0.305200
     3  O   -0.551021
     4  C    0.387001
     5  C   -0.187082
     6  C   -0.216115
     7  C    0.153113
     8  C    0.136843
     9  C   -0.248424
    10  C   -0.201216
    11  C   -0.157606
    12  C   -0.111473
    13  C   -0.212511
    14  C   -0.458381
    15  C   -0.446844
    16  H    0.158927
    17  H    0.147296
    18  H    0.152507
    19  H    0.122892
    20  H    0.127652
    21  H    0.137779
    22  H    0.123195
    23  H    0.119445
    24  H    0.134379
    25  H    0.127480
    26  H    0.161528
    27  H    0.153502
    28  H    0.145639
    29  H    0.155775
    30  H    0.143527
    31  H    0.156898
 Sum of Mulliken atomic charges =  -0.00000

 Dipole moment (field-independent basis, Debye):
    X=              1.4416    Y=             -0.2337    Z=              1.2114  Tot=              1.8974
 Quadrupole moment (field-independent basis, Debye-Ang):
   XX=            -79.5011   YY=            -83.8077   ZZ=            -93.6396
   XY=             -1.9610   XZ=              1.3248   YZ=              0.9547

 Summary of Natural Population Analysis:

                                       Natural Population
                Natural  -----------------------------------------------
    Atom  No    Charge         Core      Valence    Rydberg      Total
 -----------------------------------------------------------------------
      C    1   -0.70149      1.99933     4.69227    0.00989     6.70149
      C    2    0.28776      1.99899     3.69432    0.01893     5.71224
      O    3   -0.55486      1.99971     6.54231    0.01284     8.55486
      C    4    0.37257      1.99877     3.60377    0.02489     5.62743
      C    5   -0.34023      1.99903     4.32401    0.01719     6.34023
      C    6   -0.20813      1.99906     4.19350    0.01557     6.20813
      C    7   -0.05180      1.99903     4.03770    0.01507     6.05180
      C    8   -0.05692      1.99903     4.04250    0.01538     6.05692
      C    9   -0.24103      1.99896     4.22627    0.01580     6.24103
      C   10   -0.21432      1.99906     4.19972    0.01554     6.21432
      C   11   -0.29717      1.99912     4.28154    0.01650     6.29717
      C   12   -0.16408      1.99911     4.15022    0.01475     6.16408
      C   13   -0.23515      1.99907     4.22053    0.01555     6.23515
      C   14   -0.70148      1.99933     4.69224    0.00991     6.70148
      C   15   -0.68345      1.99932     4.67401    0.01013     6.68345
      H   16    0.24107      0.00000     0.75785    0.00108     0.75893
      H   17    0.23920      0.00000     0.75992    0.00089     0.76080
      H   18    0.23730      0.00000     0.76132    0.00138     0.76270
      H   19    0.23962      0.00000     0.75929    0.00109     0.76038
      H   20    0.23153      0.00000     0.76732    0.00114     0.76847
      H   21    0.23966      0.00000     0.75875    0.00159     0.76034
      H   22    0.22799      0.00000     0.77086    0.00115     0.77201
      H   23    0.23241      0.00000     0.76678    0.00080     0.76759
      H   24    0.23354      0.00000     0.76559    0.00087     0.76646
      H   25    0.23037      0.00000     0.76848    0.00115     0.76963
      H   26    0.24370      0.00000     0.75518    0.00112     0.75630
      H   27    0.23823      0.00000     0.76043    0.00134     0.76177
      H   28    0.23843      0.00000     0.76064    0.00093     0.76157
      H   29    0.24080      0.00000     0.75797    0.00123     0.75920
      H   30    0.23432      0.00000     0.76500    0.00067     0.76568
      H   31    0.24159      0.00000     0.75719    0.00121     0.75841
 =======================================================================
   * Total *    0.00000     29.98691    77.76750    0.24559   108.00000

 Normal termination of Gaussian 09 at Thu Sep 30 18:51:22 2021.
