 Gaussian 09, Revision A.02,

 -----------------------------------
 #p opt b3lyp/6-31G* scf=(xqc,tight)
 -----------------------------------

 -------------------------------
 COc1ccc(cc1)C(c1ccccc1)O_conf_0
 -------------------------------
 Symbolic Z-matrix:
 Charge =  0 Multiplicity = 1

 SCF Done:  E(RB3LYP) =  -692.341594049     A.U. after   14 cycles
 SCF Done:  E(RB3LYP) =  -692.343715651     A.U. after   12 cycles
 SCF Done:  E(RB3LYP) =  -692.344065160     A.U. after   12 cycles
 SCF Done:  E(RB3LYP) =  -692.344348809     A.U. after   12 cycles
 SCF Done:  E(RB3LYP) =  -692.344529269     A.U. after   12 cycles
 SCF Done:  E(RB3LYP) =  -692.344605709     A.U. after   12 cycles
 SCF Done:  E(RB3LYP) =  -692.344620795     A.U. after   11 cycles
 SCF Done:  E(RB3LYP) =  -692.344622595     A.U. after    9 cycles
 SCF Done:  E(RB3LYP) =  -692.344624873     A.U. after   11 cycles
 SCF Done:  E(RB3LYP) =  -692.344624948     A.U. after   10 cycles
 SCF Done:  E(RB3LYP) =  -692.344625723     A.U. after   10 cycles
 SCF Done:  E(RB3LYP) =  -692.344627599     A.U. after   10 cycles
 SCF Done:  E(RB3LYP) =  -692.344629465     A.U. after   10 cycles
 SCF Done:  E(RB3LYP) =  -692.344630189     A.U. after    8 cycles
 SCF Done:  E(RB3LYP) =  -692.344630308     A.U. after    7 cycles
 Optimization completed on the basis of negligible forces.
    -- Stationary point found.
 Normal termination of Gaussian 09 at Thu Sep 30 12:19:57 2021.

 ----------------------------------------------------------------------
 #p freq b3lyp/6-31G* volume NMR pop=NPA density=current Geom=AllCheck
 Guess=Read
 ----------------------------------------------------------------------

 COc1ccc(cc1)C(c1ccccc1)O_conf_0
 -------------------------------
 Redundant internal coordinates taken from checkpoint file:
 C14H14O2_7e93_conf_0.chk
 Charge =  0 Multiplicity = 1

 SCF Done:  E(RB3LYP) =  -692.344630308     A.U. after    1 cycles

  1  C    Isotropic =   137.5966   Anisotropy =    64.7483

  2  O    Isotropic =   240.2581   Anisotropy =    73.1258

  3  C    Isotropic =    40.5250   Anisotropy =   124.8354

  4  C    Isotropic =    86.9546   Anisotropy =   141.7239

  5  C    Isotropic =    68.1814   Anisotropy =   158.9124

  6  C    Isotropic =    61.1820   Anisotropy =   159.8412

  7  C    Isotropic =    70.6796   Anisotropy =   171.3493

  8  C    Isotropic =    78.8611   Anisotropy =   134.2727

  9  C    Isotropic =   113.5771   Anisotropy =    30.2310

 10  C    Isotropic =    50.2993   Anisotropy =   183.5027

 11  C    Isotropic =    67.8427   Anisotropy =   172.0504

 12  C    Isotropic =    67.2943   Anisotropy =   166.8917

 13  C    Isotropic =    68.7377   Anisotropy =   166.0826

 14  C    Isotropic =    68.8534   Anisotropy =   163.3542

 15  C    Isotropic =    68.8945   Anisotropy =   147.1228

 16  O    Isotropic =   255.5955   Anisotropy =    56.0715

 17  H    Isotropic =    28.3650   Anisotropy =     8.3117

 18  H    Isotropic =    28.7035   Anisotropy =     8.1443

 19  H    Isotropic =    28.7239   Anisotropy =     7.8336

 20  H    Isotropic =    25.9156   Anisotropy =     7.8642

 21  H    Isotropic =    25.4819   Anisotropy =    10.0274

 22  H    Isotropic =    24.3241   Anisotropy =     9.3446

 23  H    Isotropic =    25.4396   Anisotropy =     5.6706

 24  H    Isotropic =    26.4722   Anisotropy =     5.7261

 25  H    Isotropic =    24.8091   Anisotropy =     9.8814

 26  H    Isotropic =    24.9811   Anisotropy =     5.3313

 27  H    Isotropic =    25.0646   Anisotropy =     3.8788

 28  H    Isotropic =    25.0252   Anisotropy =     4.4103

 29  H    Isotropic =    25.0627   Anisotropy =     6.4976

 30  H    Isotropic =    31.4750   Anisotropy =    13.0423

  Exact polarizability: 191.285  11.146 128.365   9.768  13.616 122.134
 Approx polarizability: 255.265  25.307 212.322  25.621  33.226 213.823

                     1                      2                      3
                     A                      A                      A
 Frequencies --     6.0106                27.6228                43.5921
 Red. masses --     3.8137                 3.8370                 4.5227
 Frc consts  --     0.0001                 0.0017                 0.0051
 IR Inten    --     0.1166                 0.2012                 0.4809

                     4                      5                      6
                     A                      A                      A
 Frequencies --    84.3055               138.9412               176.9837
 Red. masses --     3.6128                 4.8203                 4.4912
 Frc consts  --     0.0151                 0.0548                 0.0829
 IR Inten    --     2.6311                 1.6516                 1.0991

                     7                      8                      9
                     A                      A                      A
 Frequencies --   190.2330               242.4495               257.7035
 Red. masses --     4.1150                 1.8760                 1.9776
 Frc consts  --     0.0877                 0.0650                 0.0774
 IR Inten    --     0.0717                 1.2287                 0.5838

                    10                     11                     12
                     A                      A                      A
 Frequencies --   266.3631               305.9533               343.8984
 Red. masses --     3.5454                 1.2829                 4.8852
 Frc consts  --     0.1482                 0.0708                 0.3404
 IR Inten    --     9.3298               105.6635                 4.9642

                    13                     14                     15
                     A                      A                      A
 Frequencies --   355.5006               413.1936               416.8579
 Red. masses --     2.9820                 4.0755                 3.3065
 Frc consts  --     0.2220                 0.4100                 0.3385
 IR Inten    --    28.9594                 1.2951                 0.5262

                    16                     17                     18
                     A                      A                      A
 Frequencies --   423.9880               478.8358               520.0946
 Red. masses --     3.1964                 4.5173                 2.9559
 Frc consts  --     0.3385                 0.6102                 0.4711
 IR Inten    --     1.3622                 0.6975                 2.0539

                    19                     20                     21
                     A                      A                      A
 Frequencies --   565.2804               584.8710               633.5457
 Red. masses --     3.4539                 4.7437                 6.3238
 Frc consts  --     0.6503                 0.9561                 1.4955
 IR Inten    --     3.7900                32.9106                 0.9666

                    22                     23                     24
                     A                      A                      A
 Frequencies --   645.0685               656.3560               713.5455
 Red. masses --     5.5702                 6.2896                 2.0961
 Frc consts  --     1.3656                 1.5964                 0.6288
 IR Inten    --     8.9897                 4.5082                21.6594

                    25                     26                     27
                     A                      A                      A
 Frequencies --   717.8914               759.0711               795.7035
 Red. masses --     3.2639                 2.4081                 2.7246
 Frc consts  --     0.9911                 0.8175                 1.0164
 IR Inten    --     7.7101                32.9218                20.3530

                    28                     29                     30
                     A                      A                      A
 Frequencies --   816.9476               832.3474               859.8777
 Red. masses --     2.0995                 1.5955                 1.5271
 Frc consts  --     0.8256                 0.6513                 0.6653
 IR Inten    --    30.7718                 7.4097                 3.3501

                    31                     32                     33
                     A                      A                      A
 Frequencies --   862.7434               869.5073               927.4764
 Red. masses --     2.2685                 2.2697                 1.4178
 Frc consts  --     0.9948                 1.0110                 0.7185
 IR Inten    --     7.6397                12.0261                 0.8596

                    34                     35                     36
                     A                      A                      A
 Frequencies --   942.1942               967.3457               974.3871
 Red. masses --     1.3449                 1.3517                 1.2984
 Frc consts  --     0.7034                 0.7452                 0.7263
 IR Inten    --     0.2565                 0.0364                 0.0516

                    37                     38                     39
                     A                      A                      A
 Frequencies --   994.8064              1018.3566              1031.9492
 Red. masses --     1.2449                 6.2808                 2.8860
 Frc consts  --     0.7259                 3.8377                 1.8108
 IR Inten    --     0.1794                 0.9625                 1.9338

                    40                     41                     42
                     A                      A                      A
 Frequencies --  1055.5718              1074.9223              1081.6614
 Red. masses --     2.4424                 4.2644                 5.9815
 Frc consts  --     1.6034                 2.9031                 4.1233
 IR Inten    --     9.6619                67.6300                39.2134

                    43                     44                     45
                     A                      A                      A
 Frequencies --  1114.8830              1146.9453              1185.6024
 Red. masses --     1.6928                 1.3247                 1.2707
 Frc consts  --     1.2397                 1.0268                 1.0524
 IR Inten    --     6.7985                 9.0936                 0.7175

                    46                     47                     48
                     A                      A                      A
 Frequencies --  1192.0285              1194.3448              1208.7122
 Red. masses --     1.1632                 1.5898                 1.3473
 Frc consts  --     0.9738                 1.3361                 1.1597
 IR Inten    --    11.7093                80.7148                 2.5890

                    49                     50                     51
                     A                      A                      A
 Frequencies --  1214.1830              1216.1320              1219.5385
 Red. masses --     1.5729                 1.6330                 1.4240
 Frc consts  --     1.3662                 1.4230                 1.2478
 IR Inten    --     7.6809                 6.1542                12.9862

                    52                     53                     54
                     A                      A                      A
 Frequencies --  1250.5229              1298.8296              1313.5822
 Red. masses --     1.3107                 4.0080                 1.9173
 Frc consts  --     1.2076                 3.9837                 1.9492
 IR Inten    --    42.0382               222.1424                35.9825

                    55                     56                     57
                     A                      A                      A
 Frequencies --  1346.9473              1364.3367              1366.5741
 Red. masses --     1.4106                 4.5165                 2.2414
 Frc consts  --     1.5079                 4.9534                 2.4662
 IR Inten    --    13.7609                32.8450                14.8372

                    58                     59                     60
                     A                      A                      A
 Frequencies --  1392.9169              1416.8657              1464.4387
 Red. masses --     1.4772                 1.5373                 3.0273
 Frc consts  --     1.6887                 1.8183                 3.8251
 IR Inten    --     8.7831                54.3572                 4.8633

                    61                     62                     63
                     A                      A                      A
 Frequencies --  1500.3483              1502.8634              1520.7462
 Red. masses --     1.1982                 2.1520                 1.0484
 Frc consts  --     1.5891                 2.8637                 1.4286
 IR Inten    --    19.0600                10.4407                 5.0992

                    64                     65                     66
                     A                      A                      A
 Frequencies --  1535.4802              1543.0143              1566.3353
 Red. masses --     1.0636                 2.1906                 2.4127
 Frc consts  --     1.4775                 3.0730                 3.4876
 IR Inten    --    45.2482                 6.8578               111.6823

                    67                     68                     69
                     A                      A                      A
 Frequencies --  1634.9178              1645.2264              1662.2779
 Red. masses --     6.7652                 5.4841                 5.5128
 Frc consts  --    10.6542                 8.7459                 8.9749
 IR Inten    --    11.2105                 0.3336                 0.6517

                    70                     71                     72
                     A                      A                      A
 Frequencies --  1675.7606              2970.9475              3022.1393
 Red. masses --     5.7333                 1.0834                 1.0350
 Frc consts  --     9.4858                 5.6340                 5.5693
 IR Inten    --    56.0765                48.0195                57.9714

                    73                     74                     75
                     A                      A                      A
 Frequencies --  3079.4099              3154.2442              3171.6545
 Red. masses --     1.1065                 1.0994                 1.0869
 Frc consts  --     6.1824                 6.4445                 6.4420
 IR Inten    --    45.9239                30.8929                 9.0518

                    76                     77                     78
                     A                      A                      A
 Frequencies --  3178.7322              3183.0410              3193.0347
 Red. masses --     1.0888                 1.0864                 1.0906
 Frc consts  --     6.4820                 6.4855                 6.5515
 IR Inten    --    13.2322                 0.3915                21.8550

                    79                     80                     81
                     A                      A                      A
 Frequencies --  3203.6835              3207.5663              3210.7044
 Red. masses --     1.0936                 1.0895                 1.0971
 Frc consts  --     6.6133                 6.6043                 6.6632
 IR Inten    --    29.9846                 7.5630                15.4855

                    82                     83                     84
                     A                      A                      A
 Frequencies --  3224.6951              3237.9610              3753.0994
 Red. masses --     1.0910                 1.0917                 1.0663
 Frc consts  --     6.6842                 6.7439                 8.8493
 IR Inten    --    13.6047                 2.7366                17.4708

 - Thermochemistry -
 -------------------
 Temperature   298.150 Kelvin.  Pressure   1.00000 Atm.
 Atom     1 has atomic number  6 and mass  12.00000

 Molecular mass:   214.09938 amu.
 Principal axes and moments of inertia in atomic units:
                           1         2         3
     Eigenvalues --  1644.188226828.232847470.48870
           X            0.99997  -0.00727  -0.00130
           Y            0.00731   0.99965   0.02561
           Z            0.00112  -0.02562   0.99967
 This molecule is an asymmetric top.
 Rotational symmetry number  1.
 Warning -- assumption of classical behavior for rotation
           may cause significant error
 Rotational temperatures (Kelvin)      0.05268     0.01268     0.01159
 Rotational constants (GHZ):           1.09765     0.26431     0.24158
 Zero-point vibrational energy     649328.3 (Joules/Mol)
                                  155.19320 (Kcal/Mol)
 Warning -- explicit consideration of  20 degrees of freedom as
           vibrations may cause significant error
 Vibrational temperatures:      8.65    39.74    62.72   121.30   199.91
          (Kelvin)            254.64   273.70   348.83   370.78   383.24
                              440.20   494.79   511.49   594.49   599.76
                              610.02   688.94   748.30   813.31   841.50
                              911.53   928.11   944.35  1026.63  1032.88
                             1092.13  1144.84  1175.40  1197.56  1237.17
                             1241.29  1251.03  1334.43  1355.61  1391.79
                             1401.92  1431.30  1465.19  1484.74  1518.73
                             1546.57  1556.27  1604.07  1650.20  1705.82
                             1715.06  1718.39  1739.07  1746.94  1749.74
                             1754.64  1799.22  1868.72  1889.95  1937.95
                             1962.97  1966.19  2004.09  2038.55  2107.00
                             2158.66  2162.28  2188.01  2209.21  2220.05
                             2253.60  2352.28  2367.11  2391.64  2411.04
                             4274.53  4348.18  4430.58  4538.25  4563.30
                             4573.48  4579.68  4594.06  4609.38  4614.97
                             4619.48  4639.61  4658.70  5399.87

 Zero-point correction=                           0.247316 (Hartree/Particle)
 Thermal correction to Energy=                    0.261427
 Thermal correction to Enthalpy=                  0.262372
 Thermal correction to Gibbs Free Energy=         0.203205
 Sum of electronic and zero-point Energies=           -692.097314
 Sum of electronic and thermal Energies=              -692.083203
 Sum of electronic and thermal Enthalpies=            -692.082259
 Sum of electronic and thermal Free Energies=         -692.141425

                     E (Thermal)             CV                S
                      KCal/Mol        Cal/Mol-Kelvin    Cal/Mol-Kelvin
 Total                  164.048             54.579            124.526
 Electronic               0.000              0.000              0.000
 Translational            0.889              2.981             41.987
 Rotational               0.889              2.981             32.795
 Vibrational            162.271             48.618             49.745
 Vibration     1          0.593              1.987              9.023
 Vibration     2          0.593              1.984              5.993
 Vibration     3          0.595              1.980              5.089
 Vibration     4          0.601              1.960              3.788
 Vibration     5          0.615              1.914              2.818
 Vibration     6          0.628              1.871              2.360
 Vibration     7          0.634              1.853              2.226
 Vibration     8          0.659              1.775              1.785
 Vibration     9          0.667              1.750              1.677
 Vibration    10          0.672              1.735              1.620
 Vibration    11          0.696              1.662              1.384
 Vibration    12          0.723              1.588              1.194
 Vibration    13          0.731              1.564              1.142
 Vibration    14          0.777              1.442              0.915
 Vibration    15          0.780              1.434              0.903
 Vibration    16          0.786              1.418              0.879
 Vibration    17          0.835              1.297              0.713
 Vibration    18          0.875              1.205              0.610
 Vibration    19          0.921              1.106              0.513
 Vibration    20          0.942              1.064              0.476

 Optimization completed on the basis of negligible forces.
    -- Stationary point found.
 Normal termination of Gaussian 09 at Thu Sep 30 13:22:02 2021.
 Gaussian 09:  AM64L-G09RevA.02 11-Jun-2009

 ----------------------------------------------------------------------
 #p TD(NStates=10, Root=1) b3lyp/6-31G* volume pop=NPA density=current
 Geom=AllCheck Guess=Read
 ----------------------------------------------------------------------

 COc1ccc(cc1)C(c1ccccc1)O_conf_0
 -------------------------------
 Redundant internal coordinates taken from checkpoint file:
 C14H14O2_7e93_conf_0.chk
 Charge =  0 Multiplicity = 1

                         Standard orientation:
 ---------------------------------------------------------------------
 Center     Atomic      Atomic             Coordinates (Angstroms)
 Number     Number       Type             X           Y           Z
 ---------------------------------------------------------------------
      1          6           0        4.844420   -1.600624    0.014913
      2          8           0        4.299158   -0.391580    0.514044
      3          6           0        3.016179   -0.070086    0.166684
      4          6           0        2.190991   -0.853846   -0.649247
      5          6           0        0.894978   -0.420729   -0.934577
      6          6           0        0.396160    0.780759   -0.425658
      7          6           0        1.234506    1.556228    0.385764
      8          6           0        2.527624    1.137450    0.680919
      9          6           0       -1.021858    1.221759   -0.766677
     10          6           0       -2.082298    0.251675   -0.257650
     11          6           0       -2.289896    0.093828    1.120522
     12          6           0       -3.269841   -0.776348    1.592064
     13          6           0       -4.055883   -1.504872    0.693065
     14          6           0       -3.858049   -1.352700   -0.678589
     15          6           0       -2.878203   -0.473775   -1.149244
     16          8           0       -1.220714    2.526836   -0.219972
     17          1           0        5.861046   -1.656854    0.409021
     18          1           0        4.881683   -1.606050   -1.082926
     19          1           0        4.274984   -2.475032    0.358095
     20          1           0        2.540519   -1.792956   -1.063073
     21          1           0        0.262392   -1.043944   -1.563005
     22          1           0        0.867942    2.496718    0.780294
     23          1           0        3.181308    1.735550    1.308612
     24          1           0       -1.111073    1.265810   -1.865459
     25          1           0       -1.676279    0.659951    1.815781
     26          1           0       -3.421232   -0.890685    2.662392
     27          1           0       -4.818813   -2.184885    1.062762
     28          1           0       -4.468108   -1.910847   -1.384105
     29          1           0       -2.733568   -0.348561   -2.220618
     30          1           0       -2.161317    2.737418   -0.324087
 ---------------------------------------------------------------------

 SCF Done:  E(RB3LYP) =  -692.344630308     A.U. after    1 cycles

 Excitation energies and oscillator strengths:

 Excited State   1:      Singlet-A      4.8186 eV  257.30 nm  f=0.0344  <S**2>=0.000
      57 -> 58         0.69357
 This state for optimization and/or second-order correction.
 Total Energy, E(TD-HF/TD-KS) =  -692.167550088
 Copying the excited state density for this state as the 1-particle RhoCI density.

 Excited State   2:      Singlet-A      4.9868 eV  248.63 nm  f=0.0481  <S**2>=0.000
      54 -> 58         0.11407
      57 -> 59         0.68371

 Excited State   3:      Singlet-A      5.0848 eV  243.83 nm  f=0.0280  <S**2>=0.000
      56 -> 58        -0.10340
      56 -> 59         0.13776
      56 -> 60        -0.10127
      56 -> 61         0.23651
      57 -> 60         0.60837
      57 -> 61         0.14253

 Excited State   4:      Singlet-A      5.4233 eV  228.61 nm  f=0.0038  <S**2>=0.000
      54 -> 58         0.45904
      55 -> 59         0.50165
      57 -> 59        -0.11616

 Excited State   5:      Singlet-A      5.7720 eV  214.80 nm  f=0.0545  <S**2>=0.000
      55 -> 58        -0.13412
      56 -> 58         0.54274
      56 -> 59         0.14333
      56 -> 60        -0.11832
      57 -> 61         0.36351

 Excited State   6:      Singlet-A      5.8218 eV  212.97 nm  f=0.1424  <S**2>=0.000
      55 -> 58        -0.17196
      56 -> 58        -0.41827
      56 -> 60        -0.22987
      57 -> 60        -0.19048
      57 -> 61         0.43679

 Excited State   7:      Singlet-A      5.9629 eV  207.92 nm  f=0.0317  <S**2>=0.000
      53 -> 58        -0.18042
      54 -> 59        -0.26482
      55 -> 58         0.55144
      56 -> 59        -0.12075
      56 -> 60        -0.14602
      57 -> 61         0.18410

 Excited State   8:      Singlet-A      5.9758 eV  207.48 nm  f=0.0181  <S**2>=0.000
      55 -> 58         0.11940
      56 -> 59         0.65543
      56 -> 60         0.10717
      56 -> 61        -0.11147

 Excited State   9:      Singlet-A      6.1179 eV  202.66 nm  f=0.0018  <S**2>=0.000
      55 -> 59        -0.13314
      55 -> 60         0.67266

 Excited State  10:      Singlet-A      6.3732 eV  194.54 nm  f=0.0248  <S**2>=0.000
      53 -> 58         0.24490
      54 -> 59        -0.30370
      54 -> 60         0.57150

 The electronic state is 1-A.
 Alpha  occ. eigenvalues --  -19.17155 -19.14706 -10.24299 -10.23882 -10.23714
 Alpha  occ. eigenvalues --  -10.19390 -10.19182 -10.19130 -10.19086 -10.19031
 Alpha  occ. eigenvalues --  -10.18764 -10.18387 -10.18260 -10.18164 -10.17759
 Alpha  occ. eigenvalues --  -10.17529  -1.05713  -1.02130  -0.85494  -0.84286
 Alpha  occ. eigenvalues --   -0.77451  -0.74566  -0.74384  -0.73726  -0.70140
 Alpha  occ. eigenvalues --   -0.65477  -0.60991  -0.60292  -0.59027  -0.56568
 Alpha  occ. eigenvalues --   -0.52874  -0.52124  -0.50000  -0.47103  -0.46602
 Alpha  occ. eigenvalues --   -0.46307  -0.45934  -0.44192  -0.43806  -0.42291
 Alpha  occ. eigenvalues --   -0.41750  -0.41377  -0.40257  -0.38307  -0.36984
 Alpha  occ. eigenvalues --   -0.36302  -0.35876  -0.34717  -0.34325  -0.32500
 Alpha  occ. eigenvalues --   -0.31449  -0.31017  -0.27747  -0.25107  -0.24372
 Alpha  occ. eigenvalues --   -0.24193  -0.20703
 Alpha virt. eigenvalues --   -0.00747  -0.00278   0.00605   0.02363   0.08780
 Alpha virt. eigenvalues --    0.09538   0.10195   0.11463   0.12263   0.14295
 Alpha virt. eigenvalues --    0.14965   0.15329   0.15717   0.16062   0.16528

 Mulliken atomic charges:
              1
     1  C   -0.251346
     2  O   -0.435030
     3  C    0.398393
     4  C   -0.176097
     5  C   -0.135678
     6  C    0.185581
     7  C   -0.158531
     8  C   -0.140449
     9  C   -0.007281
    10  C    0.066330
    11  C   -0.237589
    12  C   -0.119476
    13  C   -0.200922
    14  C   -0.162416
    15  C   -0.207561
    16  O   -0.646933
    17  H    0.205440
    18  H    0.189692
    19  H    0.195776
    20  H    0.174355
    21  H    0.207812
    22  H    0.210658
    23  H    0.186366
    24  H    0.134657
    25  H    0.060508
    26  H    0.076163
    27  H    0.063090
    28  H    0.069587
    29  H    0.059882
    30  H    0.395020
 Sum of Mulliken atomic charges =  -0.00000

 Dipole moment (field-independent basis, Debye):
    X=             14.8706    Y=             -0.1955    Z=             -1.9804  Tot=             15.0032
 Quadrupole moment (field-independent basis, Debye-Ang):
   XX=            -88.7643   YY=            -90.4324   ZZ=            -91.7617
   XY=            -17.6262   XZ=              2.7260   YZ=              3.0725

 Summary of Natural Population Analysis:

                                       Natural Population
                Natural  -----------------------------------------------
    Atom  No    Charge         Core      Valence    Rydberg      Total
 -----------------------------------------------------------------------
      C    1   -0.33454      1.99941     4.32071    0.01442     6.33454
      O    2   -0.41643      1.99975     6.40523    0.01145     8.41643
      C    3    0.38815      1.99878     3.59201    0.02106     5.61185
      C    4   -0.29204      1.99905     4.28043    0.01256     6.29204
      C    5   -0.15348      1.99904     4.14046    0.01398     6.15348
      C    6    0.14360      1.99900     3.84018    0.01723     5.85640
      C    7   -0.22144      1.99905     4.20737    0.01502     6.22144
      C    8   -0.20020      1.99906     4.18644    0.01471     6.20020
      C    9    0.05812      1.99900     3.91727    0.02561     5.94188
      C   10   -0.26853      1.99895     4.25065    0.01893     6.26853
      C   11   -0.33140      1.99903     4.31551    0.01686     6.33140
      C   12   -0.21785      1.99910     4.20430    0.01445     6.21785
      C   13   -0.37672      1.99910     4.35917    0.01845     6.37672
      C   14   -0.30219      1.99910     4.28587    0.01722     6.30219
      C   15   -0.23907      1.99903     4.22693    0.01311     6.23907
      O   16   -0.78317      1.99982     6.77134    0.01201     8.78317
      H   17    0.24840      0.00000     0.75130    0.00030     0.75160
      H   18    0.22686      0.00000     0.77212    0.00101     0.77314
      H   19    0.23032      0.00000     0.76875    0.00093     0.76968
      H   20    0.25653      0.00000     0.74282    0.00066     0.74347
      H   21    0.27812      0.00000     0.72090    0.00098     0.72188
      H   22    0.28762      0.00000     0.71129    0.00109     0.71238
      H   23    0.26439      0.00000     0.73468    0.00093     0.73561
      H   24    0.23963      0.00000     0.75842    0.00195     0.76037
      H   25    0.20125      0.00000     0.79770    0.00105     0.79875
      H   26    0.21006      0.00000     0.78907    0.00087     0.78994
      H   27    0.20524      0.00000     0.79412    0.00064     0.79476
      H   28    0.20838      0.00000     0.79086    0.00076     0.79162
      H   29    0.19779      0.00000     0.80114    0.00106     0.80221
      H   30    0.49259      0.00000     0.50374    0.00367     0.50741
 =======================================================================
   * Total *    0.00000     31.98627    81.74079    0.27294   114.00000

 Normal termination of Gaussian 09 at Thu Sep 30 18:05:28 2021.
