 Gaussian 09, Revision A.02,

 -----------------------------------
 #p opt b3lyp/6-31G* scf=(xqc,tight)
 -----------------------------------

 ----------------------------
 COc1ccc(cc1)Cc1ccccc1_conf_0
 ----------------------------
 Symbolic Z-matrix:
 Charge =  0 Multiplicity = 1

 SCF Done:  E(RB3LYP) =  -617.136143566     A.U. after   14 cycles
 SCF Done:  E(RB3LYP) =  -617.137662460     A.U. after   15 cycles
 SCF Done:  E(RB3LYP) =  -617.137743880     A.U. after   15 cycles
 SCF Done:  E(RB3LYP) =  -617.137748108     A.U. after   10 cycles
 SCF Done:  E(RB3LYP) =  -617.137748624     A.U. after   10 cycles
 SCF Done:  E(RB3LYP) =  -617.137748465     A.U. after   10 cycles
 SCF Done:  E(RB3LYP) =  -617.137747795     A.U. after   10 cycles
 SCF Done:  E(RB3LYP) =  -617.137747196     A.U. after    9 cycles
 SCF Done:  E(RB3LYP) =  -617.137747003     A.U. after    8 cycles
 SCF Done:  E(RB3LYP) =  -617.137747079     A.U. after    7 cycles
 SCF Done:  E(RB3LYP) =  -617.137755871     A.U. after   10 cycles
 SCF Done:  E(RB3LYP) =  -617.137751501     A.U. after   10 cycles
 SCF Done:  E(RB3LYP) =  -617.137758059     A.U. after   11 cycles
 SCF Done:  E(RB3LYP) =  -617.137756736     A.U. after    9 cycles
 SCF Done:  E(RB3LYP) =  -617.137762559     A.U. after   15 cycles
 SCF Done:  E(RB3LYP) =  -617.137754911     A.U. after   15 cycles
 SCF Done:  E(RB3LYP) =  -617.137758321     A.U. after    9 cycles
 SCF Done:  E(RB3LYP) =  -617.137759544     A.U. after    8 cycles
 Optimization completed.
    -- Stationary point found.
 Normal termination of Gaussian 09 at Thu Sep 30 19:52:28 2021.

 ----------------------------------------------------------------------
 #p freq b3lyp/6-31G* volume NMR pop=NPA density=current Geom=AllCheck
 Guess=Read
 ----------------------------------------------------------------------

 COc1ccc(cc1)Cc1ccccc1_conf_0
 ----------------------------
 Redundant internal coordinates taken from checkpoint file:
 C14H14O_383b_conf_0.chk
 Charge =  0 Multiplicity = 1

 SCF Done:  E(RB3LYP) =  -617.137759544     A.U. after    1 cycles

  1  C    Isotropic =   137.5375   Anisotropy =    64.8342

  2  O    Isotropic =   239.1338   Anisotropy =    77.4084

  3  C    Isotropic =    40.3567   Anisotropy =   126.4301

  4  C    Isotropic =    87.5143   Anisotropy =   140.1302

  5  C    Isotropic =    65.9619   Anisotropy =   142.1244

  6  C    Isotropic =    62.9014   Anisotropy =   170.6459

  7  C    Isotropic =    65.5192   Anisotropy =   161.4848

  8  C    Isotropic =    77.5175   Anisotropy =   135.4633

  9  C    Isotropic =   146.4465   Anisotropy =    22.9005

 10  C    Isotropic =    54.3348   Anisotropy =   182.9481

 11  C    Isotropic =    67.2980   Anisotropy =   144.6491

 12  C    Isotropic =    68.8241   Anisotropy =   162.5822

 13  C    Isotropic =    70.6512   Anisotropy =   164.3817

 14  C    Isotropic =    68.0180   Anisotropy =   164.7349

 15  C    Isotropic =    66.8921   Anisotropy =   165.4394

 16  H    Isotropic =    28.3254   Anisotropy =     8.1775

 17  H    Isotropic =    28.6627   Anisotropy =     8.0347

 18  H    Isotropic =    28.6530   Anisotropy =     7.9460

 19  H    Isotropic =    25.9081   Anisotropy =     6.9265

 20  H    Isotropic =    25.1508   Anisotropy =     6.6863

 21  H    Isotropic =    25.3022   Anisotropy =     9.3805

 22  H    Isotropic =    25.5714   Anisotropy =     6.0645

 23  H    Isotropic =    28.4993   Anisotropy =     5.8909

 24  H    Isotropic =    28.5097   Anisotropy =     6.5346

 25  H    Isotropic =    25.0869   Anisotropy =     6.8107

 26  H    Isotropic =    25.0546   Anisotropy =     4.3635

 27  H    Isotropic =    25.1465   Anisotropy =     3.7860

 28  H    Isotropic =    25.0789   Anisotropy =     5.3585

 29  H    Isotropic =    25.2297   Anisotropy =    10.0112

  Exact polarizability: 203.511  -2.805 111.442 -21.014   2.581 118.040
 Approx polarizability: 270.724  -8.793 184.635 -38.688   2.705 207.945

                     1                      2                      3
                     A                      A                      A
 Frequencies --    20.5999                25.2617                49.1666
 Red. masses --     3.7929                 3.6127                 4.6093
 Frc consts  --     0.0009                 0.0014                 0.0066
 IR Inten    --     0.0210                 0.4591                 0.1009

                     4                      5                      6
                     A                      A                      A
 Frequencies --    88.9923               153.9537               191.8534
 Red. masses --     3.4671                 4.3410                 4.1410
 Frc consts  --     0.0162                 0.0606                 0.0898
 IR Inten    --     3.2166                 0.9659                 0.0980

                     7                      8                      9
                     A                      A                      A
 Frequencies --   220.8005               252.1571               302.3405
 Red. masses --     3.4607                 1.1925                 3.4698
 Frc consts  --     0.0994                 0.0447                 0.1869
 IR Inten    --     2.1586                 0.0368                 1.3195

                    10                     11                     12
                     A                      A                      A
 Frequencies --   341.2735               346.8019               417.8344
 Red. masses --     2.2968                 4.5307                 2.9914
 Frc consts  --     0.1576                 0.3211                 0.3077
 IR Inten    --     1.0084                 2.6034                 0.2461

                    13                     14                     15
                     A                      A                      A
 Frequencies --   425.5741               439.4061               487.9294
 Red. masses --     3.2042                 3.6680                 3.5830
 Frc consts  --     0.3419                 0.4173                 0.5026
 IR Inten    --     0.2158                 0.0930                 3.0007

                    16                     17                     18
                     A                      A                      A
 Frequencies --   524.6806               544.8719               611.7352
 Red. masses --     2.7868                 4.7787                 3.7834
 Frc consts  --     0.4520                 0.8359                 0.8342
 IR Inten    --     4.8441                12.0733                11.5342

                    19                     20                     21
                     A                      A                      A
 Frequencies --   635.9598               654.1392               712.5689
 Red. masses --     6.3216                 6.5284                 2.5306
 Frc consts  --     1.5064                 1.6459                 0.7571
 IR Inten    --     0.2689                 0.5399                15.8844

                    22                     23                     24
                     A                      A                      A
 Frequencies --   717.3681               739.7946               783.5837
 Red. masses --     3.8547                 1.7514                 2.8834
 Frc consts  --     1.1688                 0.5648                 1.0431
 IR Inten    --     0.0807                20.4934                25.5417

                    25                     26                     27
                     A                      A                      A
 Frequencies --   814.5198               828.8992               850.7351
 Red. masses --     2.2732                 1.4472                 3.0617
 Frc consts  --     0.8886                 0.5859                 1.3056
 IR Inten    --    19.9344                 0.2261                10.5531

                    28                     29                     30
                     A                      A                      A
 Frequencies --   858.1528               861.8397               914.6226
 Red. masses --     2.3504                 1.2741                 1.4265
 Frc consts  --     1.0198                 0.5576                 0.7031
 IR Inten    --    16.0750                 0.8256                 3.0581

                    31                     32                     33
                     A                      A                      A
 Frequencies --   938.2636               954.5515               965.3385
 Red. masses --     1.3926                 1.6607                 1.3665
 Frc consts  --     0.7223                 0.8915                 0.7503
 IR Inten    --     0.4310                 2.4381                 0.1966

                    34                     35                     36
                     A                      A                      A
 Frequencies --   966.9874               994.0812              1018.4860
 Red. masses --     1.3493                 1.2493                 6.2369
 Frc consts  --     0.7434                 0.7274                 3.8118
 IR Inten    --     0.1668                 0.2438                 0.9978

                    37                     38                     39
                     A                      A                      A
 Frequencies --  1032.5891              1059.3760              1080.6253
 Red. masses --     2.8078                 2.2541                 6.1798
 Frc consts  --     1.7639                 1.4905                 4.2518
 IR Inten    --     1.0099                 4.1513                55.8318

                    40                     41                     42
                     A                      A                      A
 Frequencies --  1110.9972              1141.5906              1184.9985
 Red. masses --     1.5857                 1.3249                 1.2717
 Frc consts  --     1.1532                 1.0173                 1.0522
 IR Inten    --     4.3030                10.4868                 0.7496

                    43                     44                     45
                     A                      A                      A
 Frequencies --  1191.9477              1209.5553              1214.0090
 Red. masses --     1.1034                 1.1691                 1.2255
 Frc consts  --     0.9236                 1.0078                 1.0641
 IR Inten    --     0.0810                31.2024                 0.0830

                    46                     47                     48
                     A                      A                      A
 Frequencies --  1214.9022              1218.3665              1219.2578
 Red. masses --     1.2621                 1.3781                 2.3937
 Frc consts  --     1.0975                 1.2053                 2.0966
 IR Inten    --     4.8887                 7.8923                 0.3236

                    49                     50                     51
                     A                      A                      A
 Frequencies --  1233.0434              1294.0073              1323.7266
 Red. masses --     2.5091                 4.3329                 1.9453
 Frc consts  --     2.2476                 4.2746                 2.0084
 IR Inten    --     2.8567               265.0682                 9.9136

                    52                     53                     54
                     A                      A                      A
 Frequencies --  1349.6244              1364.5019              1374.7168
 Red. masses --     1.6821                 2.9517                 2.0325
 Frc consts  --     1.8053                 3.2379                 2.2632
 IR Inten    --    24.4015                 0.3529                16.9480

                    55                     56                     57
                     A                      A                      A
 Frequencies --  1382.8987              1468.4333              1498.9217
 Red. masses --     1.7388                 2.8370                 1.1959
 Frc consts  --     1.9593                 3.6043                 1.5831
 IR Inten    --    24.3221                 2.0943                19.2058

                    58                     59                     60
                     A                      A                      A
 Frequencies --  1499.5845              1511.8069              1520.4660
 Red. masses --     1.9211                 1.1918                 1.0483
 Frc consts  --     2.5453                 1.6049                 1.4278
 IR Inten    --     5.0096                 7.9571                 5.3008

                    61                     62                     63
                     A                      A                      A
 Frequencies --  1535.4160              1546.5649              1565.2456
 Red. masses --     1.0656                 2.1775                 2.4006
 Frc consts  --     1.4802                 3.0686                 3.4653
 IR Inten    --    46.3270                13.4212               106.7480

                    64                     65                     66
                     A                      A                      A
 Frequencies --  1633.5373              1644.6981              1664.2459
 Red. masses --     6.4473                 5.4864                 5.5463
 Frc consts  --    10.1364                 8.7440                 9.0509
 IR Inten    --    15.1347                 1.7512                 3.3834

                    67                     68                     69
                     A                      A                      A
 Frequencies --  1675.8210              3022.8851              3031.1866
 Red. masses --     5.7820                 1.0349                 1.0596
 Frc consts  --     9.5672                 5.5718                 5.7364
 IR Inten    --    52.5121                61.2957                31.8269

                    70                     71                     72
                     A                      A                      A
 Frequencies --  3064.1336              3080.2287              3155.5258
 Red. masses --     1.1030                 1.1065                 1.0995
 Frc consts  --     6.1015                 6.1855                 6.4502
 IR Inten    --    15.0588                45.3519                29.9183

                    73                     74                     75
                     A                      A                      A
 Frequencies --  3171.5760              3176.2505              3178.7544
 Red. masses --     1.0864                 1.0890                 1.0861
 Frc consts  --     6.4386                 6.4733                 6.4662
 IR Inten    --     9.4540                17.1321                 0.8166

                    76                     77                     78
                     A                      A                      A
 Frequencies --  3185.2268              3188.3610              3196.2557
 Red. masses --     1.0885                 1.0901                 1.0940
 Frc consts  --     6.5068                 6.5289                 6.5851
 IR Inten    --    11.1653                12.2187                43.1946

                    79                     80                     81
                     A                      A                      A
 Frequencies --  3207.4203              3213.6200              3222.3809
 Red. masses --     1.0979                 1.0933                 1.0912
 Frc consts  --     6.6546                 6.6523                 6.6760
 IR Inten    --    24.9338                 8.4636                14.0585

 - Thermochemistry -
 -------------------
 Temperature   298.150 Kelvin.  Pressure   1.00000 Atm.
 Atom     1 has atomic number  6 and mass  12.00000

 Molecular mass:   198.10447 amu.
 Principal axes and moments of inertia in atomic units:
                           1         2         3
     Eigenvalues --  1042.207737140.408367245.52959
           X            0.99996  -0.00106  -0.00890
           Y            0.00156   0.99842   0.05611
           Z            0.00883  -0.05612   0.99838
 This molecule is an asymmetric top.
 Rotational symmetry number  1.
 Warning -- assumption of classical behavior for rotation
           may cause significant error
 Rotational temperatures (Kelvin)      0.08311     0.01213     0.01195
 Rotational constants (GHZ):           1.73165     0.25275     0.24908
 Zero-point vibrational energy     638293.9 (Joules/Mol)
                                  152.55590 (Kcal/Mol)
 Warning -- explicit consideration of  18 degrees of freedom as
           vibrations may cause significant error
 Vibrational temperatures:     29.64    36.35    70.74   128.04   221.50
          (Kelvin)            276.03   317.68   362.80   435.00   491.02
                              498.97   601.17   612.31   632.21   702.02
                              754.90   783.95   880.15   915.00   941.16
                             1025.23  1032.13  1064.40  1127.40  1171.91
                             1192.60  1224.02  1234.69  1239.99  1315.94
                             1349.95  1373.38  1388.91  1391.28  1430.26
                             1465.37  1485.66  1524.20  1554.78  1598.48
                             1642.49  1704.95  1714.94  1740.28  1746.69
                             1747.97  1752.96  1754.24  1774.07  1861.79
                             1904.54  1941.81  1963.21  1977.91  1989.68
                             2112.75  2156.61  2157.56  2175.15  2187.61
                             2209.12  2225.16  2252.04  2350.29  2366.35
                             2394.48  2411.13  4349.25  4361.20  4408.60
                             4431.76  4540.09  4563.18  4569.91  4573.51
                             4582.83  4587.33  4598.69  4614.76  4623.68
                             4636.28

 Zero-point correction=                           0.243113 (Hartree/Particle)
 Thermal correction to Energy=                    0.256003
 Thermal correction to Enthalpy=                  0.256947
 Thermal correction to Gibbs Free Energy=         0.201398
 Sum of electronic and zero-point Energies=           -616.894646
 Sum of electronic and thermal Energies=              -616.881757
 Sum of electronic and thermal Enthalpies=            -616.880813
 Sum of electronic and thermal Free Energies=         -616.936362

                     E (Thermal)             CV                S
                      KCal/Mol        Cal/Mol-Kelvin    Cal/Mol-Kelvin
 Total                  160.644             50.207            116.912
 Electronic               0.000              0.000              0.000
 Translational            0.889              2.981             41.756
 Rotational               0.889              2.981             32.356
 Vibrational            158.867             44.245             42.801
 Vibration     1          0.593              1.986              6.576
 Vibration     2          0.593              1.985              6.171
 Vibration     3          0.595              1.978              4.851
 Vibration     4          0.602              1.957              3.682
 Vibration     5          0.619              1.898              2.623
 Vibration     6          0.634              1.851              2.210
 Vibration     7          0.648              1.809              1.953
 Vibration     8          0.664              1.759              1.715
 Vibration     9          0.694              1.669              1.404
 Vibration    10          0.721              1.593              1.206
 Vibration    11          0.725              1.582              1.181
 Vibration    12          0.781              1.431              0.899
 Vibration    13          0.787              1.415              0.873
 Vibration    14          0.799              1.384              0.828
 Vibration    15          0.844              1.277              0.689
 Vibration    16          0.880              1.195              0.599
 Vibration    17          0.900              1.151              0.555
 Vibration    18          0.971              1.007              0.430

 Optimization completed.
    -- Stationary point found.
 Normal termination of Gaussian 09 at Thu Sep 30 20:53:35 2021.
 Gaussian 09:  AM64L-G09RevA.02 11-Jun-2009

 ----------------------------------------------------------------------
 #p TD(NStates=10, Root=1) b3lyp/6-31G* volume pop=NPA density=current
 Geom=AllCheck Guess=Read
 ----------------------------------------------------------------------

 COc1ccc(cc1)Cc1ccccc1_conf_0
 ----------------------------
 Redundant internal coordinates taken from checkpoint file:
 C14H14O_383b_conf_0.chk
 Charge =  0 Multiplicity = 1

                         Standard orientation:
 ---------------------------------------------------------------------
 Center     Atomic      Atomic             Coordinates (Angstroms)
 Number     Number       Type             X           Y           Z
 ---------------------------------------------------------------------
      1          6           0        5.131163   -0.729810   -0.312321
      2          8           0        4.101785   -0.751275    0.661868
      3          6           0        2.898931   -0.187171    0.339937
      4          6           0        2.600350    0.412369   -0.886247
      5          6           0        1.327665    0.957340   -1.094904
      6          6           0        0.340011    0.920921   -0.110374
      7          6           0        0.661347    0.310026    1.114407
      8          6           0        1.916673   -0.234502    1.342004
      9          6           0       -1.031947    1.530905   -0.341617
     10          6           0       -2.192578    0.556810   -0.201420
     11          6           0       -3.262430    0.833877    0.657097
     12          6           0       -4.340330   -0.047915    0.771098
     13          6           0       -4.362199   -1.224864    0.023813
     14          6           0       -3.298737   -1.513975   -0.835692
     15          6           0       -2.224839   -0.632294   -0.944477
     16          1           0        5.989918   -1.223131    0.147011
     17          1           0        5.407567    0.297264   -0.586620
     18          1           0        4.841818   -1.277397   -1.219503
     19          1           0        3.337254    0.462892   -1.679847
     20          1           0        1.110450    1.424641   -2.053207
     21          1           0       -0.090588    0.256842    1.898241
     22          1           0        2.164734   -0.705001    2.288555
     23          1           0       -1.052337    1.975948   -1.345668
     24          1           0       -1.188615    2.362934    0.357967
     25          1           0       -3.253236    1.751533    1.241749
     26          1           0       -5.160198    0.186443    1.445391
     27          1           0       -5.198485   -1.913555    0.110448
     28          1           0       -3.305711   -2.430120   -1.420930
     29          1           0       -1.395330   -0.869395   -1.606359
 ---------------------------------------------------------------------

 SCF Done:  E(RB3LYP) =  -617.137759544     A.U. after    3 cycles

 Excitation energies and oscillator strengths:

 Excited State   1:      Singlet-A      5.0070 eV  247.62 nm  f=0.0391  <S**2>=0.000
      50 -> 56        -0.12996
      50 -> 57         0.19302
      53 -> 54         0.62960
      53 -> 56        -0.15214
 This state for optimization and/or second-order correction.
 Total Energy, E(TD-HF/TD-KS) =  -616.953754118
 Copying the excited state density for this state as the 1-particle RhoCI density.

 Excited State   2:      Singlet-A      5.1899 eV  238.89 nm  f=0.0030  <S**2>=0.000
      53 -> 55         0.69120

 Excited State   3:      Singlet-A      5.3021 eV  233.84 nm  f=0.0558  <S**2>=0.000
      50 -> 54         0.11563
      51 -> 55        -0.19961
      52 -> 55         0.16593
      53 -> 54         0.16001
      53 -> 56         0.55936
      53 -> 57         0.17553

 Excited State   4:      Singlet-A      5.4995 eV  225.45 nm  f=0.0284  <S**2>=0.000
      51 -> 54         0.20731
      51 -> 55        -0.28621
      51 -> 56         0.11596
      52 -> 54         0.30029
      52 -> 55         0.30589
      52 -> 56         0.17860
      53 -> 54        -0.14122
      53 -> 55        -0.11256
      53 -> 56        -0.29314

 Excited State   5:      Singlet-A      5.8035 eV  213.64 nm  f=0.1275  <S**2>=0.000
      50 -> 54        -0.17635
      52 -> 54         0.12291
      52 -> 56        -0.28526
      53 -> 56        -0.14157
      53 -> 57         0.58262

 Excited State   6:      Singlet-A      5.8952 eV  210.31 nm  f=0.1202  <S**2>=0.000
      50 -> 54         0.17582
      51 -> 54        -0.20049
      52 -> 54         0.52670
      52 -> 55        -0.15023
      52 -> 56        -0.28284
      53 -> 57        -0.16396

 Excited State   7:      Singlet-A      6.0619 eV  204.53 nm  f=0.0035  <S**2>=0.000
      50 -> 54        -0.26050
      50 -> 55         0.11077
      51 -> 54        -0.30534
      51 -> 55        -0.26812
      52 -> 54         0.10078
      52 -> 55        -0.32252
      52 -> 56         0.34320
      53 -> 57         0.11435

 Excited State   8:      Singlet-A      6.1394 eV  201.95 nm  f=0.0215  <S**2>=0.000
      50 -> 55         0.32846
      51 -> 54         0.43785
      51 -> 56        -0.34356
      52 -> 55        -0.23922

 Excited State   9:      Singlet-A      6.2022 eV  199.90 nm  f=0.0152  <S**2>=0.000
      50 -> 55         0.46148
      50 -> 57         0.10136
      51 -> 55        -0.13935
      51 -> 56         0.24174
      52 -> 54        -0.16067
      52 -> 56        -0.24101
      52 -> 57         0.30898

 Excited State  10:      Singlet-A      6.2792 eV  197.45 nm  f=0.0151  <S**2>=0.000
      50 -> 54         0.20438
      50 -> 55        -0.29359
      50 -> 57         0.19021
      51 -> 55        -0.19552
      51 -> 56        -0.31602
      52 -> 55        -0.16630
      52 -> 57         0.38659

 The electronic state is 1-A.
 Alpha  occ. eigenvalues --  -19.17442 -10.24207 -10.23934 -10.19121 -10.18946
 Alpha  occ. eigenvalues --  -10.18644 -10.18579 -10.18438 -10.18402 -10.18379
 Alpha  occ. eigenvalues --  -10.18338 -10.18294 -10.18254 -10.18073 -10.18008
 Alpha  occ. eigenvalues --   -1.06004  -0.85447  -0.84249  -0.78159  -0.74698
 Alpha  occ. eigenvalues --   -0.73749  -0.73616  -0.70362  -0.66038  -0.60662
 Alpha  occ. eigenvalues --   -0.59832  -0.58612  -0.56587  -0.52902  -0.50569
 Alpha  occ. eigenvalues --   -0.48135  -0.46580  -0.46458  -0.45267  -0.44560
 Alpha  occ. eigenvalues --   -0.43628  -0.42068  -0.41514  -0.41304  -0.40419
 Alpha  occ. eigenvalues --   -0.38436  -0.37128  -0.36437  -0.35272  -0.34415
 Alpha  occ. eigenvalues --   -0.33664  -0.32865  -0.32096  -0.30795  -0.24718
 Alpha  occ. eigenvalues --   -0.24328  -0.23656  -0.20983
 Alpha virt. eigenvalues --   -0.00070   0.00314   0.00839   0.01950   0.09421
 Alpha virt. eigenvalues --    0.10020   0.10884   0.12675   0.13019   0.14035
 Alpha virt. eigenvalues --    0.15477   0.15637   0.16165   0.16574   0.16933

 Mulliken atomic charges:
              1
     1  C   -0.229079
     2  O   -0.447523
     3  C    0.360470
     4  C   -0.189501
     5  C   -0.233273
     6  C    0.210072
     7  C   -0.194207
     8  C   -0.188256
     9  C   -0.439648
    10  C    0.176767
    11  C   -0.210628
    12  C   -0.122784
    13  C   -0.136748
    14  C   -0.139620
    15  C   -0.169402
    16  H    0.181170
    17  H    0.172566
    18  H    0.173009
    19  H    0.127502
    20  H    0.122015
    21  H    0.135036
    22  H    0.132677
    23  H    0.158274
    24  H    0.161699
    25  H    0.110903
    26  H    0.120482
    27  H    0.118648
    28  H    0.118258
    29  H    0.121122
 Sum of Mulliken atomic charges =  -0.00000

 Dipole moment (field-independent basis, Debye):
    X=              3.8371    Y=              0.1437    Z=             -1.0692  Tot=              3.9859
 Quadrupole moment (field-independent basis, Debye-Ang):
   XX=            -70.8719   YY=            -86.8948   ZZ=            -86.2700
   XY=             -2.6250   XZ=             -7.6949   YZ=              1.4154

 Summary of Natural Population Analysis:

                                       Natural Population
                Natural  -----------------------------------------------
    Atom  No    Charge         Core      Valence    Rydberg      Total
 -----------------------------------------------------------------------
      C    1   -0.32618      1.99942     4.31260    0.01415     6.32618
      O    2   -0.43014      1.99975     6.41872    0.01167     8.43014
      C    3    0.34247      1.99879     3.63597    0.02277     5.65753
      C    4   -0.32031      1.99905     4.30454    0.01673     6.32031
      C    5   -0.28166      1.99905     4.26351    0.01910     6.28166
      C    6    0.05764      1.99903     3.92622    0.01712     5.94236
      C    7   -0.26214      1.99905     4.24555    0.01754     6.26214
      C    8   -0.31410      1.99906     4.29504    0.02000     6.31410
      C    9   -0.48526      1.99921     4.47169    0.01436     6.48526
      C   10   -0.04956      1.99900     4.03364    0.01692     6.04956
      C   11   -0.25963      1.99902     4.24663    0.01398     6.25963
      C   12   -0.22316      1.99910     4.21003    0.01403     6.22316
      C   13   -0.24855      1.99909     4.23521    0.01425     6.24855
      C   14   -0.25255      1.99910     4.23855    0.01490     6.25255
      C   15   -0.21649      1.99902     4.20464    0.01283     6.21649
      H   16    0.23370      0.00000     0.76578    0.00052     0.76630
      H   17    0.21727      0.00000     0.78080    0.00193     0.78273
      H   18    0.21752      0.00000     0.78052    0.00196     0.78248
      H   19    0.23082      0.00000     0.76820    0.00099     0.76918
      H   20    0.23051      0.00000     0.76839    0.00110     0.76949
      H   21    0.23937      0.00000     0.75953    0.00111     0.76063
      H   22    0.24103      0.00000     0.75777    0.00120     0.75897
      H   23    0.25108      0.00000     0.74735    0.00157     0.74892
      H   24    0.25785      0.00000     0.73991    0.00224     0.74215
      H   25    0.22598      0.00000     0.77287    0.00115     0.77402
      H   26    0.23157      0.00000     0.76753    0.00090     0.76843
      H   27    0.23050      0.00000     0.76863    0.00087     0.76950
      H   28    0.23093      0.00000     0.76818    0.00089     0.76907
      H   29    0.23149      0.00000     0.76676    0.00175     0.76851
 =======================================================================
   * Total *   -0.00000     29.98674    75.75476    0.25850   106.00000

 Normal termination of Gaussian 09 at Fri Oct  1 01:08:55 2021.
