 Gaussian 09, Revision A.02,

 -----------------------------------
 #p opt b3lyp/6-31G* scf=(xqc,tight)
 -----------------------------------

 ------------------------------------
 CCN(C(=O)Oc1ccc2c(c1)ccn2C)CC_conf_0
 ------------------------------------
 Symbolic Z-matrix:
 Charge =  0 Multiplicity = 1

 SCF Done:  E(RB3LYP) =  -804.295779773     A.U. after   15 cycles
 SCF Done:  E(RB3LYP) =  -804.302901770     A.U. after   12 cycles
 SCF Done:  E(RB3LYP) =  -804.303752449     A.U. after   12 cycles
 SCF Done:  E(RB3LYP) =  -804.303850472     A.U. after   12 cycles
 SCF Done:  E(RB3LYP) =  -804.304722032     A.U. after   11 cycles
 SCF Done:  E(RB3LYP) =  -804.304904997     A.U. after   11 cycles
 SCF Done:  E(RB3LYP) =  -804.304997817     A.U. after   11 cycles
 SCF Done:  E(RB3LYP) =  -804.305032398     A.U. after   11 cycles
 SCF Done:  E(RB3LYP) =  -804.305079594     A.U. after   10 cycles
 SCF Done:  E(RB3LYP) =  -804.305093508     A.U. after   10 cycles
 SCF Done:  E(RB3LYP) =  -804.305111440     A.U. after    9 cycles
 SCF Done:  E(RB3LYP) =  -804.305114784     A.U. after    9 cycles
 SCF Done:  E(RB3LYP) =  -804.305117021     A.U. after    9 cycles
 SCF Done:  E(RB3LYP) =  -804.305119189     A.U. after    9 cycles
 SCF Done:  E(RB3LYP) =  -804.305121307     A.U. after    9 cycles
 SCF Done:  E(RB3LYP) =  -804.305122935     A.U. after    9 cycles
 SCF Done:  E(RB3LYP) =  -804.305123589     A.U. after    7 cycles
 SCF Done:  E(RB3LYP) =  -804.305123656     A.U. after    7 cycles
 Optimization completed.
    -- Stationary point found.
 Normal termination of Gaussian 09 at Thu Sep 30 19:06:55 2021.

 ----------------------------------------------------------------------
 #p freq b3lyp/6-31G* volume NMR pop=NPA density=current Geom=AllCheck
 Guess=Read
 ----------------------------------------------------------------------

 CCN(C(=O)Oc1ccc2c(c1)ccn2C)CC_conf_0
 ------------------------------------
 Redundant internal coordinates taken from checkpoint file:
 C14H18N2O2_b0ad_conf_0.chk
 Charge =  0 Multiplicity = 1

 SCF Done:  E(RB3LYP) =  -804.305123656     A.U. after    1 cycles

  1  C    Isotropic =   173.0124   Anisotropy =    23.3550

  2  C    Isotropic =   141.7213   Anisotropy =    49.2353

  3  N    Isotropic =   158.9800   Anisotropy =    69.1096

  4  C    Isotropic =    45.8683   Anisotropy =    72.6827

  5  O    Isotropic =    59.5292   Anisotropy =   390.3960

  6  O    Isotropic =   145.7965   Anisotropy =   109.1482

  7  C    Isotropic =    49.8505   Anisotropy =   100.1418

  8  C    Isotropic =    77.3243   Anisotropy =   144.1851

  9  C    Isotropic =    87.0900   Anisotropy =   139.6583

 10  C    Isotropic =    64.2993   Anisotropy =   132.6706

 11  C    Isotropic =    66.8530   Anisotropy =   151.6751

 12  C    Isotropic =    83.3672   Anisotropy =   124.1169

 13  C    Isotropic =    94.0141   Anisotropy =   104.8195

 14  C    Isotropic =    67.9579   Anisotropy =    87.6064

 15  N    Isotropic =   130.3842   Anisotropy =    78.9529

 16  C    Isotropic =   156.5902   Anisotropy =    50.2475

 17  C    Isotropic =   142.7848   Anisotropy =    46.9600

 18  C    Isotropic =   171.9189   Anisotropy =    24.3752

 19  H    Isotropic =    31.3263   Anisotropy =    10.4834

 20  H    Isotropic =    30.9918   Anisotropy =     6.2076

 21  H    Isotropic =    30.3418   Anisotropy =     6.1459

 22  H    Isotropic =    29.6241   Anisotropy =     6.7323

 23  H    Isotropic =    28.1406   Anisotropy =     6.3256

 24  H    Isotropic =    25.0129   Anisotropy =     9.1262

 25  H    Isotropic =    25.2039   Anisotropy =     7.3755

 26  H    Isotropic =    25.2825   Anisotropy =     8.2058

 27  H    Isotropic =    26.1111   Anisotropy =     3.3280

 28  H    Isotropic =    25.6440   Anisotropy =     3.6853

 29  H    Isotropic =    28.8111   Anisotropy =     8.5816

 30  H    Isotropic =    28.4990   Anisotropy =     9.5626

 31  H    Isotropic =    28.5402   Anisotropy =     9.5986

 32  H    Isotropic =    29.4382   Anisotropy =     6.6944

 33  H    Isotropic =    28.1006   Anisotropy =     6.0464

 34  H    Isotropic =    30.8915   Anisotropy =     6.7801

 35  H    Isotropic =    31.2926   Anisotropy =    10.1142

 36  H    Isotropic =    30.4969   Anisotropy =     5.1735

  Exact polarizability: 246.742   0.637 153.683  -3.667 -16.314 104.483
 Approx polarizability: 328.318  -2.867 254.153  -8.417 -34.727 158.765

                     1                      2                      3
                     A                      A                      A
 Frequencies --    23.3393                32.8987                46.7259
 Red. masses --     4.0093                 4.3776                 3.1009
 Frc consts  --     0.0013                 0.0028                 0.0040
 IR Inten    --     0.3757                 2.2678                 0.4235

                     4                      5                      6
                     A                      A                      A
 Frequencies --    65.9737                72.5619                81.5466
 Red. masses --     1.8585                 1.4979                 2.7966
 Frc consts  --     0.0048                 0.0046                 0.0110
 IR Inten    --     1.7414                 1.2300                 0.6808

                     7                      8                      9
                     A                      A                      A
 Frequencies --   102.4704               128.3350               135.6345
 Red. masses --     7.1614                 3.0758                 3.3844
 Frc consts  --     0.0443                 0.0298                 0.0367
 IR Inten    --     1.4484                 0.7645                 0.4645

                    10                     11                     12
                     A                      A                      A
 Frequencies --   190.1655               200.4914               230.6630
 Red. masses --     2.3364                 3.3926                 1.9874
 Frc consts  --     0.0498                 0.0803                 0.0623
 IR Inten    --     0.2299                 0.3876                 0.9878

                    13                     14                     15
                     A                      A                      A
 Frequencies --   235.1411               248.4409               266.3692
 Red. masses --     1.4158                 1.8779                 3.2265
 Frc consts  --     0.0461                 0.0683                 0.1349
 IR Inten    --     0.5712                 3.9400                 2.0731

                    16                     17                     18
                     A                      A                      A
 Frequencies --   305.0404               353.9505               385.1137
 Red. masses --     2.4410                 4.3529                 5.7338
 Frc consts  --     0.1338                 0.3213                 0.5010
 IR Inten    --     2.9773                 2.3083                 0.7779

                    19                     20                     21
                     A                      A                      A
 Frequencies --   403.4685               440.9913               442.9740
 Red. masses --     2.8621                 3.0694                 3.4002
 Frc consts  --     0.2745                 0.3517                 0.3931
 IR Inten    --    12.8854                 2.6177                 4.5153

                    22                     23                     24
                     A                      A                      A
 Frequencies --   476.8267               493.9791               571.2882
 Red. masses --     3.1875                 3.8074                 4.6871
 Frc consts  --     0.4270                 0.5474                 0.9013
 IR Inten    --     4.8749                 1.9738                 2.6022

                    25                     26                     27
                     A                      A                      A
 Frequencies --   586.2917               598.4974               618.8145
 Red. masses --     3.8398                 4.6949                 4.4213
 Frc consts  --     0.7776                 0.9908                 0.9975
 IR Inten    --     0.2637                 1.3564                13.0258

                    28                     29                     30
                     A                      A                      A
 Frequencies --   642.4738               707.3778               719.9022
 Red. masses --     3.4925                 4.4256                 1.4265
 Frc consts  --     0.8494                 1.3048                 0.4356
 IR Inten    --     6.4839                 1.5553                33.5327

                    31                     32                     33
                     A                      A                      A
 Frequencies --   751.9622               764.2606               780.2645
 Red. masses --    10.8853                 2.2662                 2.3725
 Frc consts  --     3.6265                 0.7799                 0.8510
 IR Inten    --    23.1315                17.2930                 7.3050

                    34                     35                     36
                     A                      A                      A
 Frequencies --   789.1945               790.1998               801.0621
 Red. masses --     1.2196                 2.4248                 1.7420
 Frc consts  --     0.4475                 0.8921                 0.6586
 IR Inten    --     1.7697                 7.7216                14.2449

                    37                     38                     39
                     A                      A                      A
 Frequencies --   827.5703               837.3163               839.7378
 Red. masses --     4.6135                 1.2998                 2.3915
 Frc consts  --     1.8616                 0.5369                 0.9936
 IR Inten    --     9.2064                 0.1539                 1.4511

                    40                     41                     42
                     A                      A                      A
 Frequencies --   888.9624               918.6760               937.7724
 Red. masses --     1.5993                 1.2909                 2.5270
 Frc consts  --     0.7446                 0.6419                 1.3094
 IR Inten    --    19.8234                 0.5872                 5.5968

                    43                     44                     45
                     A                      A                      A
 Frequencies --   958.9520               991.6340              1033.1480
 Red. masses --     2.6274                 2.6204                 2.1259
 Frc consts  --     1.4235                 1.5182                 1.3370
 IR Inten    --     1.5713                68.7617                19.3156

                    46                     47                     48
                     A                      A                      A
 Frequencies --  1066.0938              1106.2063              1112.2836
 Red. masses --     2.8501                 1.9427                 1.1965
 Frc consts  --     1.9085                 1.4006                 0.8721
 IR Inten    --    17.8245                 3.1437                19.2059

                    49                     50                     51
                     A                      A                      A
 Frequencies --  1121.1300              1124.8137              1128.9745
 Red. masses --     1.7997                 1.6386                 2.3423
 Frc consts  --     1.3328                 1.2215                 1.7590
 IR Inten    --    30.9405                43.1211                 5.1656

                    52                     53                     54
                     A                      A                      A
 Frequencies --  1160.4171              1167.3881              1181.4025
 Red. masses --     1.2888                 1.8416                 1.3963
 Frc consts  --     1.0225                 1.4787                 1.1482
 IR Inten    --     0.1570                23.3611                 6.2190

                    55                     56                     57
                     A                      A                      A
 Frequencies --  1201.1838              1255.0717              1265.8698
 Red. masses --     2.7773                 3.1605                 2.5311
 Frc consts  --     2.3610                 2.9332                 2.3896
 IR Inten    --   430.9831               261.0705                16.8722

                    58                     59                     60
                     A                      A                      A
 Frequencies --  1275.2318              1316.2546              1329.1602
 Red. masses --     1.5939                 1.6596                 2.0682
 Frc consts  --     1.5272                 1.6941                 2.1528
 IR Inten    --    88.7809               308.2302                23.1295

                    61                     62                     63
                     A                      A                      A
 Frequencies --  1366.6329              1379.0756              1402.3523
 Red. masses --     1.3828                 7.6605                 1.4290
 Frc consts  --     1.5216                 8.5839                 1.6558
 IR Inten    --    34.7151                23.4182                 6.6215

                    64                     65                     66
                     A                      A                      A
 Frequencies --  1403.5663              1420.1590              1431.0313
 Red. masses --     2.4941                 1.3443                 4.7691
 Frc consts  --     2.8949                 1.5974                 5.7542
 IR Inten    --     8.1578                51.6570                 6.4185

                    67                     68                     69
                     A                      A                      A
 Frequencies --  1435.2654              1438.0106              1456.6000
 Red. masses --     1.2622                 1.3264                 1.7611
 Frc consts  --     1.5320                 1.6161                 2.2014
 IR Inten    --    14.5543                88.9327               244.8594

                    70                     71                     72
                     A                      A                      A
 Frequencies --  1478.3893              1496.4027              1504.7888
 Red. masses --     1.3190                 3.7080                 1.0715
 Frc consts  --     1.6986                 4.8920                 1.4296
 IR Inten    --    22.6275                11.4996                 6.5662

                    73                     74                     75
                     A                      A                      A
 Frequencies --  1508.4177              1518.3779              1521.1412
 Red. masses --     1.0416                 1.0478                 1.1514
 Frc consts  --     1.3964                 1.4232                 1.5697
 IR Inten    --     6.9227                 0.6358                83.3512

                    76                     77                     78
                     A                      A                      A
 Frequencies --  1526.7778              1532.6134              1537.4843
 Red. masses --     1.0493                 1.0815                 1.8606
 Frc consts  --     1.4411                 1.4967                 2.5914
 IR Inten    --    11.5271                14.7409                51.4850

                    79                     80                     81
                     A                      A                      A
 Frequencies --  1541.7449              1548.1263              1572.8662
 Red. masses --     1.2487                 1.1455                 4.0844
 Frc consts  --     1.7488                 1.6175                 5.9534
 IR Inten    --     5.8825                 2.7409                15.0054

                    82                     83                     84
                     A                      A                      A
 Frequencies --  1627.5943              1678.5639              1805.3598
 Red. masses --     6.5522                 6.8731                11.4712
 Frc consts  --    10.2266                11.4098                22.0287
 IR Inten    --    14.7252                 8.1839               363.4635

                    85                     86                     87
                     A                      A                      A
 Frequencies --  3043.8392              3054.0551              3056.3947
 Red. masses --     1.0356                 1.0365                 1.0368
 Frc consts  --     5.6529                 5.6958                 5.7063
 IR Inten    --    68.6921                11.1509                35.8730

                    88                     89                     90
                     A                      A                      A
 Frequencies --  3064.5673              3073.9197              3096.5475
 Red. masses --     1.0657                 1.0644                 1.1057
 Frc consts  --     5.8967                 5.9259                 6.2466
 IR Inten    --     2.8073                67.2226                25.4950

                    91                     92                     93
                     A                      A                      A
 Frequencies --  3112.6554              3117.9611              3127.1556
 Red. masses --     1.1023                 1.1020                 1.0980
 Frc consts  --     6.2922                 6.3120                 6.3264
 IR Inten    --    20.4376                 9.4480                44.4092

                    94                     95                     96
                     A                      A                      A
 Frequencies --  3129.2087              3144.2560              3148.1184
 Red. masses --     1.0984                 1.1038                 1.1046
 Frc consts  --     6.3369                 6.4293                 6.4497
 IR Inten    --    16.7612                11.0925                56.1857

                    97                     98                     99
                     A                      A                      A
 Frequencies --  3152.2073              3198.3289              3210.8337
 Red. masses --     1.1004                 1.0897                 1.0913
 Frc consts  --     6.4422                 6.5678                 6.6290
 IR Inten    --    10.4276                12.7301                 6.9514

                   100                    101                    102
                     A                      A                      A
 Frequencies --  3242.5981              3254.3383              3273.3894
 Red. masses --     1.0929                 1.0892                 1.1034
 Frc consts  --     6.7704                 6.7962                 6.9656
 IR Inten    --     3.9605                 0.8724                 7.5977

 - Thermochemistry -
 -------------------
 Temperature   298.150 Kelvin.  Pressure   1.00000 Atm.
 Atom     1 has atomic number  6 and mass  12.00000

 Molecular mass:   246.13683 amu.
 Principal axes and moments of inertia in atomic units:
                           1         2         3
     Eigenvalues --  1564.51320********************
           X            0.99998  -0.00548  -0.00285
           Y            0.00544   0.99986  -0.01551
           Z            0.00293   0.01549   0.99988
 This molecule is an asymmetric top.
 Rotational symmetry number  1.
 Warning -- assumption of classical behavior for rotation
           may cause significant error
 Rotational temperatures (Kelvin)      0.05536     0.00856     0.00804
 Rotational constants (GHZ):           1.15355     0.17832     0.16759
 Zero-point vibrational energy     796483.6 (Joules/Mol)
                                  190.36415 (Kcal/Mol)
 Warning -- explicit consideration of  27 degrees of freedom as
           vibrations may cause significant error
 Vibrational temperatures:     33.58    47.33    67.23    94.92   104.40
          (Kelvin)            117.33   147.43   184.65   195.15   273.61
                              288.46   331.87   338.32   357.45   383.25
                              438.88   509.26   554.09   580.50   634.49
                              637.34   686.05   710.72   821.96   843.54
                              861.10   890.33   924.38  1017.76  1035.78
                             1081.90  1099.60  1122.63  1135.47  1136.92
                             1152.55  1190.69  1204.71  1208.19  1279.02
                             1321.77  1349.24  1379.72  1426.74  1486.47
                             1533.87  1591.58  1600.33  1613.05  1618.35
                             1624.34  1669.58  1679.61  1699.77  1728.23
                             1805.77  1821.30  1834.77  1893.79  1912.36
                             1966.28  1984.18  2017.67  2019.42  2043.29
                             2058.93  2065.02  2068.97  2095.72  2127.07
                             2152.99  2165.05  2170.27  2184.60  2188.58
                             2196.69  2205.09  2212.09  2218.22  2227.41
                             2263.00  2341.74  2415.08  2597.51  4379.40
                             4394.10  4397.46  4409.22  4422.68  4455.24
                             4478.41  4486.05  4499.27  4502.23  4523.88
                             4529.43  4535.32  4601.68  4619.67  4665.37
                             4682.26  4709.67

 Zero-point correction=                           0.303365 (Hartree/Particle)
 Thermal correction to Energy=                    0.321157
 Thermal correction to Enthalpy=                  0.322101
 Thermal correction to Gibbs Free Energy=         0.255765
 Sum of electronic and zero-point Energies=           -804.001759
 Sum of electronic and thermal Energies=              -803.983967
 Sum of electronic and thermal Enthalpies=            -803.983023
 Sum of electronic and thermal Free Energies=         -804.049358

                     E (Thermal)             CV                S
                      KCal/Mol        Cal/Mol-Kelvin    Cal/Mol-Kelvin
 Total                  201.529             66.252            139.615
 Electronic               0.000              0.000              0.000
 Translational            0.889              2.981             42.403
 Rotational               0.889              2.981             33.500
 Vibrational            199.751             60.290             63.713
 Vibration     1          0.593              1.985              6.328
 Vibration     2          0.594              1.983              5.646
 Vibration     3          0.595              1.979              4.951
 Vibration     4          0.597              1.971              4.270
 Vibration     5          0.599              1.967              4.083
 Vibration     6          0.600              1.962              3.853
 Vibration     7          0.605              1.947              3.407
 Vibration     8          0.611              1.925              2.971
 Vibration     9          0.613              1.918              2.865
 Vibration    10          0.633              1.853              2.226
 Vibration    11          0.638              1.839              2.129
 Vibration    12          0.652              1.794              1.874
 Vibration    13          0.655              1.787              1.839
 Vibration    14          0.662              1.765              1.742
 Vibration    15          0.672              1.735              1.620
 Vibration    16          0.696              1.664              1.389
 Vibration    17          0.730              1.567              1.149
 Vibration    18          0.754              1.502              1.019
 Vibration    19          0.769              1.463              0.950
 Vibration    20          0.801              1.381              0.823
 Vibration    21          0.803              1.376              0.817
 Vibration    22          0.833              1.301              0.719
 Vibration    23          0.850              1.263              0.673
 Vibration    24          0.927              1.093              0.502
 Vibration    25          0.943              1.061              0.474
 Vibration    26          0.956              1.035              0.452
 Vibration    27          0.979              0.992              0.418

 Optimization completed.
    -- Stationary point found.
 Normal termination of Gaussian 09 at Thu Sep 30 20:19:26 2021.
 Gaussian 09:  AM64L-G09RevA.02 11-Jun-2009

 ----------------------------------------------------------------------
 #p TD(NStates=10, Root=1) b3lyp/6-31G* volume pop=NPA density=current
 Geom=AllCheck Guess=Read
 ----------------------------------------------------------------------

 CCN(C(=O)Oc1ccc2c(c1)ccn2C)CC_conf_0
 ------------------------------------
 Redundant internal coordinates taken from checkpoint file:
 C14H18N2O2_b0ad_conf_0.chk
 Charge =  0 Multiplicity = 1

                         Standard orientation:
 ---------------------------------------------------------------------
 Center     Atomic      Atomic             Coordinates (Angstroms)
 Number     Number       Type             X           Y           Z
 ---------------------------------------------------------------------
      1          6           0       -4.865273   -1.652585   -0.013069
      2          6           0       -4.358143   -0.562941   -0.962734
      3          7           0       -3.269485    0.254806   -0.415718
      4          6           0       -2.010003   -0.267371   -0.497874
      5          8           0       -1.726844   -1.332824   -1.014459
      6          8           0       -1.094412    0.581236    0.084350
      7          6           0        0.261983    0.236360    0.068399
      8          6           0        0.705284   -0.978267    0.625783
      9          6           0        2.063213   -1.263008    0.684652
     10          6           0        2.958400   -0.309395    0.186080
     11          6           0        2.516578    0.923569   -0.370845
     12          6           0        1.137580    1.187675   -0.427999
     13          6           0        3.692463    1.642363   -0.769218
     14          6           0        4.766361    0.851110   -0.454749
     15          7           0        4.339771   -0.331291    0.123393
     16          6           0        5.184834   -1.412747    0.583481
     17          6           0       -3.561134    1.526998    0.254418
     18          6           0       -3.701176    1.427104    1.777341
     19          1           0       -5.655784   -2.236720   -0.499108
     20          1           0       -5.275756   -1.228785    0.909788
     21          1           0       -4.049329   -2.333418    0.246419
     22          1           0       -5.171242    0.119715   -1.232565
     23          1           0       -3.992222   -1.025710   -1.882873
     24          1           0       -0.022785   -1.691933    0.990780
     25          1           0        2.408975   -2.201916    1.107392
     26          1           0        0.749029    2.112297   -0.843558
     27          1           0        3.735198    2.618718   -1.231806
     28          1           0        5.824451    1.028294   -0.595115
     29          1           0        6.229165   -1.150706    0.400122
     30          1           0        4.960131   -2.343322    0.048526
     31          1           0        5.053033   -1.586938    1.658261
     32          1           0       -4.489081    1.910534   -0.184065
     33          1           0       -2.769161    2.236812    0.004818
     34          1           0       -4.514477    0.752115    2.063943
     35          1           0       -3.915711    2.415777    2.200506
     36          1           0       -2.772187    1.060089    2.223677
 ---------------------------------------------------------------------

 SCF Done:  E(RB3LYP) =  -804.305123656     A.U. after    1 cycles

 Excitation energies and oscillator strengths:

 Excited State   1:      Singlet-A      4.6849 eV  264.65 nm  f=0.0525  <S**2>=0.000
      65 -> 67         0.24553
      65 -> 68        -0.15136
      66 -> 67         0.62110
      66 -> 68         0.10609
 This state for optimization and/or second-order correction.
 Total Energy, E(TD-HF/TD-KS) =  -804.132958573
 Copying the excited state density for this state as the 1-particle RhoCI density.

 Excited State   2:      Singlet-A      4.8781 eV  254.16 nm  f=0.0565  <S**2>=0.000
      65 -> 67         0.52430
      66 -> 67        -0.25986
      66 -> 68         0.37921

 Excited State   3:      Singlet-A      5.6938 eV  217.75 nm  f=0.0254  <S**2>=0.000
      64 -> 67         0.68899
      66 -> 68         0.11851

 Excited State   4:      Singlet-A      5.9697 eV  207.69 nm  f=0.7369  <S**2>=0.000
      64 -> 67        -0.14523
      65 -> 67        -0.33612
      66 -> 68         0.54648
      66 -> 69        -0.16944

 Excited State   5:      Singlet-A      6.0481 eV  205.00 nm  f=0.1702  <S**2>=0.000
      62 -> 67         0.14922
      63 -> 67        -0.26068
      65 -> 68         0.59777
      65 -> 69        -0.12437

 Excited State   6:      Singlet-A      6.2413 eV  198.65 nm  f=0.1021  <S**2>=0.000
      62 -> 67         0.15710
      63 -> 67         0.60922
      65 -> 68         0.21618
      66 -> 69         0.11852

 Excited State   7:      Singlet-A      6.4214 eV  193.08 nm  f=0.1242  <S**2>=0.000
      62 -> 67        -0.13053
      63 -> 67        -0.16270
      63 -> 68        -0.10274
      63 -> 69         0.11879
      64 -> 68        -0.11927
      65 -> 67        -0.11024
      66 -> 69         0.61502

 Excited State   8:      Singlet-A      6.5509 eV  189.26 nm  f=0.0252  <S**2>=0.000
      62 -> 67         0.47507
      65 -> 69         0.39195
      66 -> 70         0.25526

 Excited State   9:      Singlet-A      6.6092 eV  187.59 nm  f=0.0038  <S**2>=0.000
      64 -> 68         0.65165
      65 -> 69        -0.15520
      66 -> 69         0.14228

 Excited State  10:      Singlet-A      6.7070 eV  184.86 nm  f=0.0476  <S**2>=0.000
      62 -> 68         0.13654
      62 -> 69        -0.14051
      63 -> 68         0.40650
      63 -> 69        -0.31613
      65 -> 68         0.14623
      65 -> 69         0.31228
      66 -> 69         0.13070
      66 -> 70        -0.11629

 The electronic state is 1-A.
 Alpha  occ. eigenvalues --  -19.18175 -19.10606 -14.37836 -14.35579 -10.31995
 Alpha  occ. eigenvalues --  -10.23279 -10.23268 -10.22056 -10.21610 -10.21328
 Alpha  occ. eigenvalues --  -10.20801 -10.18527 -10.17984 -10.17829 -10.17801
 Alpha  occ. eigenvalues --  -10.17689 -10.17329 -10.16883  -1.09237  -1.00199
 Alpha  occ. eigenvalues --   -0.98131  -0.93051  -0.83769  -0.79355  -0.76678
 Alpha  occ. eigenvalues --   -0.75120  -0.73355  -0.71457  -0.68941  -0.65159
 Alpha  occ. eigenvalues --   -0.63344  -0.61268  -0.59648  -0.56580  -0.54114
 Alpha  occ. eigenvalues --   -0.52428  -0.51297  -0.48202  -0.47958  -0.46521
 Alpha  occ. eigenvalues --   -0.45674  -0.45376  -0.44007  -0.43734  -0.42901
 Alpha  occ. eigenvalues --   -0.42764  -0.41818  -0.41164  -0.40379  -0.39258
 Alpha  occ. eigenvalues --   -0.38732  -0.38405  -0.38077  -0.37607  -0.36579
 Alpha  occ. eigenvalues --   -0.36076  -0.35511  -0.34102  -0.33649  -0.31871
 Alpha  occ. eigenvalues --   -0.29191  -0.26942  -0.25889  -0.23410  -0.20738
 Alpha  occ. eigenvalues --   -0.19551
 Alpha virt. eigenvalues --   -0.00388   0.03076   0.06190   0.07765   0.08865
 Alpha virt. eigenvalues --    0.09183   0.11218   0.11537   0.11966   0.12678
 Alpha virt. eigenvalues --    0.13643   0.14683   0.14913   0.15949   0.16030

 Mulliken atomic charges:
              1
     1  C   -0.446706
     2  C   -0.133031
     3  N   -0.446187
     4  C    0.790867
     5  O   -0.513730
     6  O   -0.560180
     7  C    0.372787
     8  C   -0.188772
     9  C   -0.218267
    10  C    0.302685
    11  C    0.104583
    12  C   -0.286853
    13  C   -0.197904
    14  C    0.007229
    15  N   -0.443845
    16  C   -0.328052
    17  C   -0.130322
    18  C   -0.445988
    19  H    0.142871
    20  H    0.144382
    21  H    0.176279
    22  H    0.136730
    23  H    0.178134
    24  H    0.122762
    25  H    0.104676
    26  H    0.116371
    27  H    0.151526
    28  H    0.146929
    29  H    0.177856
    30  H    0.195104
    31  H    0.192803
    32  H    0.140853
    33  H    0.171923
    34  H    0.149145
    35  H    0.142641
    36  H    0.170701
 Sum of Mulliken atomic charges =  -0.00000

 Dipole moment (field-independent basis, Debye):
    X=              2.4969    Y=              1.2184    Z=              1.0036  Tot=              2.9541
 Quadrupole moment (field-independent basis, Debye-Ang):
   XX=            -64.1034   YY=           -102.5532   ZZ=           -108.8019
   XY=             -8.7460   XZ=              0.9054   YZ=             -5.8319

 Summary of Natural Population Analysis:

                                       Natural Population
                Natural  -----------------------------------------------
    Atom  No    Charge         Core      Valence    Rydberg      Total
 -----------------------------------------------------------------------
      C    1   -0.68704      1.99945     4.68032    0.00728     6.68704
      C    2   -0.25204      1.99935     4.23709    0.01561     6.25204
      N    3   -0.50142      1.99930     5.48895    0.01317     7.50142
      C    4    0.94218      1.99937     3.01268    0.04576     5.05782
      O    5   -0.64187      1.99978     6.62310    0.01899     8.64187
      O    6   -0.55342      1.99969     6.54344    0.01029     8.55342
      C    7    0.33905      1.99872     3.63967    0.02256     5.66095
      C    8   -0.33056      1.99904     4.31416    0.01736     6.33056
      C    9   -0.33319      1.99903     4.31606    0.01810     6.33319
      C   10    0.13976      1.99901     3.84175    0.01948     5.86024
      C   11   -0.11481      1.99905     4.09912    0.01664     6.11481
      C   12   -0.30880      1.99894     4.29173    0.01813     6.30880
      C   13   -0.17737      1.99904     4.16469    0.01364     6.17737
      C   14   -0.10998      1.99917     4.08990    0.02091     6.10998
      N   15   -0.26647      1.99928     5.25586    0.01132     7.26647
      C   16   -0.47060      1.99946     4.45928    0.01186     6.47060
      C   17   -0.25675      1.99935     4.24216    0.01525     6.25675
      C   18   -0.68646      1.99945     4.67972    0.00729     6.68646
      H   19    0.23245      0.00000     0.76662    0.00092     0.76755
      H   20    0.22113      0.00000     0.77785    0.00102     0.77887
      H   21    0.24459      0.00000     0.75408    0.00133     0.75541
      H   22    0.22463      0.00000     0.77402    0.00136     0.77537
      H   23    0.25412      0.00000     0.74376    0.00212     0.74588
      H   24    0.24335      0.00000     0.75567    0.00098     0.75665
      H   25    0.22589      0.00000     0.77318    0.00093     0.77411
      H   26    0.23583      0.00000     0.76270    0.00147     0.76417
      H   27    0.24329      0.00000     0.75615    0.00056     0.75671
      H   28    0.22870      0.00000     0.77077    0.00053     0.77130
      H   29    0.24241      0.00000     0.75691    0.00068     0.75759
      H   30    0.24966      0.00000     0.74844    0.00190     0.75034
      H   31    0.24832      0.00000     0.74976    0.00192     0.75168
      H   32    0.22793      0.00000     0.77057    0.00150     0.77207
      H   33    0.24992      0.00000     0.74840    0.00168     0.75008
      H   34    0.22430      0.00000     0.77468    0.00102     0.77570
      H   35    0.23213      0.00000     0.76688    0.00099     0.76787
      H   36    0.24116      0.00000     0.75755    0.00130     0.75884
 =======================================================================
   * Total *    0.00000     35.98648    95.68767    0.32585   132.00000

 Normal termination of Gaussian 09 at Fri Oct  1 02:26:59 2021.
