 Gaussian 09, Revision A.02,

 -----------------------------------
 #p opt b3lyp/6-31G* scf=(xqc,tight)
 -----------------------------------

 ---------------------------------------
 COc1ccc2c(c1)ccc(c2)O[Si](C)(C)C_conf_0
 ---------------------------------------
 Symbolic Z-matrix:
 Charge =  0 Multiplicity = 1

 SCF Done:  E(RB3LYP) =  -984.342210148     A.U. after   14 cycles
 SCF Done:  E(RB3LYP) =  -984.348821157     A.U. after   12 cycles
 SCF Done:  E(RB3LYP) =  -984.349970472     A.U. after   12 cycles
 SCF Done:  E(RB3LYP) =  -984.350298874     A.U. after   11 cycles
 SCF Done:  E(RB3LYP) =  -984.350454705     A.U. after   12 cycles
 SCF Done:  E(RB3LYP) =  -984.350491410     A.U. after   10 cycles
 SCF Done:  E(RB3LYP) =  -984.350496634     A.U. after    8 cycles
 SCF Done:  E(RB3LYP) =  -984.350498429     A.U. after    8 cycles
 SCF Done:  E(RB3LYP) =  -984.350499098     A.U. after    7 cycles
 SCF Done:  E(RB3LYP) =  -984.350499712     A.U. after    7 cycles
 SCF Done:  E(RB3LYP) =  -984.350513715     A.U. after   10 cycles
 SCF Done:  E(RB3LYP) =  -984.350518176     A.U. after   10 cycles
 SCF Done:  E(RB3LYP) =  -984.350516095     A.U. after   10 cycles
 SCF Done:  E(RB3LYP) =  -984.350516884     A.U. after    7 cycles
 SCF Done:  E(RB3LYP) =  -984.350517463     A.U. after    7 cycles
 SCF Done:  E(RB3LYP) =  -984.350517351     A.U. after    6 cycles
 SCF Done:  E(RB3LYP) =  -984.350517308     A.U. after    6 cycles
 SCF Done:  E(RB3LYP) =  -984.350517351     A.U. after    6 cycles
 Optimization completed.
    -- Stationary point found.
 Normal termination of Gaussian 09 at Tue Sep 28 19:34:27 2021.

 ----------------------------------------------------------------------
 #p freq b3lyp/6-31G* volume NMR pop=NPA density=current Geom=AllCheck
 Guess=Read
 ----------------------------------------------------------------------

 COc1ccc2c(c1)ccc(c2)O[Si](C)(C)C_conf_0
 ---------------------------------------
 Redundant internal coordinates taken from checkpoint file:
 C14H18O2Si_6237_conf_0.chk
 Charge =  0 Multiplicity = 1

 SCF Done:  E(RB3LYP) =  -984.350517351     A.U. after    1 cycles

  1  C    Isotropic =   137.3944   Anisotropy =    65.4353

  2  O    Isotropic =   238.7243   Anisotropy =    75.7672

  3  C    Isotropic =    41.8971   Anisotropy =   120.0140

  4  C    Isotropic =    76.3202   Anisotropy =   135.1397

  5  C    Isotropic =    68.0065   Anisotropy =   138.8602

  6  C    Isotropic =    66.7547   Anisotropy =   185.6139

  7  C    Isotropic =    66.8140   Anisotropy =   188.1188

  8  C    Isotropic =    89.7112   Anisotropy =   119.0453

  9  C    Isotropic =    67.5184   Anisotropy =   139.3607

 10  C    Isotropic =    73.6866   Anisotropy =   134.1657

 11  C    Isotropic =    43.9519   Anisotropy =   115.7572

 12  C    Isotropic =    82.8590   Anisotropy =   106.3721

 13  O    Isotropic =   216.0825   Anisotropy =    78.3449

 14  Si   Isotropic =   394.5247   Anisotropy =    31.1877

 15  C    Isotropic =   190.2648   Anisotropy =     8.9903

 16  C    Isotropic =   188.3020   Anisotropy =    11.8847

 17  C    Isotropic =   188.3784   Anisotropy =     8.4738

 18  H    Isotropic =    28.2484   Anisotropy =     8.3905

 19  H    Isotropic =    28.5551   Anisotropy =     8.0239

 20  H    Isotropic =    28.5557   Anisotropy =     8.0445

 21  H    Isotropic =    25.3025   Anisotropy =     6.3796

 22  H    Isotropic =    24.8910   Anisotropy =     8.1317

 23  H    Isotropic =    25.7243   Anisotropy =     9.2309

 24  H    Isotropic =    24.8185   Anisotropy =     7.2979

 25  H    Isotropic =    25.2658   Anisotropy =     7.3713

 26  H    Isotropic =    25.4212   Anisotropy =    10.6339

 27  H    Isotropic =    31.9998   Anisotropy =     8.9400

 28  H    Isotropic =    31.4366   Anisotropy =     8.9528

 29  H    Isotropic =    32.2769   Anisotropy =     9.8056

 30  H    Isotropic =    31.8198   Anisotropy =     9.1985

 31  H    Isotropic =    32.2920   Anisotropy =     9.6501

 32  H    Isotropic =    31.7765   Anisotropy =     9.0160

 33  H    Isotropic =    31.4636   Anisotropy =     9.0372

 34  H    Isotropic =    31.8146   Anisotropy =     8.5677

 35  H    Isotropic =    32.1847   Anisotropy =     9.6884

  Exact polarizability: 273.205 -12.224 171.980   2.359   0.694  96.136
 Approx polarizability: 375.302 -35.612 300.842   4.780   0.596 137.781

                     1                      2                      3
                     A                      A                      A
 Frequencies --    19.2808                34.2980                63.7165
 Red. masses --     3.7377                 3.1402                 4.0164
 Frc consts  --     0.0008                 0.0022                 0.0096
 IR Inten    --     1.1160                 0.0041                 0.3942

                     4                      5                      6
                     A                      A                      A
 Frequencies --    69.0662               113.7784               125.2986
 Red. masses --     3.8316                 2.3393                 1.2649
 Frc consts  --     0.0108                 0.0178                 0.0117
 IR Inten    --     0.5720                 2.3138                 0.5099

                     7                      8                      9
                     A                      A                      A
 Frequencies --   142.7980               144.7987               157.6996
 Red. masses --     1.0512                 1.0571                 3.1597
 Frc consts  --     0.0126                 0.0131                 0.0463
 IR Inten    --     0.0683                 0.0458                 1.4856

                    10                     11                     12
                     A                      A                      A
 Frequencies --   169.8784               180.8257               199.5911
 Red. masses --     2.7911                 2.9652                 2.9003
 Frc consts  --     0.0475                 0.0571                 0.0681
 IR Inten    --     0.2434                 0.0791                 1.2089

                    13                     14                     15
                     A                      A                      A
 Frequencies --   214.8060               217.9525               244.3567
 Red. masses --     2.6947                 2.6141                 2.9132
 Frc consts  --     0.0733                 0.0732                 0.1025
 IR Inten    --     1.3358                 1.7109                 2.1728

                    16                     17                     18
                     A                      A                      A
 Frequencies --   260.5838               290.1485               322.3571
 Red. masses --     1.5322                 2.9480                 4.0699
 Frc consts  --     0.0613                 0.1462                 0.2492
 IR Inten    --     3.8775                 4.9916                12.4205

                    19                     20                     21
                     A                      A                      A
 Frequencies --   367.7212               401.6425               411.8294
 Red. masses --     5.8160                 5.8687                 3.3806
 Frc consts  --     0.4634                 0.5578                 0.3378
 IR Inten    --     2.0323                 2.1192                 0.0551

                    22                     23                     24
                     A                      A                      A
 Frequencies --   457.0624               485.4200               497.4341
 Red. masses --     5.0277                 2.6262                 4.4775
 Frc consts  --     0.6188                 0.3646                 0.6528
 IR Inten    --     1.4655                 6.5433                 2.4762

                    25                     26                     27
                     A                      A                      A
 Frequencies --   530.6021               572.8575               584.9428
 Red. masses --     5.8977                 5.3154                 2.8296
 Frc consts  --     0.9783                 1.0277                 0.5704
 IR Inten    --     0.4635                15.5859                 0.9082

                    28                     29                     30
                     A                      A                      A
 Frequencies --   608.7538               665.5359               670.7593
 Red. masses --     4.1962                 5.8996                 3.7860
 Frc consts  --     0.9162                 1.5396                 1.0036
 IR Inten    --     6.1398                16.3917                 0.4303

                    31                     32                     33
                     A                      A                      A
 Frequencies --   689.8437               697.6226               703.6350
 Red. masses --     2.2464                 2.2820                 1.1828
 Frc consts  --     0.6299                 0.6543                 0.3450
 IR Inten    --     8.6861                 6.4127                 0.0637

                    34                     35                     36
                     A                      A                      A
 Frequencies --   746.2775               754.8774               782.8862
 Red. masses --     5.6285                 2.9403                 1.5210
 Frc consts  --     1.8469                 0.9872                 0.5492
 IR Inten    --    18.9740                 0.2822                23.6628

                    37                     38                     39
                     A                      A                      A
 Frequencies --   790.9660               813.3953               816.5697
 Red. masses --     1.4909                 4.3230                 1.2703
 Frc consts  --     0.5495                 1.6852                 0.4991
 IR Inten    --    23.4478                10.8467                 7.3390

                    40                     41                     42
                     A                      A                      A
 Frequencies --   826.1646               868.0456               871.3416
 Red. masses --     1.6228                 1.6551                 1.6109
 Frc consts  --     0.6526                 0.7348                 0.7206
 IR Inten    --     0.0040                 7.7376                54.8416

                    43                     44                     45
                     A                      A                      A
 Frequencies --   883.3052               889.6517               891.2885
 Red. masses --     2.2782                 1.6309                 1.6744
 Frc consts  --     1.0473                 0.7605                 0.7837
 IR Inten    --    67.6947               124.5329               109.3620

                    46                     47                     48
                     A                      A                      A
 Frequencies --   924.8929               959.0234               960.7296
 Red. masses --     3.2166                 1.2833                 1.2739
 Frc consts  --     1.6212                 0.6954                 0.6928
 IR Inten    --   320.5897                 0.0554                 0.1900

                    49                     50                     51
                     A                      A                      A
 Frequencies --   971.0979               999.7686              1077.6001
 Red. masses --     4.5289                 3.1707                 4.4216
 Frc consts  --     2.5163                 1.8673                 3.0251
 IR Inten    --    95.7459               126.4776                40.6559

                    52                     53                     54
                     A                      A                      A
 Frequencies --  1148.5432              1172.2024              1186.8242
 Red. masses --     1.5354                 1.1979                 1.2726
 Frc consts  --     1.1933                 0.9698                 1.0562
 IR Inten    --    86.9148                 0.3100                 0.8146

                    55                     56                     57
                     A                      A                      A
 Frequencies --  1204.8224              1222.9056              1240.6403
 Red. masses --     1.5236                 1.5321                 1.7392
 Frc consts  --     1.3031                 1.3499                 1.5773
 IR Inten    --    73.0332                23.5184                 4.2320

                    58                     59                     60
                     A                      A                      A
 Frequencies --  1285.5983              1299.7568              1309.2231
 Red. masses --     6.4231                 1.9706                 2.1453
 Frc consts  --     6.2547                 1.9614                 2.1666
 IR Inten    --   644.7657                30.8061                10.2023

                    61                     62                     63
                     A                      A                      A
 Frequencies --  1333.2224              1333.5799              1342.6372
 Red. masses --     1.2613                 1.2497                 1.2324
 Frc consts  --     1.3209                 1.3095                 1.3089
 IR Inten    --    32.4796                40.8534                44.7622

                    64                     65                     66
                     A                      A                      A
 Frequencies --  1375.4658              1417.2161              1439.3182
 Red. masses --     1.9359                 5.0391                 4.2303
 Frc consts  --     2.1579                 5.9631                 5.1633
 IR Inten    --    26.7237                17.7888               231.4256

                    67                     68                     69
                     A                      A                      A
 Frequencies --  1462.2798              1484.5158              1490.2864
 Red. masses --     4.3981                 1.0537                 1.0545
 Frc consts  --     5.5408                 1.3681                 1.3799
 IR Inten    --     0.2890                 0.2616                 0.2059

                    70                     71                     72
                     A                      A                      A
 Frequencies --  1491.2528              1496.8923              1497.4665
 Red. masses --     1.0534                 1.2335                 1.0482
 Frc consts  --     1.3802                 1.6284                 1.3848
 IR Inten    --     0.0292                 0.1070                 1.8405

                    73                     74                     75
                     A                      A                      A
 Frequencies --  1498.4528              1509.4424              1519.1750
 Red. masses --     1.0711                 1.0494                 1.0484
 Frc consts  --     1.4170                 1.4087                 1.4256
 IR Inten    --     6.7416                 5.8879                 5.3952

                    76                     77                     78
                     A                      A                      A
 Frequencies --  1535.0723              1539.1386              1558.8314
 Red. masses --     1.1745                 2.1129                 3.3574
 Frc consts  --     1.6306                 2.9491                 4.8068
 IR Inten    --    32.3805                35.1196                78.6453

                    79                     80                     81
                     A                      A                      A
 Frequencies --  1629.0046              1663.6914              1689.3082
 Red. masses --     7.3619                 5.6578                 6.1907
 Frc consts  --    11.5103                 9.2266                10.4089
 IR Inten    --     0.0267               304.2247                 1.3340

                    82                     83                     84
                     A                      A                      A
 Frequencies --  3023.1650              3044.5710              3046.0856
 Red. masses --     1.0347                 1.0366                 1.0363
 Frc consts  --     5.5718                 5.6614                 5.6654
 IR Inten    --    57.0160                 3.8315                 3.2225

                    85                     86                     87
                     A                      A                      A
 Frequencies --  3048.2845              3080.6821              3113.8698
 Red. masses --     1.0358                 1.1065                 1.0994
 Frc consts  --     5.6707                 6.1869                 6.2807
 IR Inten    --     5.2466                44.9387                 6.6092

                    88                     89                     90
                     A                      A                      A
 Frequencies --  3115.6127              3119.8250              3126.3412
 Red. masses --     1.0997                 1.0998                 1.1004
 Frc consts  --     6.2896                 6.3073                 6.3371
 IR Inten    --     9.6866                32.0666                 7.0973

                    91                     92                     93
                     A                      A                      A
 Frequencies --  3127.2151              3128.1795              3155.8162
 Red. masses --     1.1007                 1.1002                 1.0997
 Frc consts  --     6.3423                 6.3433                 6.4528
 IR Inten    --    17.0049                19.6289                32.3269

                    94                     95                     96
                     A                      A                      A
 Frequencies --  3180.3319              3181.5180              3201.8004
 Red. masses --     1.0886                 1.0885                 1.0895
 Frc consts  --     6.4873                 6.4916                 6.5806
 IR Inten    --    15.6303                 7.2740                26.9692

                    97                     98                     99
                     A                      A                      A
 Frequencies --  3213.2959              3214.6274              3214.9706
 Red. masses --     1.0904                 1.0927                 1.0934
 Frc consts  --     6.6337                 6.6527                 6.6584
 IR Inten    --    13.3577                21.5601                 2.2351

 - Thermochemistry -
 -------------------
 Temperature   298.150 Kelvin.  Pressure   1.00000 Atm.
 Atom     1 has atomic number  6 and mass  12.00000

 Molecular mass:   246.10761 amu.
 Principal axes and moments of inertia in atomic units:
                           1         2         3
     Eigenvalues --  1454.95687********************
           X            0.99995   0.01018  -0.00018
           Y           -0.01018   0.99994   0.00369
           Z            0.00022  -0.00369   0.99999
 This molecule is an asymmetric top.
 Rotational symmetry number  1.
 Warning -- assumption of classical behavior for rotation
           may cause significant error
 Rotational temperatures (Kelvin)      0.05953     0.00828     0.00765
 Rotational constants (GHZ):           1.24041     0.17244     0.15945
 Zero-point vibrational energy     752796.4 (Joules/Mol)
                                  179.92267 (Kcal/Mol)
 Warning -- explicit consideration of  28 degrees of freedom as
           vibrations may cause significant error
 Vibrational temperatures:     27.74    49.35    91.67    99.37   163.70
          (Kelvin)            180.28   205.45   208.33   226.89   244.42
                              260.17   287.17   309.06   313.58   351.57
                              374.92   417.46   463.80   529.07   577.87
                              592.53   657.61   698.41   715.70   763.42
                              824.21   841.60   875.86   957.56   965.07
                              992.53  1003.72  1012.37  1073.73  1086.10
                             1126.40  1138.02  1170.29  1174.86  1188.67
                             1248.92  1253.66  1270.88  1280.01  1282.36
                             1330.71  1379.82  1382.27  1397.19  1438.44
                             1550.42  1652.50  1686.54  1707.57  1733.47
                             1759.49  1785.00  1849.69  1870.06  1883.68
                             1918.21  1918.72  1931.75  1978.99  2039.06
                             2070.86  2103.89  2135.88  2144.19  2145.58
                             2153.69  2154.52  2155.94  2171.75  2185.75
                             2208.62  2214.47  2242.81  2343.77  2393.68
                             2430.53  4349.65  4380.45  4382.63  4385.80
                             4432.41  4480.16  4482.67  4488.73  4498.10
                             4499.36  4500.75  4540.51  4575.78  4577.49
                             4606.67  4623.21  4625.13  4625.62

 Zero-point correction=                           0.286725 (Hartree/Particle)
 Thermal correction to Energy=                    0.305206
 Thermal correction to Enthalpy=                  0.306150
 Thermal correction to Gibbs Free Energy=         0.239491
 Sum of electronic and zero-point Energies=           -984.063792
 Sum of electronic and thermal Energies=              -984.045312
 Sum of electronic and thermal Enthalpies=            -984.044367
 Sum of electronic and thermal Free Energies=         -984.111026

                     E (Thermal)             CV                S
                      KCal/Mol        Cal/Mol-Kelvin    Cal/Mol-Kelvin
 Total                  191.520             69.599            140.296
 Electronic               0.000              0.000              0.000
 Translational            0.889              2.981             42.403
 Rotational               0.889              2.981             33.510
 Vibrational            189.742             63.637             64.383
 Vibration     1          0.593              1.986              6.707
 Vibration     2          0.594              1.983              5.564
 Vibration     3          0.597              1.972              4.339
 Vibration     4          0.598              1.969              4.180
 Vibration     5          0.607              1.938              3.203
 Vibration     6          0.610              1.928              3.017
 Vibration     7          0.616              1.910              2.766
 Vibration     8          0.616              1.908              2.739
 Vibration     9          0.621              1.894              2.577
 Vibration    10          0.625              1.880              2.437
 Vibration    11          0.630              1.866              2.320
 Vibration    12          0.638              1.840              2.137
 Vibration    13          0.645              1.818              2.002
 Vibration    14          0.646              1.814              1.976
 Vibration    15          0.660              1.772              1.771
 Vibration    16          0.669              1.745              1.658
 Vibration    17          0.686              1.692              1.473
 Vibration    18          0.707              1.631              1.298
 Vibration    19          0.740              1.539              1.089
 Vibration    20          0.767              1.467              0.957
 Vibration    21          0.776              1.445              0.920
 Vibration    22          0.815              1.345              0.775
 Vibration    23          0.841              1.282              0.696
 Vibration    24          0.853              1.256              0.665
 Vibration    25          0.886              1.182              0.586
 Vibration    26          0.929              1.090              0.499
 Vibration    27          0.942              1.064              0.476
 Vibration    28          0.968              1.013              0.435

 Optimization completed.
    -- Stationary point found.
 Normal termination of Gaussian 09 at Tue Sep 28 20:51:27 2021.
 Gaussian 09:  AM64L-G09RevA.02 11-Jun-2009

 ----------------------------------------------------------------------
 #p TD(NStates=10, Root=1) b3lyp/6-31G* volume pop=NPA density=current
 Geom=AllCheck Guess=Read
 ----------------------------------------------------------------------

 COc1ccc2c(c1)ccc(c2)O[Si](C)(C)C_conf_0
 ---------------------------------------
 Redundant internal coordinates taken from checkpoint file:
 C14H18O2Si_6237_conf_0.chk
 Charge =  0 Multiplicity = 1

                         Standard orientation:
 ---------------------------------------------------------------------
 Center     Atomic      Atomic             Coordinates (Angstroms)
 Number     Number       Type             X           Y           Z
 ---------------------------------------------------------------------
      1          6           0        5.980108    0.525523    0.070349
      2          8           0        5.178434   -0.642805    0.039883
      3          6           0        3.820877   -0.484924    0.009718
      4          6           0        3.084521   -1.700536   -0.019684
      5          6           0        1.713272   -1.682275   -0.051323
      6          6           0        0.990706   -0.455837   -0.055548
      7          6           0        1.735931    0.764195   -0.026939
      8          6           0        3.157451    0.725494    0.006118
      9          6           0        1.013350    1.987734   -0.033655
     10          6           0       -0.360548    2.004978   -0.064753
     11          6           0       -1.099402    0.792634   -0.091192
     12          6           0       -0.427636   -0.415044   -0.088557
     13          8           0       -2.457745    0.921069   -0.126498
     14         14           0       -3.720218   -0.193801    0.031888
     15          6           0       -3.572166   -1.123492    1.666135
     16          6           0       -5.259152    0.883951    0.015900
     17          6           0       -3.743813   -1.384502   -1.431964
     18          1           0        7.015662    0.180550    0.090402
     19          1           0        5.779863    1.128170    0.966593
     20          1           0        5.820586    1.146721   -0.821361
     21          1           0        3.640098   -2.633272   -0.016409
     22          1           0        1.160093   -2.618371   -0.073917
     23          1           0        3.698227    1.665608    0.027753
     24          1           0        1.565551    2.924557   -0.012995
     25          1           0       -0.913741    2.939117   -0.069503
     26          1           0       -0.973611   -1.353367   -0.116652
     27          1           0       -3.587739   -0.427957    2.513295
     28          1           0       -2.647854   -1.706932    1.735379
     29          1           0       -4.412938   -1.817509    1.790740
     30          1           0       -5.250541    1.597977    0.847119
     31          1           0       -6.168160    0.276519    0.104743
     32          1           0       -5.329718    1.457409   -0.915290
     33          1           0       -2.859081   -2.029197   -1.472541
     34          1           0       -3.794919   -0.834042   -2.378675
     35          1           0       -4.625230   -2.036278   -1.379812
 ---------------------------------------------------------------------

 SCF Done:  E(RB3LYP) =  -984.350517351     A.U. after    1 cycles

 Excitation energies and oscillator strengths:

 Excited State   1:      Singlet-A      3.9692 eV  312.37 nm  f=0.0508  <S**2>=0.000
      65 -> 68        -0.18233
      66 -> 67         0.66725
      66 -> 68         0.11524
 This state for optimization and/or second-order correction.
 Total Energy, E(TD-HF/TD-KS) =  -984.204652798
 Copying the excited state density for this state as the 1-particle RhoCI density.

 Excited State   2:      Singlet-A      4.6244 eV  268.11 nm  f=0.0019  <S**2>=0.000
      65 -> 67         0.52702
      66 -> 67        -0.15144
      66 -> 68         0.43771

 Excited State   3:      Singlet-A      5.5069 eV  225.14 nm  f=0.0450  <S**2>=0.000
      64 -> 67        -0.46186
      66 -> 68        -0.11561
      66 -> 69         0.50086

 Excited State   4:      Singlet-A      5.6356 eV  220.00 nm  f=1.2274  <S**2>=0.000
      64 -> 67        -0.23162
      65 -> 67        -0.39447
      65 -> 68         0.14239
      66 -> 68         0.50069

 Excited State   5:      Singlet-A      5.7602 eV  215.24 nm  f=0.1544  <S**2>=0.000
      63 -> 68        -0.13019
      64 -> 67         0.42299
      64 -> 68         0.16509
      65 -> 67        -0.13557
      65 -> 69         0.16541
      66 -> 68         0.14889
      66 -> 69         0.44120

 Excited State   6:      Singlet-A      6.0277 eV  205.69 nm  f=0.3035  <S**2>=0.000
      61 -> 67         0.10884
      65 -> 67         0.15758
      65 -> 68         0.64240
      66 -> 67         0.15764

 Excited State   7:      Singlet-A      6.2534 eV  198.27 nm  f=0.0030  <S**2>=0.000
      63 -> 67        -0.45026
      64 -> 67        -0.15249
      65 -> 69         0.51091

 Excited State   8:      Singlet-A      6.4080 eV  193.48 nm  f=0.0004  <S**2>=0.000
      62 -> 67        -0.12955
      66 -> 70         0.65130
      66 -> 71         0.19415

 Excited State   9:      Singlet-A      6.4295 eV  192.84 nm  f=0.0015  <S**2>=0.000
      60 -> 67         0.21434
      62 -> 67         0.64681
      66 -> 70         0.13288

 Excited State  10:      Singlet-A      6.5807 eV  188.41 nm  f=0.0020  <S**2>=0.000
      63 -> 67         0.37527
      64 -> 67        -0.12602
      64 -> 68         0.49740
      65 -> 69         0.21677
      66 -> 69        -0.18737

 The electronic state is 1-A.
 Alpha  occ. eigenvalues --  -66.14823 -19.17409 -19.15144 -10.24297 -10.24095
 Alpha  occ. eigenvalues --  -10.23798 -10.19031 -10.18985 -10.18633 -10.18497
 Alpha  occ. eigenvalues --  -10.18322 -10.18084 -10.18014 -10.17927 -10.16440
 Alpha  occ. eigenvalues --  -10.16401 -10.16222  -5.28922  -3.65037  -3.64710
 Alpha  occ. eigenvalues --   -3.64697  -1.05957  -1.02298  -0.86221  -0.80852
 Alpha  occ. eigenvalues --   -0.76460  -0.74205  -0.71471  -0.71418  -0.68874
 Alpha  occ. eigenvalues --   -0.68073  -0.67885  -0.62203  -0.60174  -0.59086
 Alpha  occ. eigenvalues --   -0.54112  -0.52162  -0.50679  -0.48078  -0.46474
 Alpha  occ. eigenvalues --   -0.46034  -0.44487  -0.43402  -0.42988  -0.41819
 Alpha  occ. eigenvalues --   -0.41757  -0.40615  -0.40398  -0.40353  -0.40010
 Alpha  occ. eigenvalues --   -0.38950  -0.38871  -0.38247  -0.37676  -0.37237
 Alpha  occ. eigenvalues --   -0.36391  -0.34345  -0.33567  -0.32735  -0.31629
 Alpha  occ. eigenvalues --   -0.30135  -0.28979  -0.28524  -0.25821  -0.22129
 Alpha  occ. eigenvalues --   -0.19121
 Alpha virt. eigenvalues --   -0.02681   0.01077   0.03998   0.06920   0.07922
 Alpha virt. eigenvalues --    0.09672   0.10051   0.10163   0.10952   0.12062
 Alpha virt. eigenvalues --    0.12480   0.12636   0.13825   0.13980   0.14364

 Mulliken atomic charges:
              1
     1  C   -0.222551
     2  O   -0.474090
     3  C    0.379704
     4  C   -0.198279
     5  C   -0.217439
     6  C    0.147264
     7  C    0.144248
     8  C   -0.279248
     9  C   -0.219445
    10  C   -0.197532
    11  C    0.399709
    12  C   -0.288797
    13  O   -0.596183
    14  Si   0.891303
    15  C   -0.683900
    16  C   -0.663571
    17  C   -0.686006
    18  H    0.174973
    19  H    0.164116
    20  H    0.164215
    21  H    0.120995
    22  H    0.114926
    23  H    0.127544
    24  H    0.115139
    25  H    0.121105
    26  H    0.133864
    27  H    0.173195
    28  H    0.172369
    29  H    0.163790
    30  H    0.173257
    31  H    0.163331
    32  H    0.173537
    33  H    0.170661
    34  H    0.173610
    35  H    0.164186
 Sum of Mulliken atomic charges =  -0.00000

 Dipole moment (field-independent basis, Debye):
    X=             -0.2692    Y=              0.1981    Z=              0.2173  Tot=              0.3986
 Quadrupole moment (field-independent basis, Debye-Ang):
   XX=            -81.0217   YY=           -105.4102   ZZ=           -110.8202
   XY=             12.0280   XZ=              0.0170   YZ=              0.3430

 Summary of Natural Population Analysis:

                                       Natural Population
                Natural  -----------------------------------------------
    Atom  No    Charge         Core      Valence    Rydberg      Total
 -----------------------------------------------------------------------
      C    1   -0.32282      1.99943     4.30923    0.01416     6.32282
      O    2   -0.46832      1.99975     6.45684    0.01174     8.46832
      C    3    0.36598      1.99879     3.61265    0.02259     5.63402
      C    4   -0.34260      1.99905     4.32624    0.01731     6.34260
      C    5   -0.23267      1.99907     4.21834    0.01526     6.23267
      C    6   -0.04586      1.99903     4.03131    0.01552     6.04586
      C    7   -0.04312      1.99903     4.02854    0.01555     6.04312
      C    8   -0.30751      1.99899     4.29545    0.01308     6.30751
      C    9   -0.23151      1.99907     4.21725    0.01519     6.23151
      C   10   -0.33659      1.99905     4.32069    0.01685     6.33659
      C   11    0.38725      1.99877     3.59187    0.02211     5.61275
      C   12   -0.29822      1.99899     4.28563    0.01361     6.29822
      O   13   -0.81764      1.99976     6.80581    0.01207     8.81764
     Si   14    2.01253      9.99784     1.94384    0.04578    11.98747
      C   15   -1.22475      1.99948     5.21586    0.00940     7.22475
      C   16   -1.21979      1.99949     5.21137    0.00893     7.21979
      C   17   -1.22404      1.99948     5.21502    0.00953     7.22404
      H   18    0.23062      0.00000     0.76886    0.00053     0.76938
      H   19    0.21090      0.00000     0.78735    0.00175     0.78910
      H   20    0.21094      0.00000     0.78731    0.00175     0.78906
      H   21    0.23983      0.00000     0.75910    0.00107     0.76017
      H   22    0.22783      0.00000     0.77110    0.00108     0.77217
      H   23    0.23161      0.00000     0.76722    0.00117     0.76839
      H   24    0.22737      0.00000     0.77153    0.00110     0.77263
      H   25    0.23924      0.00000     0.75970    0.00106     0.76076
      H   26    0.22551      0.00000     0.77321    0.00127     0.77449
      H   27    0.25858      0.00000     0.74063    0.00079     0.74142
      H   28    0.25705      0.00000     0.74198    0.00097     0.74295
      H   29    0.25412      0.00000     0.74522    0.00065     0.74588
      H   30    0.25827      0.00000     0.74096    0.00077     0.74173
      H   31    0.25218      0.00000     0.74724    0.00058     0.74782
      H   32    0.25850      0.00000     0.74072    0.00078     0.74150
      H   33    0.25415      0.00000     0.74508    0.00078     0.74585
      H   34    0.25884      0.00000     0.74037    0.00079     0.74116
      H   35    0.25414      0.00000     0.74521    0.00065     0.74586
 =======================================================================
   * Total *    0.00000     41.98506    89.71873    0.29621   132.00000

 Normal termination of Gaussian 09 at Wed Sep 29 02:10:56 2021.
