 Gaussian 09, Revision A.02,

 -----------------------------------
 #p opt b3lyp/6-31G* scf=(xqc,tight)
 -----------------------------------

 --------------------------------------
 CCOC(=O)c1ccc(cc1)OC(=O)N(CC)CC_conf_0
 --------------------------------------
 Symbolic Z-matrix:
 Charge =  0 Multiplicity = 1

 SCF Done:  E(RB3LYP) =  -900.613404223     A.U. after   15 cycles
 SCF Done:  E(RB3LYP) =  -900.620311211     A.U. after   13 cycles
 SCF Done:  E(RB3LYP) =  -900.623047199     A.U. after   13 cycles
 SCF Done:  E(RB3LYP) =  -900.625307057     A.U. after   13 cycles
 SCF Done:  E(RB3LYP) =  -900.625815717     A.U. after   13 cycles
 SCF Done:  E(RB3LYP) =  -900.625654967     A.U. after   14 cycles
 SCF Done:  E(RB3LYP) =  -900.626051019     A.U. after   13 cycles
 SCF Done:  E(RB3LYP) =  -900.626134745     A.U. after   11 cycles
 SCF Done:  E(RB3LYP) =  -900.626138078     A.U. after    8 cycles
 SCF Done:  E(RB3LYP) =  -900.626139080     A.U. after    8 cycles
 SCF Done:  E(RB3LYP) =  -900.626139672     A.U. after    8 cycles
 SCF Done:  E(RB3LYP) =  -900.626139983     A.U. after    8 cycles
 SCF Done:  E(RB3LYP) =  -900.626140220     A.U. after    8 cycles
 SCF Done:  E(RB3LYP) =  -900.626140320     A.U. after    7 cycles
 SCF Done:  E(RB3LYP) =  -900.626140356     A.U. after    7 cycles
 Optimization completed.
    -- Stationary point found.
 Normal termination of Gaussian 09 at Thu Sep 30 01:52:30 2021.

 ----------------------------------------------------------------------
 #p freq b3lyp/6-31G* volume NMR pop=NPA density=current Geom=AllCheck
 Guess=Read
 ----------------------------------------------------------------------

 CCOC(=O)c1ccc(cc1)OC(=O)N(CC)CC_conf_0
 --------------------------------------
 Redundant internal coordinates taken from checkpoint file:
 C14H19NO4_9443_conf_0.chk
 Charge =  0 Multiplicity = 1

 SCF Done:  E(RB3LYP) =  -900.626140356     A.U. after    1 cycles

  1  C    Isotropic =   174.0967   Anisotropy =    22.4306

  2  C    Isotropic =   130.3777   Anisotropy =    60.8018

  3  O    Isotropic =   144.6148   Anisotropy =   146.2311

  4  C    Isotropic =    33.0531   Anisotropy =    73.0982

  5  O    Isotropic =   -32.6434   Anisotropy =   563.3895

  6  C    Isotropic =    69.8545   Anisotropy =   144.2971

  7  C    Isotropic =    62.9122   Anisotropy =   174.6960

  8  C    Isotropic =    74.1104   Anisotropy =   153.0840

  9  C    Isotropic =    40.8754   Anisotropy =   116.0479

 10  C    Isotropic =    77.0404   Anisotropy =   135.7196

 11  C    Isotropic =    65.6068   Anisotropy =   169.8946

 12  O    Isotropic =   138.7042   Anisotropy =   139.0329

 13  C    Isotropic =    47.3928   Anisotropy =    82.0725

 14  O    Isotropic =    63.0518   Anisotropy =   381.4366

 15  N    Isotropic =   157.1800   Anisotropy =    67.1039

 16  C    Isotropic =   147.5478   Anisotropy =    40.9675

 17  C    Isotropic =   174.9129   Anisotropy =    22.3137

 18  C    Isotropic =   146.7490   Anisotropy =    42.9324

 19  C    Isotropic =   175.7715   Anisotropy =    21.1300

 20  H    Isotropic =    31.3287   Anisotropy =     9.7353

 21  H    Isotropic =    30.4749   Anisotropy =     5.9760

 22  H    Isotropic =    30.9671   Anisotropy =     7.2926

 23  H    Isotropic =    27.2168   Anisotropy =     5.4960

 24  H    Isotropic =    28.4687   Anisotropy =     6.9395

 25  H    Isotropic =    24.0319   Anisotropy =     7.7973

 26  H    Isotropic =    24.6221   Anisotropy =     9.7519

 27  H    Isotropic =    25.4910   Anisotropy =     7.5043

 28  H    Isotropic =    24.2712   Anisotropy =     8.8015

 29  H    Isotropic =    29.3611   Anisotropy =     6.3647

 30  H    Isotropic =    28.4588   Anisotropy =     4.3114

 31  H    Isotropic =    30.9544   Anisotropy =     7.1527

 32  H    Isotropic =    31.3183   Anisotropy =    10.3695

 33  H    Isotropic =    30.6807   Anisotropy =     7.0395

 34  H    Isotropic =    29.5151   Anisotropy =     6.5777

 35  H    Isotropic =    28.3531   Anisotropy =     5.8575

 36  H    Isotropic =    31.0672   Anisotropy =     6.8510

 37  H    Isotropic =    31.3621   Anisotropy =    10.6676

 38  H    Isotropic =    30.6335   Anisotropy =     7.1319

  Exact polarizability: 257.750  -0.909 159.423   0.393   2.434  99.621
 Approx polarizability: 310.008 -11.909 265.983  -0.968   3.930 148.958

                     1                      2                      3
                     A                      A                      A
 Frequencies --    14.1826                26.4221                46.5556
 Red. masses --     3.8658                 4.3917                 3.3263
 Frc consts  --     0.0005                 0.0018                 0.0042
 IR Inten    --     0.4553                 0.9034                 0.0339

                     4                      5                      6
                     A                      A                      A
 Frequencies --    52.0577                58.8785                68.5564
 Red. masses --     3.3237                 4.0832                 2.9679
 Frc consts  --     0.0053                 0.0083                 0.0082
 IR Inten    --     0.2588                 0.2440                 0.6205

                     7                      8                      9
                     A                      A                      A
 Frequencies --    78.6335                95.5322               109.4238
 Red. masses --     3.5581                 5.5632                 3.9467
 Frc consts  --     0.0130                 0.0299                 0.0278
 IR Inten    --     1.4671                 0.2864                 0.9363

                    10                     11                     12
                     A                      A                      A
 Frequencies --   115.3192               145.9921               160.1217
 Red. masses --     4.3303                 4.5659                 3.2624
 Frc consts  --     0.0339                 0.0573                 0.0493
 IR Inten    --     0.0541                 2.7135                 2.2065

                    13                     14                     15
                     A                      A                      A
 Frequencies --   200.0796               228.6125               231.0256
 Red. masses --     2.7125                 1.0848                 1.2302
 Frc consts  --     0.0640                 0.0334                 0.0387
 IR Inten    --     0.5160                 0.3866                 1.9678

                    16                     17                     18
                     A                      A                      A
 Frequencies --   249.5579               304.0744               324.8309
 Red. masses --     1.4298                 4.1518                 2.7843
 Frc consts  --     0.0525                 0.2262                 0.1731
 IR Inten    --     2.4748                 0.4089                 2.1194

                    19                     20                     21
                     A                      A                      A
 Frequencies --   333.1508               354.1619               367.1266
 Red. masses --     2.9942                 4.6986                 4.0528
 Frc consts  --     0.1958                 0.3472                 0.3218
 IR Inten    --     6.8768                20.0371                 9.2034

                    22                     23                     24
                     A                      A                      A
 Frequencies --   396.7593               424.1568               439.2746
 Red. masses --     3.6574                 3.1229                 3.0038
 Frc consts  --     0.3392                 0.3310                 0.3415
 IR Inten    --     1.4637                 0.6282                 2.3688

                    25                     26                     27
                     A                      A                      A
 Frequencies --   453.3669               502.1940               518.2291
 Red. masses --     4.3151                 4.5762                 3.1642
 Frc consts  --     0.5226                 0.6800                 0.5007
 IR Inten    --     9.8297                 6.5871                 2.1784

                    28                     29                     30
                     A                      A                      A
 Frequencies --   525.9765               619.0547               650.2346
 Red. masses --     3.2193                 4.2854                 6.2588
 Frc consts  --     0.5247                 0.9676                 1.5591
 IR Inten    --     2.1947                 2.1930                 7.4402

                    31                     32                     33
                     A                      A                      A
 Frequencies --   671.0691               698.3219               741.6887
 Red. masses --     5.6420                 4.1474                 9.6010
 Frc consts  --     1.4970                 1.1916                 3.1118
 IR Inten    --     4.8106                12.3852                20.8066

                    34                     35                     36
                     A                      A                      A
 Frequencies --   766.1335               782.2248               790.0631
 Red. masses --     4.5635                 1.6645                 1.4716
 Frc consts  --     1.5782                 0.6001                 0.5412
 IR Inten    --    34.4888                 2.2713                11.3743

                    37                     38                     39
                     A                      A                      A
 Frequencies --   796.6454               827.0643               835.8221
 Red. masses --     1.1873                 2.6797                 2.3944
 Frc consts  --     0.4440                 1.0800                 0.9856
 IR Inten    --     7.3959                 2.3211                 0.2895

                    40                     41                     42
                     A                      A                      A
 Frequencies --   842.5676               867.1173               876.5098
 Red. masses --     1.2560                 3.0683                 2.0756
 Frc consts  --     0.5254                 1.3592                 0.9395
 IR Inten    --     1.0247                 5.7329                24.2977

                    43                     44                     45
                     A                      A                      A
 Frequencies --   892.5260               953.5517               969.4101
 Red. masses --     2.7695                 2.2721                 1.3845
 Frc consts  --     1.2999                 1.2172                 0.7666
 IR Inten    --     2.2738                 9.3700                 8.7414

                    46                     47                     48
                     A                      A                      A
 Frequencies --   972.6330               986.9069              1031.5473
 Red. masses --     2.4308                 1.3152                 3.5941
 Frc consts  --     1.3549                 0.7548                 2.2533
 IR Inten    --    60.6823                 0.8372                 4.0281

                    49                     50                     51
                     A                      A                      A
 Frequencies --  1041.8095              1060.8653              1102.7066
 Red. masses --     2.8043                 3.0063                 1.9321
 Frc consts  --     1.7933                 1.9934                 1.3842
 IR Inten    --    32.4009                48.8353                23.1524

                    52                     53                     54
                     A                      A                      A
 Frequencies --  1116.5073              1123.8023              1127.4059
 Red. masses --     1.7814                 2.2110                 1.7209
 Frc consts  --     1.3084                 1.6452                 1.2888
 IR Inten    --    12.4363                26.2493                47.1789

                    55                     56                     57
                     A                      A                      A
 Frequencies --  1137.4795              1144.9936              1186.2684
 Red. masses --     1.7284                 1.9810                 2.4041
 Frc consts  --     1.3176                 1.5302                 1.9933
 IR Inten    --   171.7630               182.6399               357.8181

                    58                     59                     60
                     A                      A                      A
 Frequencies --  1197.0863              1211.1737              1252.2067
 Red. masses --     1.2171                 1.8031                 3.6023
 Frc consts  --     1.0276                 1.5584                 3.3280
 IR Inten    --   203.2415                22.8120               501.3240

                    61                     62                     63
                     A                      A                      A
 Frequencies --  1266.9376              1301.2081              1313.6122
 Red. masses --     3.0997                 2.8471                 1.8530
 Frc consts  --     2.9314                 2.8401                 1.8839
 IR Inten    --   202.0933               688.6016                 7.9628

                    64                     65                     66
                     A                      A                      A
 Frequencies --  1335.7141              1343.9919              1356.7455
 Red. masses --     1.2983                 1.1373                 1.3326
 Frc consts  --     1.3647                 1.2104                 1.4453
 IR Inten    --     2.5133                13.6037                19.5558

                    67                     68                     69
                     A                      A                      A
 Frequencies --  1364.1981              1400.8310              1419.4104
 Red. masses --     8.1465                 1.2789                 1.2850
 Frc consts  --     8.9326                 1.4786                 1.5254
 IR Inten    --    37.1558                18.2845                24.8857

                    70                     71                     72
                     A                      A                      A
 Frequencies --  1421.8385              1438.1468              1440.6733
 Red. masses --     1.2862                 1.2857                 1.2631
 Frc consts  --     1.5320                 1.5667                 1.5446
 IR Inten    --     8.5291                11.1809                22.1268

                    73                     74                     75
                     A                      A                      A
 Frequencies --  1442.3158              1458.9809              1462.5962
 Red. masses --     1.3308                 3.2002                 2.1022
 Frc consts  --     1.6311                 4.0136                 2.6496
 IR Inten    --     9.1122                15.7220               263.9367

                    76                     77                     78
                     A                      A                      A
 Frequencies --  1507.6574              1514.9477              1517.9492
 Red. masses --     1.0700                 1.0545                 1.0776
 Frc consts  --     1.4330                 1.4260                 1.4629
 IR Inten    --     7.1175                13.2269                 9.3950

                    79                     80                     81
                     A                      A                      A
 Frequencies --  1520.4528              1522.1407              1527.7402
 Red. masses --     1.0445                 1.0596                 1.0781
 Frc consts  --     1.4227                 1.4464                 1.4826
 IR Inten    --     2.3719                 2.1522                41.9248

                    82                     83                     84
                     A                      A                      A
 Frequencies --  1534.0871              1536.7702              1537.5593
 Red. masses --     1.0600                 1.0629                 1.1121
 Frc consts  --     1.4698                 1.4790                 1.5491
 IR Inten    --     8.7710                16.8958                26.3467

                    85                     86                     87
                     A                      A                      A
 Frequencies --  1556.3628              1634.0219              1664.2515
 Red. masses --     2.5196                 7.2728                 5.8687
 Frc consts  --     3.5959                11.4410                 9.5770
 IR Inten    --    16.0733                 0.8657               103.4395

                    88                     89                     90
                     A                      A                      A
 Frequencies --  1793.4766              1814.6161              3053.1040
 Red. masses --    11.5679                11.2477                 1.0363
 Frc consts  --    21.9227                21.8215                 5.6914
 IR Inten    --   220.0737               392.0717                18.8759

                    91                     92                     93
                     A                      A                      A
 Frequencies --  3054.4874              3059.9123              3065.4730
 Red. masses --     1.0358                 1.0363                 1.0680
 Frc consts  --     5.6940                 5.7166                 5.9131
 IR Inten    --    17.9322                19.8552                28.7342

                    94                     95                     96
                     A                      A                      A
 Frequencies --  3074.4924              3091.5944              3114.5082
 Red. masses --     1.0684                 1.0591                 1.1020
 Frc consts  --     5.9502                 5.9645                 6.2979
 IR Inten    --    36.3698                33.3792                17.4658

                    97                     98                     99
                     A                      A                      A
 Frequencies --  3117.0856              3125.3068              3133.6026
 Red. masses --     1.1021                 1.1022                 1.0985
 Frc consts  --     6.3092                 6.3432                 6.3553
 IR Inten    --    20.2571                26.9165                24.7044

                   100                    101                    102
                     A                      A                      A
 Frequencies --  3134.4933              3137.7739              3146.7565
 Red. masses --     1.0983                 1.1032                 1.1021
 Frc consts  --     6.3576                 6.3995                 6.4297
 IR Inten    --    21.5650                10.1317                18.4181

                   103                    104                    105
                     A                      A                      A
 Frequencies --  3148.5668              3156.9182              3213.2653
 Red. masses --     1.1018                 1.1075                 1.0897
 Frc consts  --     6.4352                 6.5031                 6.6289
 IR Inten    --    36.8421                26.8683                 7.2854

                   106                    107                    108
                     A                      A                      A
 Frequencies --  3226.0950              3238.0750              3264.0551
 Red. masses --     1.0901                 1.0931                 1.0930
 Frc consts  --     6.6844                 6.7526                 6.8613
 IR Inten    --     0.5247                 2.9907                 1.3705

 - Thermochemistry -
 -------------------
 Temperature   298.150 Kelvin.  Pressure   1.00000 Atm.
 Atom     1 has atomic number  6 and mass  12.00000

 Molecular mass:   265.13141 amu.
 Principal axes and moments of inertia in atomic units:
                           1         2         3
     Eigenvalues --  1574.18059********************
           X            0.99998   0.00109   0.00559
           Y           -0.00114   0.99995   0.00948
           Z           -0.00558  -0.00949   0.99994
 This molecule is an asymmetric top.
 Rotational symmetry number  1.
 Warning -- assumption of classical behavior for rotation
           may cause significant error
 Rotational temperatures (Kelvin)      0.05502     0.00605     0.00564
 Rotational constants (GHZ):           1.14646     0.12600     0.11758
 Zero-point vibrational energy     835008.1 (Joules/Mol)
                                  199.57172 (Kcal/Mol)
 Warning -- explicit consideration of  29 degrees of freedom as
           vibrations may cause significant error
 Vibrational temperatures:     20.41    38.02    66.98    74.90    84.71
          (Kelvin)             98.64   113.14   137.45   157.44   165.92
                              210.05   230.38   287.87   328.92   332.39
                              359.06   437.49   467.36   479.33   509.56
                              528.21   570.85   610.27   632.02   652.29
                              722.54   745.62   756.76   890.68   935.54
                              965.52  1004.73  1067.12  1102.29  1125.45
                             1136.72  1146.19  1189.96  1202.56  1212.27
                             1247.59  1261.10  1284.14  1371.95  1394.76
                             1399.40  1419.94  1484.16  1498.93  1526.35
                             1586.55  1606.40  1616.90  1622.08  1636.58
                             1647.39  1706.77  1722.34  1742.61  1801.64
                             1822.84  1872.15  1889.99  1921.79  1933.70
                             1952.05  1962.77  2015.48  2042.21  2045.71
                             2069.17  2072.81  2075.17  2099.15  2104.35
                             2169.18  2179.67  2183.99  2187.59  2190.02
                             2198.07  2207.21  2211.07  2212.20  2239.26
                             2350.99  2394.48  2580.41  2610.82  4392.73
                             4394.72  4402.53  4410.53  4423.50  4448.11
                             4481.08  4484.79  4496.61  4508.55  4509.83
                             4514.55  4527.48  4530.08  4542.10  4623.17
                             4641.63  4658.86  4696.24

 Zero-point correction=                           0.318038 (Hartree/Particle)
 Thermal correction to Energy=                    0.337875
 Thermal correction to Enthalpy=                  0.338819
 Thermal correction to Gibbs Free Energy=         0.266559
 Sum of electronic and zero-point Energies=           -900.308103
 Sum of electronic and thermal Energies=              -900.288266
 Sum of electronic and thermal Enthalpies=            -900.287322
 Sum of electronic and thermal Free Energies=         -900.359582

                     E (Thermal)             CV                S
                      KCal/Mol        Cal/Mol-Kelvin    Cal/Mol-Kelvin
 Total                  212.019             71.889            152.084
 Electronic               0.000              0.000              0.000
 Translational            0.889              2.981             42.625
 Rotational               0.889              2.981             34.203
 Vibrational            210.242             65.928             75.257
 Vibration     1          0.593              1.986              7.317
 Vibration     2          0.593              1.985              6.081
 Vibration     3          0.595              1.979              4.959
 Vibration     4          0.596              1.977              4.738
 Vibration     5          0.596              1.974              4.494
 Vibration     6          0.598              1.969              4.194
 Vibration     7          0.600              1.964              3.925
 Vibration     8          0.603              1.952              3.543
 Vibration     9          0.606              1.942              3.279
 Vibration    10          0.608              1.937              3.177
 Vibration    11          0.617              1.907              2.724
 Vibration    12          0.622              1.891              2.548
 Vibration    13          0.638              1.840              2.132
 Vibration    14          0.651              1.797              1.890
 Vibration    15          0.653              1.794              1.871
 Vibration    16          0.662              1.763              1.734
 Vibration    17          0.695              1.666              1.394
 Vibration    18          0.709              1.626              1.286
 Vibration    19          0.715              1.609              1.245
 Vibration    20          0.730              1.567              1.148
 Vibration    21          0.740              1.540              1.092
 Vibration    22          0.763              1.477              0.975
 Vibration    23          0.786              1.418              0.878
 Vibration    24          0.799              1.385              0.829
 Vibration    25          0.812              1.353              0.786
 Vibration    26          0.858              1.245              0.653
 Vibration    27          0.873              1.210              0.614
 Vibration    28          0.881              1.193              0.596
 Vibration    29          0.979              0.992              0.418

 Normal termination of Gaussian 09 at Thu Sep 30 03:18:26 2021.
 Gaussian 09:  AM64L-G09RevA.02 11-Jun-2009

 ----------------------------------------------------------------------
 #p TD(NStates=10, Root=1) b3lyp/6-31G* volume pop=NPA density=current
 Geom=AllCheck Guess=Read
 ----------------------------------------------------------------------

 CCOC(=O)c1ccc(cc1)OC(=O)N(CC)CC_conf_0
 --------------------------------------
 Redundant internal coordinates taken from checkpoint file:
 C14H19NO4_9443_conf_0.chk
 Charge =  0 Multiplicity = 1

                         Standard orientation:
 ---------------------------------------------------------------------
 Center     Atomic      Atomic             Coordinates (Angstroms)
 Number     Number       Type             X           Y           Z
 ---------------------------------------------------------------------
      1          6           0        6.551033    0.174032    1.168664
      2          6           0        5.996646    0.548729   -0.197813
      3          8           0        4.558670    0.696579   -0.161411
      4          6           0        3.829510   -0.434071   -0.325581
      5          8           0        4.324245   -1.531393   -0.504332
      6          6           0        2.365686   -0.174510   -0.268323
      7          6           0        1.496649   -1.261149   -0.437306
      8          6           0        0.116884   -1.090207   -0.400604
      9          6           0       -0.396833    0.191726   -0.182352
     10          6           0        0.454106    1.286291   -0.011477
     11          6           0        1.831854    1.104303   -0.056211
     12          8           0       -1.749409    0.491158   -0.209395
     13          6           0       -2.683068   -0.372231    0.341254
     14          8           0       -2.399051   -1.375863    0.967018
     15          7           0       -3.943499    0.076165    0.095017
     16          6           0       -4.245951    1.278998   -0.688587
     17          6           0       -4.304695    2.553637    0.157701
     18          6           0       -5.055909   -0.693521    0.664320
     19          6           0       -5.553456   -1.801882   -0.266224
     20          1           0        7.646189    0.144189    1.130231
     21          1           0        6.191021   -0.813040    1.471800
     22          1           0        6.253105    0.907819    1.924857
     23          1           0        6.254219   -0.202323   -0.948364
     24          1           0        6.360067    1.527105   -0.522788
     25          1           0        1.923323   -2.244887   -0.602293
     26          1           0       -0.549810   -1.933183   -0.520854
     27          1           0        0.021812    2.268458    0.150975
     28          1           0        2.496898    1.950058    0.075121
     29          1           0       -5.209422    1.105358   -1.181228
     30          1           0       -3.498240    1.381721   -1.476864
     31          1           0       -5.054922    2.470527    0.952067
     32          1           0       -4.567565    3.414505   -0.467943
     33          1           0       -3.333498    2.749313    0.622376
     34          1           0       -5.862105    0.013933    0.888716
     35          1           0       -4.717588   -1.122177    1.609962
     36          1           0       -5.884896   -1.398547   -1.230085
     37          1           0       -6.399466   -2.329544    0.189028
     38          1           0       -4.755021   -2.527166   -0.449637
 ---------------------------------------------------------------------

 SCF Done:  E(RB3LYP) =  -900.626140356     A.U. after    1 cycles

 Excitation energies and oscillator strengths:

 Excited State   1:      Singlet-A      4.8830 eV  253.91 nm  f=0.0075  <S**2>=0.000
      68 -> 72         0.67187
      69 -> 72        -0.10811
      71 -> 72         0.10302
 This state for optimization and/or second-order correction.
 Total Energy, E(TD-HF/TD-KS) =  -900.446693522
 Copying the excited state density for this state as the 1-particle RhoCI density.

 Excited State   2:      Singlet-A      4.9994 eV  248.00 nm  f=0.0042  <S**2>=0.000
      68 -> 72         0.11629
      69 -> 72         0.56179
      70 -> 72         0.11474
      70 -> 73         0.14006
      71 -> 73         0.36300

 Excited State   3:      Singlet-A      5.0352 eV  246.24 nm  f=0.3414  <S**2>=0.000
      70 -> 72        -0.24618
      71 -> 72         0.63937

 Excited State   4:      Singlet-A      5.2635 eV  235.55 nm  f=0.2019  <S**2>=0.000
      69 -> 73        -0.11766
      70 -> 72         0.64285
      71 -> 72         0.23218

 Excited State   5:      Singlet-A      5.7068 eV  217.26 nm  f=0.0046  <S**2>=0.000
      67 -> 72         0.65615
      67 -> 74        -0.10890
      69 -> 72        -0.14526
      71 -> 73         0.15528

 Excited State   6:      Singlet-A      5.9708 eV  207.65 nm  f=0.0101  <S**2>=0.000
      67 -> 72         0.10219
      69 -> 72         0.11607
      70 -> 73         0.55100
      71 -> 73        -0.40829

 Excited State   7:      Singlet-A      6.2505 eV  198.36 nm  f=0.0408  <S**2>=0.000
      66 -> 72        -0.34055
      67 -> 72        -0.16108
      68 -> 73         0.21486
      69 -> 72        -0.27468
      69 -> 75        -0.10226
      70 -> 73         0.34653
      71 -> 73         0.30063

 Excited State   8:      Singlet-A      6.3009 eV  196.77 nm  f=0.0152  <S**2>=0.000
      66 -> 72         0.18404
      68 -> 73         0.65047
      69 -> 73        -0.13658

 Excited State   9:      Singlet-A      6.4409 eV  192.50 nm  f=0.1378  <S**2>=0.000
      66 -> 72         0.56414
      68 -> 73        -0.10048
      69 -> 72        -0.17205
      70 -> 73         0.19725
      71 -> 73         0.23075

 Excited State  10:      Singlet-A      6.5534 eV  189.19 nm  f=0.2282  <S**2>=0.000
      67 -> 73         0.53729
      68 -> 73        -0.10854
      69 -> 73        -0.40811

 The electronic state is 1-A.
 Alpha  occ. eigenvalues --  -19.20246 -19.18398 -19.12670 -19.12174 -14.36977
 Alpha  occ. eigenvalues --  -10.33673 -10.30931 -10.26089 -10.23944 -10.23196
 Alpha  occ. eigenvalues --  -10.22656 -10.19985 -10.19920 -10.19609 -10.19575
 Alpha  occ. eigenvalues --  -10.19279 -10.18793 -10.18320 -10.17945  -1.11128
 Alpha  occ. eigenvalues --   -1.09193  -1.02076  -1.00448  -0.94584  -0.86116
 Alpha  occ. eigenvalues --   -0.78393  -0.77613  -0.76180  -0.75321  -0.74038
 Alpha  occ. eigenvalues --   -0.67947  -0.65219  -0.64938  -0.62626  -0.60832
 Alpha  occ. eigenvalues --   -0.56942  -0.55448  -0.53211  -0.52823  -0.50002
 Alpha  occ. eigenvalues --   -0.48185  -0.47610  -0.46707  -0.45607  -0.45251
 Alpha  occ. eigenvalues --   -0.45072  -0.44312  -0.43952  -0.43331  -0.42736
 Alpha  occ. eigenvalues --   -0.42168  -0.40499  -0.40167  -0.39774  -0.38569
 Alpha  occ. eigenvalues --   -0.38492  -0.37890  -0.37692  -0.36726  -0.36426
 Alpha  occ. eigenvalues --   -0.36112  -0.35322  -0.34748  -0.33577  -0.31956
 Alpha  occ. eigenvalues --   -0.29292  -0.27784  -0.26726  -0.25530  -0.24895
 Alpha  occ. eigenvalues --   -0.23818
 Alpha virt. eigenvalues --   -0.03846  -0.00448   0.04220   0.07195   0.07725
 Alpha virt. eigenvalues --    0.09526   0.10971   0.11351   0.12057   0.13118
 Alpha virt. eigenvalues --    0.13528   0.14393   0.14696   0.14985   0.15305

 Mulliken atomic charges:
              1
     1  C   -0.459766
     2  C   -0.067831
     3  O   -0.442449
     4  C    0.562789
     5  O   -0.306540
     6  C    0.065949
     7  C   -0.210522
     8  C   -0.146549
     9  C    0.328837
    10  C   -0.176109
    11  C   -0.198175
    12  O   -0.563382
    13  C    0.789107
    14  O   -0.519094
    15  N   -0.440073
    16  C   -0.138459
    17  C   -0.442658
    18  C   -0.142747
    19  C   -0.442645
    20  H    0.159218
    21  H    0.174145
    22  H    0.173180
    23  H    0.172048
    24  H    0.172370
    25  H    0.127324
    26  H    0.151196
    27  H    0.127714
    28  H    0.130848
    29  H    0.144836
    30  H    0.176414
    31  H    0.147748
    32  H    0.144055
    33  H    0.166620
    34  H    0.141185
    35  H    0.181152
    36  H    0.143293
    37  H    0.144387
    38  H    0.172584
 Sum of Mulliken atomic charges =  -0.00000

 Dipole moment (field-independent basis, Debye):
    X=              2.4043    Y=              2.2019    Z=             -0.9587  Tot=              3.3982
 Quadrupole moment (field-independent basis, Debye-Ang):
   XX=            -63.0521   YY=           -111.4483   ZZ=           -114.5247
   XY=             -0.3949   XZ=              3.2754   YZ=              2.3354

 Summary of Natural Population Analysis:

                                       Natural Population
                Natural  -----------------------------------------------
    Atom  No    Charge         Core      Valence    Rydberg      Total
 -----------------------------------------------------------------------
      C    1   -0.71060      1.99945     4.70362    0.00752     6.71060
      C    2   -0.11544      1.99927     4.09855    0.01761     6.11544
      O    3   -0.49181      1.99976     6.48117    0.01087     8.49181
      C    4    0.66935      1.99930     3.29282    0.03853     5.33065
      O    5   -0.26558      1.99981     6.24725    0.01852     8.26558
      C    6   -0.21514      1.99888     4.20000    0.01626     6.21514
      C    7   -0.23494      1.99907     4.22189    0.01398     6.23494
      C    8   -0.26134      1.99902     4.24886    0.01347     6.26134
      C    9    0.25547      1.99873     3.72391    0.02189     5.74453
      C   10   -0.26075      1.99902     4.24752    0.01422     6.26075
      C   11   -0.23646      1.99904     4.22317    0.01424     6.23646
      O   12   -0.56053      1.99969     6.55049    0.01035     8.56053
      C   13    0.94292      1.99936     3.01215    0.04556     5.05708
      O   14   -0.64995      1.99978     6.63114    0.01903     8.64995
      N   15   -0.50221      1.99930     5.48933    0.01358     7.50221
      C   16   -0.25787      1.99934     4.24340    0.01513     6.25787
      C   17   -0.68692      1.99945     4.68008    0.00739     6.68692
      C   18   -0.25422      1.99935     4.23945    0.01542     6.25422
      C   19   -0.68761      1.99945     4.68078    0.00739     6.68761
      H   20    0.24331      0.00000     0.75574    0.00095     0.75669
      H   21    0.24142      0.00000     0.75733    0.00125     0.75858
      H   22    0.24333      0.00000     0.75547    0.00121     0.75667
      H   23    0.22283      0.00000     0.77536    0.00181     0.77717
      H   24    0.23743      0.00000     0.76146    0.00111     0.76257
      H   25    0.23272      0.00000     0.76675    0.00053     0.76728
      H   26    0.25710      0.00000     0.74171    0.00119     0.74290
      H   27    0.24173      0.00000     0.75707    0.00120     0.75827
      H   28    0.24238      0.00000     0.75674    0.00088     0.75762
      H   29    0.22820      0.00000     0.77035    0.00145     0.77180
      H   30    0.25432      0.00000     0.74414    0.00155     0.74568
      H   31    0.22625      0.00000     0.77282    0.00093     0.77375
      H   32    0.23267      0.00000     0.76637    0.00095     0.76733
      H   33    0.23869      0.00000     0.75989    0.00142     0.76131
      H   34    0.22515      0.00000     0.77352    0.00134     0.77485
      H   35    0.25722      0.00000     0.74077    0.00200     0.74278
      H   36    0.22342      0.00000     0.77564    0.00094     0.77658
      H   37    0.23301      0.00000     0.76608    0.00091     0.76699
      H   38    0.24246      0.00000     0.75622    0.00132     0.75754
 =======================================================================
   * Total *    0.00000     37.98709   103.66902    0.34389   142.00000

 Normal termination of Gaussian 09 at Thu Sep 30 10:16:09 2021.
