 Gaussian 09, Revision A.02,

 -----------------------------------
 #p opt b3lyp/6-31G* scf=(xqc,tight)
 -----------------------------------

 ---------------------------------
 COc1ccc2c(c1)n(C)c1c2cccc1_conf_0
 ---------------------------------
 Symbolic Z-matrix:
 Charge =  0 Multiplicity = 1

 SCF Done:  E(RB3LYP) =  -671.298509072     A.U. after   14 cycles
 SCF Done:  E(RB3LYP) =  -671.303502686     A.U. after   12 cycles
 SCF Done:  E(RB3LYP) =  -671.303873851     A.U. after   11 cycles
 SCF Done:  E(RB3LYP) =  -671.303979935     A.U. after   10 cycles
 SCF Done:  E(RB3LYP) =  -671.304045180     A.U. after   11 cycles
 SCF Done:  E(RB3LYP) =  -671.304074363     A.U. after   10 cycles
 SCF Done:  E(RB3LYP) =  -671.304095356     A.U. after   10 cycles
 SCF Done:  E(RB3LYP) =  -671.304106166     A.U. after    9 cycles
 SCF Done:  E(RB3LYP) =  -671.304128831     A.U. after   10 cycles
 SCF Done:  E(RB3LYP) =  -671.304219316     A.U. after   11 cycles
 SCF Done:  E(RB3LYP) =  -671.304256504     A.U. after   10 cycles
 SCF Done:  E(RB3LYP) =  -671.304252432     A.U. after   10 cycles
 SCF Done:  E(RB3LYP) =  -671.304263240     A.U. after   10 cycles
 SCF Done:  E(RB3LYP) =  -671.304263937     A.U. after    7 cycles
 SCF Done:  E(RB3LYP) =  -671.304264497     A.U. after    8 cycles
 SCF Done:  E(RB3LYP) =  -671.304264633     A.U. after    7 cycles
 Optimization completed.
    -- Stationary point found.
 Normal termination of Gaussian 09 at Thu Sep 30 21:54:03 2021.

 ----------------------------------------------------------------------
 #p freq b3lyp/6-31G* volume NMR pop=NPA density=current Geom=AllCheck
 Guess=Read
 ----------------------------------------------------------------------

 COc1ccc2c(c1)n(C)c1c2cccc1_conf_0
 ---------------------------------
 Redundant internal coordinates taken from checkpoint file:
 C14H13NO_406d_conf_0.chk
 Charge =  0 Multiplicity = 1

 SCF Done:  E(RB3LYP) =  -671.304264633     A.U. after    1 cycles

  1  C    Isotropic =   137.4933   Anisotropy =    64.9888

  2  O    Isotropic =   236.4356   Anisotropy =    79.0221

  3  C    Isotropic =    39.2934   Anisotropy =   121.6193

  4  C    Isotropic =    84.8669   Anisotropy =   123.0272

  5  C    Isotropic =    74.3220   Anisotropy =   157.5880

  6  C    Isotropic =    78.5538   Anisotropy =   135.1081

  7  C    Isotropic =    55.1147   Anisotropy =   127.9403

  8  C    Isotropic =   105.5060   Anisotropy =   119.0408

  9  N    Isotropic =   145.8408   Anisotropy =    46.8953

 10  C    Isotropic =   161.4793   Anisotropy =    40.7868

 11  C    Isotropic =    56.8458   Anisotropy =   128.7371

 12  C    Isotropic =    72.0107   Anisotropy =   147.2295

 13  C    Isotropic =    76.3356   Anisotropy =   155.8408

 14  C    Isotropic =    76.4194   Anisotropy =   152.7934

 15  C    Isotropic =    72.2738   Anisotropy =   159.3370

 16  C    Isotropic =    88.2745   Anisotropy =   139.6180

 17  H    Isotropic =    28.1954   Anisotropy =     8.3636

 18  H    Isotropic =    28.5305   Anisotropy =     7.8665

 19  H    Isotropic =    28.5398   Anisotropy =     7.8754

 20  H    Isotropic =    25.5331   Anisotropy =     5.9875

 21  H    Isotropic =    24.4119   Anisotropy =     6.9201

 22  H    Isotropic =    26.0114   Anisotropy =    10.4904

 23  H    Isotropic =    28.5880   Anisotropy =     8.4644

 24  H    Isotropic =    28.9103   Anisotropy =    10.9919

 25  H    Isotropic =    28.4444   Anisotropy =     8.7964

 26  H    Isotropic =    24.4080   Anisotropy =     7.3838

 27  H    Isotropic =    25.0928   Anisotropy =     4.7696

 28  H    Isotropic =    24.9722   Anisotropy =     5.1299

 29  H    Isotropic =    25.2102   Anisotropy =     7.8936

  Exact polarizability: 260.994   0.353 164.378  -0.207   0.797  61.972
 Approx polarizability: 393.720  -7.417 285.308  -0.423   0.609  96.087

                     1                      2                      3
                     A                      A                      A
 Frequencies --    59.0483                84.5930               102.2394
 Red. masses --     3.6503                 1.1028                 3.8796
 Frc consts  --     0.0075                 0.0046                 0.0239
 IR Inten    --     1.1060                 0.0351                 0.0290

                     4                      5                      6
                     A                      A                      A
 Frequencies --   113.2178               153.8891               158.0266
 Red. masses --     3.1382                 3.6891                 3.7795
 Frc consts  --     0.0237                 0.0515                 0.0556
 IR Inten    --     4.7962                 1.1304                 0.4817

                     7                      8                      9
                     A                      A                      A
 Frequencies --   208.3599               240.6513               268.9071
 Red. masses --     2.1574                 3.6084                 1.5585
 Frc consts  --     0.0552                 0.1231                 0.0664
 IR Inten    --     1.1546                 0.4197                 0.4523

                    10                     11                     12
                     A                      A                      A
 Frequencies --   290.1963               311.0110               368.0850
 Red. masses --     2.5553                 5.5183                 4.7365
 Frc consts  --     0.1268                 0.3145                 0.3781
 IR Inten    --     1.8284                 0.2020                 0.7970

                    13                     14                     15
                     A                      A                      A
 Frequencies --   395.2495               448.7475               459.8526
 Red. masses --     6.4103                 3.0085                 3.4069
 Frc consts  --     0.5900                 0.3569                 0.4245
 IR Inten    --     3.3834                 2.0409                 0.9409

                    16                     17                     18
                     A                      A                      A
 Frequencies --   476.5959               547.1049               557.6157
 Red. masses --     4.3728                 5.7140                 5.2725
 Frc consts  --     0.5852                 1.0077                 0.9659
 IR Inten    --     2.7661                13.8664                 5.5176

                    19                     20                     21
                     A                      A                      A
 Frequencies --   579.1296               612.7761               617.4282
 Red. masses --     4.1374                 4.6830                 5.6078
 Frc consts  --     0.8176                 1.0360                 1.2595
 IR Inten    --     0.4930                 0.3314                 6.8131

                    22                     23                     24
                     A                      A                      A
 Frequencies --   641.4849               718.5935               730.5321
 Red. masses --     3.6102                 5.8881                 2.7248
 Frc consts  --     0.8753                 1.7914                 0.8568
 IR Inten    --     1.2449                 3.7349                 7.5166

                    25                     26                     27
                     A                      A                      A
 Frequencies --   753.9791               757.0966               771.5220
 Red. masses --     5.2065                 1.5408                 2.6384
 Frc consts  --     1.7439                 0.5203                 0.9253
 IR Inten    --     1.3800                42.3759                 5.3087

                    28                     29                     30
                     A                      A                      A
 Frequencies --   816.5527               825.4992               830.5185
 Red. masses --     1.7967                 1.6446                 4.5987
 Frc consts  --     0.7058                 0.6603                 1.8689
 IR Inten    --    11.7549                37.7599                 2.2904

                    31                     32                     33
                     A                      A                      A
 Frequencies --   856.6521               919.2458               941.7021
 Red. masses --     1.5133                 1.3518                 1.2697
 Frc consts  --     0.6543                 0.6730                 0.6634
 IR Inten    --     0.4223                 0.8495                 0.0094

                    34                     35                     36
                     A                      A                      A
 Frequencies --   961.8689               963.3170              1017.0393
 Red. masses --     2.2362                 1.4399                 7.1027
 Frc consts  --     1.2190                 0.7873                 4.3286
 IR Inten    --    20.1635                 6.6547                 2.6084

                    37                     38                     39
                     A                      A                      A
 Frequencies --  1051.7173              1071.1487              1087.7837
 Red. masses --     2.0797                 3.0608                 5.6118
 Frc consts  --     1.3553                 2.0691                 3.9123
 IR Inten    --     5.5063                 1.3853                56.9784

                    40                     41                     42
                     A                      A                      A
 Frequencies --  1148.0693              1155.7120              1156.1987
 Red. masses --     1.7042                 1.3286                 1.4231
 Frc consts  --     1.3235                 1.0455                 1.1209
 IR Inten    --    87.5974                 2.0517                14.3897

                    43                     44                     45
                     A                      A                      A
 Frequencies --  1160.9951              1185.3877              1191.8690
 Red. masses --     1.4188                 1.2712                 1.1298
 Frc consts  --     1.1267                 1.0524                 0.9456
 IR Inten    --     3.4133                 0.7012                 6.7046

                    46                     47                     48
                     A                      A                      A
 Frequencies --  1216.5825              1246.3141              1277.6607
 Red. masses --     1.4151                 2.1412                 2.5617
 Frc consts  --     1.2340                 1.9595                 2.4639
 IR Inten    --     8.1487                95.5337               173.4328

                    49                     50                     51
                     A                      A                      A
 Frequencies --  1290.9753              1336.6673              1363.8546
 Red. masses --     2.7519                 1.8699                 2.3201
 Frc consts  --     2.7022                 1.9684                 2.5427
 IR Inten    --   115.6259                11.1002                15.7463

                    52                     53                     54
                     A                      A                      A
 Frequencies --  1381.1069              1402.9158              1410.5710
 Red. masses --     4.0361                 5.6805                 4.6184
 Frc consts  --     4.5359                 6.5872                 5.4142
 IR Inten    --    47.4537                15.8160                53.3786

                    55                     56                     57
                     A                      A                      A
 Frequencies --  1475.5726              1490.6195              1509.3653
 Red. masses --     1.5612                 1.3186                 2.1726
 Frc consts  --     2.0027                 1.7262                 2.9162
 IR Inten    --    20.8112                36.1256                58.7941

                    58                     59                     60
                     A                      A                      A
 Frequencies --  1512.9484              1518.8832              1519.6763
 Red. masses --     1.8983                 1.5305                 1.1137
 Frc consts  --     2.5601                 2.0803                 1.5153
 IR Inten    --    84.5751                 0.7101                 6.1091

                    61                     62                     63
                     A                      A                      A
 Frequencies --  1527.0363              1535.6617              1542.0719
 Red. masses --     1.3278                 1.1014                 1.5117
 Frc consts  --     1.8242                 1.5303                 2.1180
 IR Inten    --    23.3613                45.8135                24.8775

                    64                     65                     66
                     A                      A                      A
 Frequencies --  1549.2041              1625.2869              1632.1921
 Red. masses --     2.3356                 7.6006                 5.8434
 Frc consts  --     3.3027                11.8292                 9.1718
 IR Inten    --    16.1242                11.7682                 3.2807

                    67                     68                     69
                     A                      A                      A
 Frequencies --  1660.1104              1679.7843              3019.7231
 Red. masses --     6.3703                 6.5124                 1.0351
 Frc consts  --    10.3438                10.8267                 5.5614
 IR Inten    --   123.6772               113.7996                58.6849

                    70                     71                     72
                     A                      A                      A
 Frequencies --  3035.4245              3076.2053              3108.0160
 Red. masses --     1.0449                 1.1064                 1.0919
 Frc consts  --     5.6725                 6.1688                 6.2144
 IR Inten    --    70.2419                46.9896                22.8992

                    73                     74                     75
                     A                      A                      A
 Frequencies --  3144.8085              3154.7264              3181.5186
 Red. masses --     1.1031                 1.0991                 1.0850
 Frc consts  --     6.4275                 6.4446                 6.4705
 IR Inten    --     9.3595                31.9582                 0.5971

                    76                     77                     78
                     A                      A                      A
 Frequencies --  3189.2723              3192.6638              3200.6587
 Red. masses --     1.0885                 1.0887                 1.0928
 Frc consts  --     6.5234                 6.5384                 6.5958
 IR Inten    --     5.6495                 7.8064                37.3231

                    79                     80                     81
                     A                      A                      A
 Frequencies --  3210.2676              3220.8117              3234.5733
 Red. masses --     1.0968                 1.0932                 1.0894
 Frc consts  --     6.6598                 6.6818                 6.7151
 IR Inten    --    33.3313                10.1425                 9.1738

 - Thermochemistry -
 -------------------
 Temperature   298.150 Kelvin.  Pressure   1.00000 Atm.
 Atom     1 has atomic number  6 and mass  12.00000

 Molecular mass:   211.09971 amu.
 Principal axes and moments of inertia in atomic units:
                           1         2         3
     Eigenvalues --  1370.980885457.711926805.48683
           X            0.99995   0.01048  -0.00004
           Y           -0.01048   0.99995   0.00028
           Z            0.00004  -0.00028   1.00000
 This molecule is an asymmetric top.
 Rotational symmetry number  1.
 Warning -- assumption of classical behavior for rotation
           may cause significant error
 Rotational temperatures (Kelvin)      0.06318     0.01587     0.01273
 Rotational constants (GHZ):           1.31639     0.33068     0.26519
 Zero-point vibrational energy     624695.6 (Joules/Mol)
                                  149.30582 (Kcal/Mol)
 Warning -- explicit consideration of  21 degrees of freedom as
           vibrations may cause significant error
 Vibrational temperatures:     84.96   121.71   147.10   162.90   221.41
          (Kelvin)            227.36   299.78   346.24   386.90   417.53
                              447.47   529.59   568.68   645.65   661.62
                              685.71   787.16   802.28   833.24   881.65
                              888.34   922.95  1033.89  1051.07  1084.81
                             1089.29  1110.05  1174.84  1187.71  1194.93
                             1232.53  1322.59  1354.90  1383.91  1386.00
                             1463.29  1513.18  1541.14  1565.08  1651.81
                             1662.81  1663.51  1670.41  1705.51  1714.83
                             1750.39  1793.17  1838.27  1857.42  1923.16
                             1962.28  1987.10  2018.48  2029.49  2123.02
                             2144.67  2171.64  2176.79  2185.33  2186.47
                             2197.06  2209.47  2218.69  2228.96  2338.42
                             2348.36  2388.53  2416.83  4344.70  4367.29
                             4425.97  4471.74  4524.67  4538.94  4577.49
                             4588.65  4593.53  4605.03  4618.85  4634.02
                             4653.82

 Zero-point correction=                           0.237934 (Hartree/Particle)
 Thermal correction to Energy=                    0.251131
 Thermal correction to Enthalpy=                  0.252076
 Thermal correction to Gibbs Free Energy=         0.198289
 Sum of electronic and zero-point Energies=           -671.066331
 Sum of electronic and thermal Energies=              -671.053133
 Sum of electronic and thermal Enthalpies=            -671.052189
 Sum of electronic and thermal Free Energies=         -671.105976

                     E (Thermal)             CV                S
                      KCal/Mol        Cal/Mol-Kelvin    Cal/Mol-Kelvin
 Total                  157.587             52.227            113.203
 Electronic               0.000              0.000              0.000
 Translational            0.889              2.981             41.945
 Rotational               0.889              2.981             32.299
 Vibrational            155.810             46.265             38.959
 Vibration     1          0.596              1.974              4.489
 Vibration     2          0.601              1.960              3.781
 Vibration     3          0.604              1.947              3.411
 Vibration     4          0.607              1.939              3.213
 Vibration     5          0.619              1.898              2.624
 Vibration     6          0.621              1.894              2.573
 Vibration     7          0.642              1.828              2.058
 Vibration     8          0.658              1.778              1.798
 Vibration     9          0.673              1.730              1.603
 Vibration    10          0.686              1.692              1.473
 Vibration    11          0.700              1.653              1.357
 Vibration    12          0.741              1.538              1.088
 Vibration    13          0.762              1.480              0.980
 Vibration    14          0.808              1.364              0.800
 Vibration    15          0.818              1.339              0.767
 Vibration    16          0.833              1.302              0.719
 Vibration    17          0.902              1.146              0.550
 Vibration    18          0.913              1.123              0.529
 Vibration    19          0.936              1.076              0.487
 Vibration    20          0.972              1.005              0.428
 Vibration    21          0.977              0.995              0.421

 Optimization completed.
    -- Stationary point found.
 Normal termination of Gaussian 09 at Thu Sep 30 23:10:56 2021.
 Gaussian 09:  AM64L-G09RevA.02 11-Jun-2009

 ----------------------------------------------------------------------
 #p TD(NStates=10, Root=1) b3lyp/6-31G* volume pop=NPA density=current
 Geom=AllCheck Guess=Read
 ----------------------------------------------------------------------

 COc1ccc2c(c1)n(C)c1c2cccc1_conf_0
 ---------------------------------
 Redundant internal coordinates taken from checkpoint file:
 C14H13NO_406d_conf_0.chk
 Charge =  0 Multiplicity = 1

                         Standard orientation:
 ---------------------------------------------------------------------
 Center     Atomic      Atomic             Coordinates (Angstroms)
 Number     Number       Type             X           Y           Z
 ---------------------------------------------------------------------
      1          6           0        4.646368    0.815312    0.012628
      2          8           0        4.026304   -0.457868    0.009816
      3          6           0        2.660003   -0.514935    0.000294
      4          6           0        2.121200   -1.820375   -0.002763
      5          6           0        0.749305   -2.018166   -0.005949
      6          6           0       -0.111744   -0.912341   -0.008112
      7          6           0        0.448616    0.389053   -0.012503
      8          6           0        1.831991    0.610405   -0.001383
      9          7           0       -0.577044    1.325445   -0.031107
     10          6           0       -0.404802    2.760251    0.002709
     11          6           0       -1.796665    0.651930   -0.008044
     12          6           0       -1.549285   -0.747629   -0.005333
     13          6           0       -2.630819   -1.635231    0.000629
     14          6           0       -3.927920   -1.127095    0.009612
     15          6           0       -4.154476    0.259074    0.014466
     16          6           0       -3.095283    1.166306    0.008465
     17          1           0        5.721637    0.626364    0.014661
     18          1           0        4.379480    1.394213    0.907488
     19          1           0        4.382884    1.396305   -0.881875
     20          1           0        2.813010   -2.656119    0.000770
     21          1           0        0.348617   -3.028480   -0.004317
     22          1           0        2.238247    1.614075    0.013750
     23          1           0        0.487297    3.038611   -0.566126
     24          1           0       -0.303457    3.144004    1.027151
     25          1           0       -1.264699    3.242928   -0.468583
     26          1           0       -2.460684   -2.708900    0.001122
     27          1           0       -4.774017   -1.808530    0.016039
     28          1           0       -5.173874    0.635333    0.027486
     29          1           0       -3.284492    2.235665    0.023359
 ---------------------------------------------------------------------

 SCF Done:  E(RB3LYP) =  -671.304264633     A.U. after    1 cycles

 Excitation energies and oscillator strengths:

 Excited State   1:      Singlet-A      4.1785 eV  296.72 nm  f=0.0236  <S**2>=0.000
      55 -> 57         0.53204
      55 -> 58         0.13410
      56 -> 57        -0.38656
      56 -> 58         0.19672
 This state for optimization and/or second-order correction.
 Total Energy, E(TD-HF/TD-KS) =  -671.150707358
 Copying the excited state density for this state as the 1-particle RhoCI density.

 Excited State   2:      Singlet-A      4.3932 eV  282.22 nm  f=0.1912  <S**2>=0.000
      55 -> 57         0.36844
      55 -> 58        -0.23705
      56 -> 57         0.51131
      56 -> 58         0.17802

 Excited State   3:      Singlet-A      5.0598 eV  245.04 nm  f=0.0940  <S**2>=0.000
      55 -> 57        -0.22173
      55 -> 58         0.11882
      55 -> 59         0.21502
      56 -> 58         0.59278
      56 -> 60         0.10073

 Excited State   4:      Singlet-A      5.1750 eV  239.58 nm  f=0.3715  <S**2>=0.000
      54 -> 57         0.10532
      55 -> 58         0.55394
      55 -> 60         0.12371
      56 -> 57         0.19178
      56 -> 59        -0.32425

 Excited State   5:      Singlet-A      5.4455 eV  227.68 nm  f=0.4228  <S**2>=0.000
      53 -> 57         0.12538
      54 -> 57        -0.40798
      55 -> 57         0.11579
      55 -> 58         0.24196
      55 -> 59         0.15117
      56 -> 57         0.18306
      56 -> 58        -0.12777
      56 -> 59         0.41169

 Excited State   6:      Singlet-A      5.8216 eV  212.97 nm  f=0.0755  <S**2>=0.000
      53 -> 57        -0.33054
      54 -> 57        -0.23930
      55 -> 59         0.44826
      56 -> 59        -0.26780
      56 -> 60        -0.16198

 Excited State   7:      Singlet-A      5.9666 eV  207.80 nm  f=0.1460  <S**2>=0.000
      53 -> 58        -0.17069
      54 -> 57         0.43298
      55 -> 59         0.37194
      55 -> 60        -0.16080
      56 -> 58        -0.10747
      56 -> 59         0.23779
      56 -> 60         0.16910

 Excited State   8:      Singlet-A      6.0827 eV  203.83 nm  f=0.2330  <S**2>=0.000
      53 -> 57         0.42666
      55 -> 58        -0.13297
      55 -> 59         0.20197
      55 -> 60         0.23422
      56 -> 59        -0.19034
      56 -> 60         0.35891

 Excited State   9:      Singlet-A      6.1670 eV  201.05 nm  f=0.1092  <S**2>=0.000
      53 -> 58        -0.30054
      54 -> 58        -0.15324
      55 -> 60         0.52718
      56 -> 59         0.18456
      56 -> 60        -0.20625

 Excited State  10:      Singlet-A      6.2950 eV  196.96 nm  f=0.0104  <S**2>=0.000
      53 -> 57         0.32783
      53 -> 58        -0.14262
      54 -> 58         0.40961
      55 -> 60        -0.11454
      56 -> 60        -0.40297

 The electronic state is 1-A.
 Alpha  occ. eigenvalues --  -19.17474 -14.37470 -10.24394 -10.24017 -10.23159
 Alpha  occ. eigenvalues --  -10.22063 -10.21625 -10.18633 -10.18456 -10.18389
 Alpha  occ. eigenvalues --  -10.18139 -10.18114 -10.18082 -10.17736 -10.17500
 Alpha  occ. eigenvalues --  -10.17380  -1.06041  -0.98146  -0.84264  -0.83724
 Alpha  occ. eigenvalues --   -0.78154  -0.74763  -0.74163  -0.72826  -0.69472
 Alpha  occ. eigenvalues --   -0.67889  -0.61656  -0.60432  -0.57676  -0.56936
 Alpha  occ. eigenvalues --   -0.52952  -0.51674  -0.49511  -0.47679  -0.46874
 Alpha  occ. eigenvalues --   -0.46431  -0.46022  -0.44481  -0.44169  -0.42982
 Alpha  occ. eigenvalues --   -0.42368  -0.40373  -0.39943  -0.39695  -0.37879
 Alpha  occ. eigenvalues --   -0.36222  -0.36065  -0.34398  -0.33139  -0.32672
 Alpha  occ. eigenvalues --   -0.32561  -0.29901  -0.25700  -0.24656  -0.19560
 Alpha  occ. eigenvalues --   -0.19194
 Alpha virt. eigenvalues --   -0.01528   0.01128   0.03464   0.05502   0.08144
 Alpha virt. eigenvalues --    0.10289   0.11117   0.11381   0.13086   0.13506
 Alpha virt. eigenvalues --    0.14773   0.14914   0.15884   0.16108   0.16696

 Mulliken atomic charges:
              1
     1  C   -0.207012
     2  O   -0.510791
     3  C    0.350090
     4  C   -0.168303
     5  C   -0.224112
     6  C    0.077332
     7  C    0.306614
     8  C   -0.266368
     9  N   -0.576410
    10  C   -0.334985
    11  C    0.306471
    12  C    0.065791
    13  C   -0.222187
    14  C   -0.124569
    15  C   -0.169066
    16  C   -0.189080
    17  H    0.167475
    18  H    0.144400
    19  H    0.143885
    20  H    0.138889
    21  H    0.127485
    22  H    0.123075
    23  H    0.185743
    24  H    0.191345
    25  H    0.190307
    26  H    0.121483
    27  H    0.124329
    28  H    0.112515
    29  H    0.115653
 Sum of Mulliken atomic charges =  -0.00000

 Dipole moment (field-independent basis, Debye):
    X=              1.2245    Y=              3.8638    Z=              0.0320  Tot=              4.0534
 Quadrupole moment (field-independent basis, Debye-Ang):
   XX=            -90.2985   YY=            -78.1883   ZZ=            -97.4280
   XY=              4.8421   XZ=             -0.0243   YZ=              0.0261

 Summary of Natural Population Analysis:

                                       Natural Population
                Natural  -----------------------------------------------
    Atom  No    Charge         Core      Valence    Rydberg      Total
 -----------------------------------------------------------------------
      C    1   -0.31491      1.99944     4.30128    0.01420     6.31491
      O    2   -0.51993      1.99975     6.50826    0.01193     8.51993
      C    3    0.26540      1.99885     3.71253    0.02322     5.73460
      C    4   -0.21948      1.99906     4.20556    0.01486     6.21948
      C    5   -0.25804      1.99906     4.24329    0.01569     6.25804
      C    6   -0.07267      1.99901     4.05775    0.01592     6.07267
      C    7    0.17707      1.99901     3.80464    0.01929     5.82293
      C    8   -0.35484      1.99897     4.34333    0.01254     6.35484
      N    9   -0.26643      1.99924     5.25634    0.01086     7.26643
      C   10   -0.47179      1.99946     4.46059    0.01175     6.47179
      C   11    0.15453      1.99899     3.82768    0.01880     5.84547
      C   12   -0.08894      1.99901     4.07374    0.01620     6.08894
      C   13   -0.25679      1.99905     4.24207    0.01567     6.25679
      C   14   -0.19484      1.99912     4.18139    0.01433     6.19484
      C   15   -0.29741      1.99914     4.28162    0.01665     6.29741
      C   16   -0.27637      1.99902     4.26256    0.01479     6.27637
      H   17    0.22736      0.00000     0.77210    0.00054     0.77264
      H   18    0.19709      0.00000     0.80074    0.00216     0.80291
      H   19    0.19703      0.00000     0.80080    0.00216     0.80297
      H   20    0.24440      0.00000     0.75444    0.00116     0.75560
      H   21    0.23643      0.00000     0.76272    0.00085     0.76357
      H   22    0.23193      0.00000     0.76718    0.00089     0.76807
      H   23    0.24486      0.00000     0.75400    0.00114     0.75514
      H   24    0.24661      0.00000     0.75206    0.00133     0.75339
      H   25    0.24852      0.00000     0.75040    0.00107     0.75148
      H   26    0.23185      0.00000     0.76721    0.00094     0.76815
      H   27    0.23220      0.00000     0.76700    0.00080     0.76780
      H   28    0.23034      0.00000     0.76889    0.00077     0.76966
      H   29    0.22683      0.00000     0.77221    0.00096     0.77317
 =======================================================================
   * Total *    0.00000     31.98615    79.75237    0.26148   112.00000

 Normal termination of Gaussian 09 at Fri Oct  1 03:38:23 2021.
