 Gaussian 09, Revision A.02,

 -----------------------------------
 #p opt b3lyp/6-31G* scf=(xqc,tight)
 -----------------------------------

 --------------------------------
 COc1ccc(cc1)n1cnc2c1cccc2_conf_0
 --------------------------------
 Symbolic Z-matrix:
 Charge =  0 Multiplicity = 1

 SCF Done:  E(RB3LYP) =  -725.436308908     A.U. after   15 cycles
 SCF Done:  E(RB3LYP) =  -725.439752884     A.U. after   12 cycles
 SCF Done:  E(RB3LYP) =  -725.440588698     A.U. after   12 cycles
 SCF Done:  E(RB3LYP) =  -725.440809485     A.U. after   15 cycles
 SCF Done:  E(RB3LYP) =  -725.440905006     A.U. after   11 cycles
 SCF Done:  E(RB3LYP) =  -725.440919306     A.U. after   10 cycles
 SCF Done:  E(RB3LYP) =  -725.440920783     A.U. after    8 cycles
 SCF Done:  E(RB3LYP) =  -725.440921209     A.U. after    8 cycles
 SCF Done:  E(RB3LYP) =  -725.440921339     A.U. after    7 cycles
 Optimization completed.
    -- Stationary point found.
 Normal termination of Gaussian 09 at Sun Oct  3 23:37:40 2021.

 ----------------------------------------------------------------------
 #p freq b3lyp/6-31G* volume NMR pop=NPA density=current Geom=AllCheck
 Guess=Read
 ----------------------------------------------------------------------

 COc1ccc(cc1)n1cnc2c1cccc2_conf_0
 --------------------------------
 Redundant internal coordinates taken from checkpoint file:
 C14H12N2O_b942_conf_0.chk
 Charge =  0 Multiplicity = 1

 SCF Done:  E(RB3LYP) =  -725.440921339     A.U. after    1 cycles

  1  C    Isotropic =   137.1559   Anisotropy =    65.5660

  2  O    Isotropic =   235.4055   Anisotropy =    84.1429

  3  C    Isotropic =    39.7501   Anisotropy =   127.8688

  4  C    Isotropic =    85.4520   Anisotropy =   144.2762

  5  C    Isotropic =    70.7762   Anisotropy =   152.5842

  6  C    Isotropic =    65.6842   Anisotropy =   119.9148

  7  C    Isotropic =    70.0293   Anisotropy =   143.9731

  8  C    Isotropic =    76.6420   Anisotropy =   137.2092

  9  N    Isotropic =    88.8630   Anisotropy =    98.9884

 10  C    Isotropic =    55.7412   Anisotropy =    77.3262

 11  N    Isotropic =     5.7891   Anisotropy =   356.7756

 12  C    Isotropic =    51.8402   Anisotropy =   133.6907

 13  C    Isotropic =    62.7957   Anisotropy =   133.4160

 14  C    Isotropic =    86.7921   Anisotropy =   143.0303

 15  C    Isotropic =    72.9219   Anisotropy =   158.2389

 16  C    Isotropic =    73.8322   Anisotropy =   157.1212

 17  C    Isotropic =    73.9484   Anisotropy =   149.7613

 18  H    Isotropic =    28.1949   Anisotropy =     8.1455

 19  H    Isotropic =    28.5620   Anisotropy =     8.0146

 20  H    Isotropic =    28.5788   Anisotropy =     7.9501

 21  H    Isotropic =    25.6153   Anisotropy =     7.3910

 22  H    Isotropic =    24.8267   Anisotropy =     9.5913

 23  H    Isotropic =    25.0486   Anisotropy =     7.8259

 24  H    Isotropic =    25.3048   Anisotropy =     5.6123

 25  H    Isotropic =    24.7281   Anisotropy =     6.3402

 26  H    Isotropic =    24.9815   Anisotropy =     9.2579

 27  H    Isotropic =    25.0439   Anisotropy =     5.5988

 28  H    Isotropic =    24.9996   Anisotropy =     4.5184

 29  H    Isotropic =    24.5749   Anisotropy =     4.9541

  Exact polarizability: 247.934  -4.087 156.249   2.933  -4.031  79.832
 Approx polarizability: 350.634  -3.101 278.609  12.129  -9.821 131.996

                     1                      2                      3
                     A                      A                      A
 Frequencies --    45.9857                48.2541                65.1748
 Red. masses --     3.8078                 4.6604                 4.7494
 Frc consts  --     0.0047                 0.0064                 0.0119
 IR Inten    --     1.0360                 0.1825                 0.1216

                     4                      5                      6
                     A                      A                      A
 Frequencies --   101.2093               169.6699               209.8064
 Red. masses --     3.7336                 4.1424                 3.9398
 Frc consts  --     0.0225                 0.0703                 0.1022
 IR Inten    --     3.1385                 1.9475                 1.8664

                     7                      8                      9
                     A                      A                      A
 Frequencies --   231.9064               251.8872               253.4569
 Red. masses --     4.3280                 2.3557                 1.8008
 Frc consts  --     0.1371                 0.0881                 0.0682
 IR Inten    --     1.7575                 0.4784                 1.2019

                    10                     11                     12
                     A                      A                      A
 Frequencies --   285.6041               364.0697               409.0944
 Red. masses --     3.9543                 5.1339                 5.8658
 Frc consts  --     0.1900                 0.4009                 0.5784
 IR Inten    --     0.4940                 0.4669                 2.7102

                    13                     14                     15
                     A                      A                      A
 Frequencies --   431.9882               437.8336               478.8494
 Red. masses --     3.2363                 3.0388                 4.5430
 Frc consts  --     0.3558                 0.3432                 0.6137
 IR Inten    --     0.2871                 4.0795                 3.0591

                    16                     17                     18
                     A                      A                      A
 Frequencies --   501.2674               541.9437               585.2562
 Red. masses --     4.2668                 3.4148                 4.0414
 Frc consts  --     0.6317                 0.5909                 0.8156
 IR Inten    --     1.5988                 7.9998                 7.1227

                    19                     20                     21
                     A                      A                      A
 Frequencies --   592.1692               599.2865               634.8895
 Red. masses --     4.4575                 5.6971                 4.3187
 Frc consts  --     0.9209                 1.2055                 1.0256
 IR Inten    --     1.7332                21.4539                 2.4097

                    22                     23                     24
                     A                      A                      A
 Frequencies --   660.3293               676.3348               727.0065
 Red. masses --     5.7384                 6.4895                 4.4203
 Frc consts  --     1.4742                 1.7490                 1.3765
 IR Inten    --     1.4244                11.1438                 2.4100

                    25                     26                     27
                     A                      A                      A
 Frequencies --   759.0875               777.7370               800.9134
 Red. masses --     1.4448                 3.2811                 4.9766
 Frc consts  --     0.4905                 1.1693                 1.8808
 IR Inten    --    47.0806                10.6197                14.0652

                    28                     29                     30
                     A                      A                      A
 Frequencies --   819.7143               826.8544               850.0608
 Red. masses --     4.8846                 1.3090                 1.5423
 Frc consts  --     1.9338                 0.5273                 0.6566
 IR Inten    --     2.3448                 2.3924                38.0238

                    31                     32                     33
                     A                      A                      A
 Frequencies --   856.6585               871.5747               897.4749
 Red. masses --     1.4631                 1.5008                 6.0174
 Frc consts  --     0.6326                 0.6717                 2.8556
 IR Inten    --    13.9995                 2.4994                 7.0199

                    34                     35                     36
                     A                      A                      A
 Frequencies --   934.8911               951.3195               959.6401
 Red. masses --     1.3441                 1.3037                 1.2921
 Frc consts  --     0.6921                 0.6952                 0.7011
 IR Inten    --     1.9229                 1.5310                 0.1297

                    37                     38                     39
                     A                      A                      A
 Frequencies --   974.9137               991.6456              1033.8907
 Red. masses --     1.2331                 7.3980                 2.4447
 Frc consts  --     0.6905                 4.2862                 1.5397
 IR Inten    --     0.1021                10.5686                 1.4299

                    40                     41                     42
                     A                      A                      A
 Frequencies --  1039.0712              1077.8033              1133.8877
 Red. masses --     2.1843                 5.9552                 1.9055
 Frc consts  --     1.3895                 4.0759                 1.4435
 IR Inten    --     7.4898                55.5393                 2.7044

                    43                     44                     45
                     A                      A                      A
 Frequencies --  1142.3612              1170.1569              1185.5666
 Red. masses --     1.3236                 1.6593                 1.2697
 Frc consts  --     1.0177                 1.3386                 1.0515
 IR Inten    --    14.0465                26.4444                 0.7178

                    46                     47                     48
                     A                      A                      A
 Frequencies --  1187.2088              1207.4083              1219.1379
 Red. masses --     1.3157                 1.1826                 1.3789
 Frc consts  --     1.0926                 1.0158                 1.2075
 IR Inten    --     5.0637                12.4491                13.5175

                    49                     50                     51
                     A                      A                      A
 Frequencies --  1231.8883              1262.9699              1299.6565
 Red. masses --     2.9563                 2.1268                 4.4853
 Frc consts  --     2.6432                 1.9988                 4.4637
 IR Inten    --    45.4555                74.7499               337.6052

                    52                     53                     54
                     A                      A                      A
 Frequencies --  1320.9080              1328.6320              1347.3123
 Red. masses --     2.2690                 1.8581                 1.5537
 Frc consts  --     2.3326                 1.9325                 1.6617
 IR Inten    --    22.5406                25.3884                18.1184

                    55                     56                     57
                     A                      A                      A
 Frequencies --  1359.9491              1398.9533              1418.4375
 Red. masses --     5.4013                 6.5316                 3.8716
 Frc consts  --     5.8857                 7.5314                 4.5894
 IR Inten    --    17.7583                 9.0295                 3.3352

                    58                     59                     60
                     A                      A                      A
 Frequencies --  1471.5797              1496.3589              1502.1362
 Red. masses --     3.1986                 2.2736                 1.3259
 Frc consts  --     4.0811                 2.9994                 1.7628
 IR Inten    --     1.1830                34.7693                59.3967

                    61                     62                     63
                     A                      A                      A
 Frequencies --  1522.2764              1527.5410              1534.1208
 Red. masses --     1.0477                 2.8702                 1.0682
 Frc consts  --     1.4304                 3.9459                 1.4812
 IR Inten    --     6.1901                 1.0618                61.2395

                    64                     65                     66
                     A                      A                      A
 Frequencies --  1549.1281              1568.7337              1630.0289
 Red. masses --     5.3161                 2.6046                 6.4945
 Frc consts  --     7.5166                 3.7765                10.1669
 IR Inten    --   104.5281               286.0616                12.1045

                    67                     68                     69
                     A                      A                      A
 Frequencies --  1638.9666              1668.8616              1676.4462
 Red. masses --     6.7980                 6.6382                 5.9895
 Frc consts  --    10.7589                10.8928                 9.9180
 IR Inten    --     3.3101                 6.8361                34.3615

                    70                     71                     72
                     A                      A                      A
 Frequencies --  3028.1905              3088.3467              3162.3750
 Red. masses --     1.0348                 1.1069                 1.0999
 Frc consts  --     5.5905                 6.2203                 6.4807
 IR Inten    --    55.6562                40.5759                25.9880

                    73                     74                     75
                     A                      A                      A
 Frequencies --  3186.0800              3199.6287              3205.3475
 Red. masses --     1.0857                 1.0897                 1.0885
 Frc consts  --     6.4936                 6.5728                 6.5893
 IR Inten    --     1.7971                20.5079                 8.6809

                    76                     77                     78
                     A                      A                      A
 Frequencies --  3210.8400              3214.2424              3218.1350
 Red. masses --     1.0914                 1.0916                 1.0956
 Frc consts  --     6.6296                 6.6445                 6.6851
 IR Inten    --    18.9065                 6.1694                17.1366

                    79                     80                     81
                     A                      A                      A
 Frequencies --  3222.7961              3234.0543              3258.0427
 Red. masses --     1.0945                 1.0922                 1.0959
 Frc consts  --     6.6975                 6.7304                 6.8538
 IR Inten    --     4.0077                 7.5877                 0.9680

 - Thermochemistry -
 -------------------
 Temperature   298.150 Kelvin.  Pressure   1.00000 Atm.
 Atom     1 has atomic number  6 and mass  12.00000

 Molecular mass:   224.09496 amu.
 Principal axes and moments of inertia in atomic units:
                           1         2         3
     Eigenvalues --  1342.521287766.457698753.37930
           X            0.99999   0.00181  -0.00428
           Y           -0.00189   0.99986  -0.01663
           Z            0.00425   0.01664   0.99985
 This molecule is an asymmetric top.
 Rotational symmetry number  1.
 Warning -- assumption of classical behavior for rotation
           may cause significant error
 Rotational temperatures (Kelvin)      0.06452     0.01115     0.00989
 Rotational constants (GHZ):           1.34429     0.23238     0.20618
 Zero-point vibrational energy     609827.6 (Joules/Mol)
                                  145.75230 (Kcal/Mol)
 Warning -- explicit consideration of  20 degrees of freedom as
           vibrations may cause significant error
 Vibrational temperatures:     66.16    69.43    93.77   145.62   244.12
          (Kelvin)            301.86   333.66   362.41   364.67   410.92
                              523.81   588.59   621.53   629.94   688.96
                              721.21   779.74   842.05   852.00   862.24
                              913.46   950.07   973.09  1046.00  1092.16
                             1118.99  1152.33  1179.38  1189.66  1223.05
                             1232.54  1254.00  1291.26  1345.10  1368.73
                             1380.71  1402.68  1426.76  1487.54  1494.99
                             1550.72  1631.41  1643.60  1683.59  1705.76
                             1708.13  1737.19  1754.07  1772.41  1817.13
                             1869.91  1900.49  1911.60  1938.48  1956.66
                             2012.78  2040.81  2117.27  2152.92  2161.24
                             2190.21  2197.79  2207.25  2228.85  2257.06
                             2345.25  2358.10  2401.12  2412.03  4356.89
                             4443.44  4549.95  4584.05  4603.55  4611.77
                             4619.68  4624.57  4630.17  4636.88  4653.08
                             4687.59

 Zero-point correction=                           0.232271 (Hartree/Particle)
 Thermal correction to Energy=                    0.245454
 Thermal correction to Enthalpy=                  0.246398
 Thermal correction to Gibbs Free Energy=         0.191574
 Sum of electronic and zero-point Energies=           -725.208650
 Sum of electronic and thermal Energies=              -725.195467
 Sum of electronic and thermal Enthalpies=            -725.194523
 Sum of electronic and thermal Free Energies=         -725.249347

                     E (Thermal)             CV                S
                      KCal/Mol        Cal/Mol-Kelvin    Cal/Mol-Kelvin
 Total                  154.025             52.749            115.387
 Electronic               0.000              0.000              0.000
 Translational            0.889              2.981             42.123
 Rotational               0.889              2.981             32.879
 Vibrational            152.247             46.788             40.385
 Vibration     1          0.595              1.979              4.983
 Vibration     2          0.595              1.978              4.888
 Vibration     3          0.597              1.971              4.294
 Vibration     4          0.604              1.948              3.431
 Vibration     5          0.625              1.880              2.439
 Vibration     6          0.642              1.826              2.045
 Vibration     7          0.653              1.792              1.864
 Vibration     8          0.664              1.760              1.717
 Vibration     9          0.665              1.757              1.706
 Vibration    10          0.683              1.700              1.500
 Vibration    11          0.738              1.546              1.105
 Vibration    12          0.773              1.450              0.930
 Vibration    13          0.793              1.401              0.852
 Vibration    14          0.798              1.388              0.833
 Vibration    15          0.835              1.297              0.713
 Vibration    16          0.857              1.247              0.655
 Vibration    17          0.897              1.157              0.561
 Vibration    18          0.942              1.063              0.476
 Vibration    19          0.950              1.048              0.463
 Vibration    20          0.957              1.033              0.451

 Optimization completed.
    -- Stationary point found.
 Normal termination of Gaussian 09 at Mon Oct  4 01:43:43 2021.
 Gaussian 09:  AM64L-G09RevA.02 11-Jun-2009

 ----------------------------------------------------------------------
 #p TD(NStates=10, Root=1) b3lyp/6-31G* volume pop=NPA density=current
 Geom=AllCheck Guess=Read
 ----------------------------------------------------------------------

 COc1ccc(cc1)n1cnc2c1cccc2_conf_0
 --------------------------------
 Redundant internal coordinates taken from checkpoint file:
 C14H12N2O_b942_conf_0.chk
 Charge =  0 Multiplicity = 1

                         Standard orientation:
 ---------------------------------------------------------------------
 Center     Atomic      Atomic             Coordinates (Angstroms)
 Number     Number       Type             X           Y           Z
 ---------------------------------------------------------------------
      1          6           0        5.308490    1.140041   -0.350072
      2          8           0        4.655822    0.062364    0.304407
      3          6           0        3.307739   -0.065674    0.151700
      4          6           0        2.505427    0.790833   -0.612306
      5          6           0        1.132049    0.557231   -0.705899
      6          6           0        0.544621   -0.511131   -0.026209
      7          6           0        1.349366   -1.359178    0.748056
      8          6           0        2.718388   -1.145617    0.826751
      9          7           0       -0.852497   -0.754914   -0.129175
     10          6           0       -1.448484   -1.967992   -0.430862
     11          7           0       -2.752888   -1.931842   -0.477990
     12          6           0       -3.075013   -0.611079   -0.190054
     13          6           0       -1.901311    0.149507    0.031114
     14          6           0       -1.941644    1.505446    0.365963
     15          6           0       -3.201228    2.091944    0.457965
     16          6           0       -4.379033    1.352234    0.228509
     17          6           0       -4.331296    0.000042   -0.092828
     18          1           0        6.364318    1.052439   -0.088583
     19          1           0        4.928262    2.110475   -0.004893
     20          1           0        5.198379    1.075521   -1.440557
     21          1           0        2.935043    1.628772   -1.148754
     22          1           0        0.516706    1.203388   -1.323880
     23          1           0        0.893923   -2.177393    1.297825
     24          1           0        3.353004   -1.794972    1.421138
     25          1           0       -0.838556   -2.841765   -0.624212
     26          1           0       -1.037654    2.076341    0.553281
     27          1           0       -3.276608    3.144880    0.715546
     28          1           0       -5.340879    1.851019    0.309545
     29          1           0       -5.233244   -0.579966   -0.262518
 ---------------------------------------------------------------------

 SCF Done:  E(RB3LYP) =  -725.440921339     A.U. after    2 cycles

 Excitation energies and oscillator strengths:

 Excited State   1:      Singlet-A      4.5959 eV  269.77 nm  f=0.0207  <S**2>=0.000
      59 -> 60         0.67775
      59 -> 61        -0.10267
 This state for optimization and/or second-order correction.
 Total Energy, E(TD-HF/TD-KS) =  -725.272023280
 Copying the excited state density for this state as the 1-particle RhoCI density.

 Excited State   2:      Singlet-A      4.7510 eV  260.96 nm  f=0.1845  <S**2>=0.000
      58 -> 62         0.19535
      58 -> 63        -0.12439
      59 -> 61         0.64623

 Excited State   3:      Singlet-A      4.9328 eV  251.35 nm  f=0.0031  <S**2>=0.000
      58 -> 60         0.69832

 Excited State   4:      Singlet-A      5.0210 eV  246.93 nm  f=0.0375  <S**2>=0.000
      57 -> 61        -0.15289
      58 -> 61        -0.23883
      59 -> 62         0.62330

 Excited State   5:      Singlet-A      5.1615 eV  240.21 nm  f=0.0876  <S**2>=0.000
      58 -> 61         0.60645
      58 -> 62        -0.10991
      58 -> 63        -0.10923
      59 -> 62         0.24609
      59 -> 63         0.18212

 Excited State   6:      Singlet-A      5.2247 eV  237.30 nm  f=0.1827  <S**2>=0.000
      57 -> 61         0.24435
      57 -> 62         0.11218
      57 -> 63         0.10036
      58 -> 62         0.55982
      59 -> 61        -0.20072
      59 -> 63         0.21707

 Excited State   7:      Singlet-A      5.3258 eV  232.80 nm  f=0.0164  <S**2>=0.000
      56 -> 61         0.14918
      56 -> 62        -0.12955
      57 -> 60         0.63848
      57 -> 61        -0.12400

 Excited State   8:      Singlet-A      5.5488 eV  223.44 nm  f=0.0026  <S**2>=0.000
      55 -> 60        -0.11689
      55 -> 61        -0.24601
      56 -> 61         0.15453
      57 -> 61         0.51379
      58 -> 62        -0.21115
      58 -> 63        -0.15868
      59 -> 62         0.11215
      59 -> 63        -0.13369

 Excited State   9:      Singlet-A      5.7992 eV  213.79 nm  f=0.0568  <S**2>=0.000
      55 -> 61         0.39860
      55 -> 62         0.16626
      56 -> 60        -0.18805
      56 -> 61        -0.23845
      56 -> 62        -0.11176
      57 -> 61         0.26694
      57 -> 62        -0.28644
      59 -> 63        -0.17932

 Excited State  10:      Singlet-A      5.8804 eV  210.84 nm  f=0.0941  <S**2>=0.000
      55 -> 60         0.15199
      55 -> 61         0.24301
      56 -> 61        -0.18193
      57 -> 62         0.53854
      58 -> 62        -0.14914
      58 -> 63        -0.18448
      59 -> 63         0.11867

 The electronic state is 1-A.
 Alpha  occ. eigenvalues --  -19.19023 -14.39374 -14.31196 -10.26174 -10.25162
 Alpha  occ. eigenvalues --  -10.24651 -10.24056 -10.21895 -10.20840 -10.20779
 Alpha  occ. eigenvalues --  -10.20463 -10.20193 -10.20078 -10.19004 -10.18464
 Alpha  occ. eigenvalues --  -10.18162 -10.18027  -1.07644  -1.01713  -0.90213
 Alpha  occ. eigenvalues --   -0.85391  -0.83627  -0.76997  -0.76479  -0.73605
 Alpha  occ. eigenvalues --   -0.72982  -0.70844  -0.63692  -0.62810  -0.62045
 Alpha  occ. eigenvalues --   -0.59183  -0.57643  -0.54863  -0.53184  -0.50515
 Alpha  occ. eigenvalues --   -0.49122  -0.47953  -0.47730  -0.46358  -0.44697
 Alpha  occ. eigenvalues --   -0.44376  -0.43934  -0.43225  -0.42002  -0.41022
 Alpha  occ. eigenvalues --   -0.40451  -0.39109  -0.37675  -0.36119  -0.34959
 Alpha  occ. eigenvalues --   -0.34459  -0.33938  -0.32836  -0.29784  -0.26821
 Alpha  occ. eigenvalues --   -0.26768  -0.24002  -0.22213  -0.21108
 Alpha virt. eigenvalues --   -0.01893  -0.01438  -0.00509   0.03003   0.05865
 Alpha virt. eigenvalues --    0.08157   0.09731   0.10639   0.12303   0.12915
 Alpha virt. eigenvalues --    0.14286   0.14424   0.14728   0.15455   0.15817

 Mulliken atomic charges:
              1
     1  C   -0.209581
     2  O   -0.488377
     3  C    0.387137
     4  C   -0.245624
     5  C   -0.233416
     6  C    0.259289
     7  C   -0.192038
     8  C   -0.247492
     9  N   -0.558359
    10  C    0.229740
    11  N   -0.469371
    12  C    0.218228
    13  C    0.331288
    14  C   -0.115010
    15  C   -0.150543
    16  C   -0.122849
    17  C   -0.151399
    18  H    0.162213
    19  H    0.152228
    20  H    0.154217
    21  H    0.100900
    22  H    0.095121
    23  H    0.102223
    24  H    0.104515
    25  H    0.200360
    26  H    0.196598
    27  H    0.157544
    28  H    0.159071
    29  H    0.173385
 Sum of Mulliken atomic charges =  -0.00000

 Dipole moment (field-independent basis, Debye):
    X=             -4.4565    Y=              3.2161    Z=             -0.2669  Tot=              5.5023
 Quadrupole moment (field-independent basis, Debye-Ang):
   XX=            -82.0480   YY=            -91.2800   ZZ=           -100.9106
   XY=             -2.2240   XZ=             -5.5037   YZ=             -0.2148

 Summary of Natural Population Analysis:

                                       Natural Population
                Natural  -----------------------------------------------
    Atom  No    Charge         Core      Valence    Rydberg      Total
 -----------------------------------------------------------------------
      C    1   -0.31619      1.99943     4.30304    0.01372     6.31619
      O    2   -0.48781      1.99974     6.47638    0.01169     8.48781
      C    3    0.35947      1.99879     3.61856    0.02319     5.64053
      C    4   -0.39086      1.99904     4.37470    0.01713     6.39086
      C    5   -0.36626      1.99906     4.34668    0.02052     6.36626
      C    6    0.10330      1.99891     3.87836    0.01943     5.89670
      C    7   -0.30241      1.99905     4.28634    0.01703     6.30241
      C    8   -0.39521      1.99905     4.37512    0.02103     6.39521
      N    9   -0.28017      1.99926     5.26813    0.01277     7.28017
      C   10    0.23805      1.99936     3.73611    0.02647     5.76195
      N   11   -0.42531      1.99947     5.40429    0.02155     7.42531
      C   12    0.09612      1.99898     3.88314    0.02177     5.90388
      C   13    0.12570      1.99894     3.85822    0.01714     5.87430
      C   14   -0.15681      1.99901     4.14476    0.01304     6.15681
      C   15   -0.24428      1.99915     4.23114    0.01399     6.24428
      C   16   -0.20258      1.99913     4.18992    0.01353     6.20258
      C   17   -0.16209      1.99902     4.14937    0.01371     6.16209
      H   18    0.22281      0.00000     0.77662    0.00057     0.77719
      H   19    0.20448      0.00000     0.79312    0.00241     0.79552
      H   20    0.20563      0.00000     0.79202    0.00236     0.79437
      H   21    0.22337      0.00000     0.77582    0.00080     0.77663
      H   22    0.21850      0.00000     0.78081    0.00068     0.78150
      H   23    0.22224      0.00000     0.77698    0.00078     0.77776
      H   24    0.23225      0.00000     0.76669    0.00107     0.76775
      H   25    0.24924      0.00000     0.74971    0.00105     0.75076
      H   26    0.26994      0.00000     0.72817    0.00189     0.73006
      H   27    0.25148      0.00000     0.74792    0.00060     0.74852
      H   28    0.24944      0.00000     0.74993    0.00063     0.75056
      H   29    0.25796      0.00000     0.74097    0.00107     0.74204
 =======================================================================
   * Total *   -0.00000     33.98540    83.70301    0.31159   118.00000

 Normal termination of Gaussian 09 at Mon Oct  4 08:56:51 2021.
