 Gaussian 09, Revision A.02,

 -----------------------------------
 #p opt b3lyp/6-31G* scf=(xqc,tight)
 -----------------------------------

 -----------------------------------
 COc1ccc(cc1)Oc1nnnn1c1ccccc1_conf_0
 -----------------------------------
 Symbolic Z-matrix:
 Charge =  0 Multiplicity = 1

 SCF Done:  E(RB3LYP) =  -910.082785499     A.U. after   16 cycles
 SCF Done:  E(RB3LYP) =  -910.088262165     A.U. after   12 cycles
 SCF Done:  E(RB3LYP) =  -910.089562358     A.U. after   14 cycles
 SCF Done:  E(RB3LYP) =  -910.090026599     A.U. after   16 cycles
 SCF Done:  E(RB3LYP) =  -910.090328616     A.U. after   12 cycles
 SCF Done:  E(RB3LYP) =  -910.090612143     A.U. after   12 cycles
 SCF Done:  E(RB3LYP) =  -910.090790875     A.U. after   11 cycles
 SCF Done:  E(RB3LYP) =  -910.090913580     A.U. after   12 cycles
 SCF Done:  E(RB3LYP) =  -910.090997365     A.U. after   12 cycles
 SCF Done:  E(RB3LYP) =  -910.091121503     A.U. after   12 cycles
 SCF Done:  E(RB3LYP) =  -910.091691145     A.U. after   12 cycles
 SCF Done:  E(RB3LYP) =  -910.091696860     A.U. after   12 cycles
 SCF Done:  E(RB3LYP) =  -910.091704167     A.U. after   11 cycles
 SCF Done:  E(RB3LYP) =  -910.091716077     A.U. after   11 cycles
 SCF Done:  E(RB3LYP) =  -910.091717188     A.U. after    9 cycles
 SCF Done:  E(RB3LYP) =  -910.091717332     A.U. after    8 cycles
 SCF Done:  E(RB3LYP) =  -910.091717268     A.U. after    8 cycles
 SCF Done:  E(RB3LYP) =  -910.091717257     A.U. after    7 cycles
 Optimization completed.
    -- Stationary point found.
 Normal termination of Gaussian 09 at Fri Oct  1 04:04:32 2021.

 ----------------------------------------------------------------------
 #p freq b3lyp/6-31G* volume NMR pop=NPA density=current Geom=AllCheck
 Guess=Read
 ----------------------------------------------------------------------

 COc1ccc(cc1)Oc1nnnn1c1ccccc1_conf_0
 -----------------------------------
 Redundant internal coordinates taken from checkpoint file:
 C14H12N4O2_0200_conf_0.chk
 Charge =  0 Multiplicity = 1

 SCF Done:  E(RB3LYP) =  -910.091717257     A.U. after    1 cycles

  1  C    Isotropic =   137.2684   Anisotropy =    65.4114

  2  O    Isotropic =   238.2929   Anisotropy =    80.0535

  3  C    Isotropic =    41.8241   Anisotropy =   125.2128

  4  C    Isotropic =    86.5021   Anisotropy =   141.6421

  5  C    Isotropic =    77.2823   Anisotropy =   135.3242

  6  C    Isotropic =    48.9519   Anisotropy =    87.8505

  7  C    Isotropic =    75.6032   Anisotropy =   153.7529

  8  C    Isotropic =    77.0235   Anisotropy =   135.9559

  9  O    Isotropic =   200.0184   Anisotropy =   130.2378

 10  C    Isotropic =    39.2677   Anisotropy =    66.3262

 11  N    Isotropic =   -34.7559   Anisotropy =   277.3221

 12  N    Isotropic =  -135.6103   Anisotropy =   409.2619

 13  N    Isotropic =   -99.0248   Anisotropy =   294.9526

 14  N    Isotropic =    33.5471   Anisotropy =   121.8647

 15  C    Isotropic =    60.8250   Anisotropy =   121.7527

 16  C    Isotropic =    72.3853   Anisotropy =   153.9274

 17  C    Isotropic =    66.6589   Anisotropy =   167.8835

 18  C    Isotropic =    68.6231   Anisotropy =   168.8957

 19  C    Isotropic =    67.6387   Anisotropy =   166.5106

 20  C    Isotropic =    75.5112   Anisotropy =   156.2106

 21  H    Isotropic =    28.2442   Anisotropy =     8.1884

 22  H    Isotropic =    28.6334   Anisotropy =     8.0206

 23  H    Isotropic =    28.6523   Anisotropy =     7.9734

 24  H    Isotropic =    25.7739   Anisotropy =     7.4565

 25  H    Isotropic =    25.3334   Anisotropy =     7.4941

 26  H    Isotropic =    23.2613   Anisotropy =     9.0291

 27  H    Isotropic =    25.3081   Anisotropy =     5.9152

 28  H    Isotropic =    24.3173   Anisotropy =     7.4887

 29  H    Isotropic =    24.7397   Anisotropy =     4.5419

 30  H    Isotropic =    24.8750   Anisotropy =     4.2167

 31  H    Isotropic =    24.7729   Anisotropy =     5.2035

 32  H    Isotropic =    24.5576   Anisotropy =     8.7130

  Exact polarizability: 258.308   8.158 190.491 -15.282   4.435  83.146
 Approx polarizability: 353.346  18.372 331.303 -31.526   9.791 136.172

                     1                      2                      3
                     A                      A                      A
 Frequencies --    10.1261                21.7168                41.1230
 Red. masses --     3.9460                 5.1902                 5.1173
 Frc consts  --     0.0002                 0.0014                 0.0051
 IR Inten    --     0.0398                 0.0300                 0.6697

                     4                      5                      6
                     A                      A                      A
 Frequencies --    58.8174                83.8174               106.1981
 Red. masses --     5.2160                 3.5591                 7.0375
 Frc consts  --     0.0106                 0.0147                 0.0468
 IR Inten    --     0.6856                 3.1619                 0.8589

                     7                      8                      9
                     A                      A                      A
 Frequencies --   137.1530               163.4554               212.1170
 Red. masses --     6.3014                 5.0610                 5.0718
 Frc consts  --     0.0698                 0.0797                 0.1345
 IR Inten    --     0.7147                 2.3925                 0.9640

                    10                     11                     12
                     A                      A                      A
 Frequencies --   222.2569               249.1405               279.4090
 Red. masses --     4.4452                 1.1927                 6.3706
 Frc consts  --     0.1294                 0.0436                 0.2930
 IR Inten    --     6.0794                 0.0793                 1.4728

                    13                     14                     15
                     A                      A                      A
 Frequencies --   329.1291               345.0681               375.9859
 Red. masses --     5.5900                 6.9905                 6.6243
 Frc consts  --     0.3568                 0.4904                 0.5517
 IR Inten    --     0.7841                 2.1774                 1.8125

                    16                     17                     18
                     A                      A                      A
 Frequencies --   379.9089               417.9439               429.0175
 Red. masses --     6.6105                 3.0526                 3.3382
 Frc consts  --     0.5621                 0.3142                 0.3620
 IR Inten    --     0.5018                 0.4575                 0.0562

                    19                     20                     21
                     A                      A                      A
 Frequencies --   433.5223               497.5862               525.8390
 Red. masses --     6.2243                 4.3770                 2.5124
 Frc consts  --     0.6892                 0.6385                 0.4093
 IR Inten    --     0.6381                 2.1770                 5.8230

                    22                     23                     24
                     A                      A                      A
 Frequencies --   534.2242               601.2290               630.6095
 Red. masses --     3.8792                 6.2005                 6.4786
 Frc consts  --     0.6523                 1.3206                 1.5179
 IR Inten    --     9.0640                17.1506                 0.3250

                    25                     26                     27
                     A                      A                      A
 Frequencies --   642.7448               689.6262               697.2634
 Red. masses --     7.2272                 6.8940                 4.1039
 Frc consts  --     1.7591                 1.9317                 1.1756
 IR Inten    --     2.0190                23.8366                 5.8226

                    28                     29                     30
                     A                      A                      A
 Frequencies --   705.3049               707.4167               717.8982
 Red. masses --     4.3167                 3.4341                12.1267
 Frc consts  --     1.2652                 1.0125                 3.6823
 IR Inten    --     0.6967                12.9753                 5.2690

                    31                     32                     33
                     A                      A                      A
 Frequencies --   747.3160               775.5833               809.9653
 Red. masses --     7.0787                 1.6591                 5.2350
 Frc consts  --     2.3292                 0.5880                 2.0235
 IR Inten    --     4.9783                45.3749                 7.4792

                    34                     35                     36
                     A                      A                      A
 Frequencies --   816.7528               851.1916               852.7837
 Red. masses --     1.3562                 1.2477                 1.5877
 Frc consts  --     0.5330                 0.5326                 0.6803
 IR Inten    --     7.7198                 0.4121                54.5652

                    37                     38                     39
                     A                      A                      A
 Frequencies --   885.6518               928.6804               932.8080
 Red. masses --     8.1588                 1.3881                 1.2932
 Frc consts  --     3.7705                 0.7054                 0.6630
 IR Inten    --    14.7410                 5.0534                 0.1847

                    40                     41                     42
                     A                      A                      A
 Frequencies --   971.1419               971.6186               998.8918
 Red. masses --     1.2812                 1.3409                 1.2605
 Frc consts  --     0.7119                 0.7458                 0.7410
 IR Inten    --     1.1315                 0.3067                 0.3058

                    43                     44                     45
                     A                      A                      A
 Frequencies --  1008.9831              1020.7795              1032.1230
 Red. masses --    10.9902                 6.3253                 2.8035
 Frc consts  --     6.5921                 3.8833                 1.7596
 IR Inten    --     5.4659                 0.7539                 4.8510

                    46                     47                     48
                     A                      A                      A
 Frequencies --  1044.7271              1075.0405              1079.7050
 Red. masses --     4.9651                 2.3859                 5.5674
 Frc consts  --     3.1929                 1.6246                 3.8239
 IR Inten    --     9.3543                 1.1253                75.4748

                    49                     50                     51
                     A                      A                      A
 Frequencies --  1099.9033              1124.3819              1141.7059
 Red. masses --     3.0505                 4.0027                 3.5851
 Frc consts  --     2.1743                 2.9815                 2.7533
 IR Inten    --    54.4488                20.8909                26.7614

                    52                     53                     54
                     A                      A                      A
 Frequencies --  1146.1241              1185.2993              1195.4069
 Red. masses --     1.2878                 1.2699                 1.1046
 Frc consts  --     0.9967                 1.0512                 0.9300
 IR Inten    --    19.5925                 0.7872                 0.0698

                    55                     56                     57
                     A                      A                      A
 Frequencies --  1198.6297              1213.0598              1217.8387
 Red. masses --     1.2631                 1.1416                 1.3921
 Frc consts  --     1.0692                 0.9898                 1.2165
 IR Inten    --     2.6902                 4.1264                22.8678

                    58                     59                     60
                     A                      A                      A
 Frequencies --  1227.0348              1301.1755              1327.5744
 Red. masses --     2.9569                 5.4830                 7.1058
 Frc consts  --     2.6230                 5.4694                 7.3788
 IR Inten    --   300.3035               262.3058                 7.6239

                    61                     62                     63
                     A                      A                      A
 Frequencies --  1343.2277              1344.5127              1362.1898
 Red. masses --     1.3294                 3.5469                 8.1842
 Frc consts  --     1.4132                 3.7777                 8.9475
 IR Inten    --     6.6400                 8.0183                39.4600

                    64                     65                     66
                     A                      A                      A
 Frequencies --  1368.5323              1378.7722              1466.0561
 Red. masses --     2.1875                 4.5303                 3.7478
 Frc consts  --     2.4138                 5.0741                 4.7461
 IR Inten    --     3.1827                32.7152                39.0924

                    67                     68                     69
                     A                      A                      A
 Frequencies --  1484.8128              1499.8683              1506.7006
 Red. masses --     4.5908                 1.2264                 2.4479
 Frc consts  --     5.9632                 1.6255                 3.2741
 IR Inten    --   163.4474                24.2444                35.0293

                    70                     71                     72
                     A                      A                      A
 Frequencies --  1521.1137              1533.6548              1550.9716
 Red. masses --     1.0481                 1.0806                 2.4985
 Frc consts  --     1.4288                 1.4975                 3.5411
 IR Inten    --     5.8826               106.6587               174.7382

                    73                     74                     75
                     A                      A                      A
 Frequencies --  1558.5507              1594.2022              1643.2589
 Red. masses --     2.3226                 9.9893                 6.7447
 Frc consts  --     3.3240                14.9579                10.7307
 IR Inten    --   302.3267               511.7877                 0.1491

                    76                     77                     78
                     A                      A                      A
 Frequencies --  1652.3537              1661.5446              1675.3712
 Red. masses --     6.2968                 5.5542                 6.0995
 Frc consts  --    10.1292                 9.0343                10.0871
 IR Inten    --    25.3274                14.9728                19.8395

                    79                     80                     81
                     A                      A                      A
 Frequencies --  3024.8791              3083.6757              3160.1863
 Red. masses --     1.0350                 1.1068                 1.0995
 Frc consts  --     5.5795                 6.2007                 6.4694
 IR Inten    --    57.8502                43.8535                26.6073

                    82                     83                     84
                     A                      A                      A
 Frequencies --  3192.8330              3203.3965              3213.5611
 Red. masses --     1.0859                 1.0904                 1.0890
 Frc consts  --     6.5225                 6.5929                 6.6262
 IR Inten    --     0.0346                14.0788                10.6258

                    85                     86                     87
                     A                      A                      A
 Frequencies --  3214.9508              3219.2321              3233.7881
 Red. masses --     1.0956                 1.0907                 1.0927
 Frc consts  --     6.6720                 6.6600                 6.7323
 IR Inten    --    23.7706                 2.8632                 7.2438

                    88                     89                     90
                     A                      A                      A
 Frequencies --  3239.0161              3242.5992              3265.3084
 Red. masses --     1.0935                 1.0931                 1.0929
 Frc consts  --     6.7594                 6.7717                 6.8658
 IR Inten    --     0.5608                 1.7042                10.2434

 - Thermochemistry -
 -------------------
 Temperature   298.150 Kelvin.  Pressure   1.00000 Atm.
 Atom     1 has atomic number  6 and mass  12.00000

 Molecular mass:   268.09603 amu.
 Principal axes and moments of inertia in atomic units:
                           1         2         3
     Eigenvalues --  2411.11281********************
           X            1.00000   0.00002  -0.00017
           Y           -0.00002   1.00000   0.00059
           Z            0.00017  -0.00059   1.00000
 This molecule is an asymmetric top.
 Rotational symmetry number  1.
 Warning -- assumption of classical behavior for rotation
           may cause significant error
 Rotational temperatures (Kelvin)      0.03592     0.00763     0.00641
 Rotational constants (GHZ):           0.74851     0.15896     0.13362
 Zero-point vibrational energy     645185.8 (Joules/Mol)
                                  154.20311 (Kcal/Mol)
 Warning -- explicit consideration of  23 degrees of freedom as
           vibrations may cause significant error
 Vibrational temperatures:     14.57    31.25    59.17    84.63   120.59
          (Kelvin)            152.80   197.33   235.18   305.19   319.78
                              358.46   402.01   473.54   496.48   540.96
                              546.60   601.33   617.26   623.74   715.91
                              756.56   768.63   865.03   907.31   924.77
                              992.22  1003.21  1014.78  1017.81  1032.89
                             1075.22  1115.89  1165.36  1175.12  1224.67
                             1226.96  1274.25  1336.16  1342.10  1397.25
                             1397.94  1437.18  1451.70  1468.67  1484.99
                             1503.13  1546.74  1553.45  1582.51  1617.73
                             1642.66  1649.01  1705.38  1719.92  1724.56
                             1745.32  1752.20  1765.43  1872.10  1910.08
                             1932.60  1934.45  1959.88  1969.01  1983.74
                             2109.33  2136.31  2157.97  2167.80  2188.54
                             2206.58  2231.50  2242.40  2293.70  2364.28
                             2377.37  2390.59  2410.48  4352.12  4436.72
                             4546.80  4593.77  4608.97  4623.59  4625.59
                             4631.75  4652.69  4660.22  4665.37  4698.04

 Zero-point correction=                           0.245738 (Hartree/Particle)
 Thermal correction to Energy=                    0.261955
 Thermal correction to Enthalpy=                  0.262899
 Thermal correction to Gibbs Free Energy=         0.198434
 Sum of electronic and zero-point Energies=           -909.845979
 Sum of electronic and thermal Energies=              -909.829762
 Sum of electronic and thermal Enthalpies=            -909.828818
 Sum of electronic and thermal Free Energies=         -909.893283

                     E (Thermal)             CV                S
                      KCal/Mol        Cal/Mol-Kelvin    Cal/Mol-Kelvin
 Total                  164.379             62.233            135.678
 Electronic               0.000              0.000              0.000
 Translational            0.889              2.981             42.658
 Rotational               0.889              2.981             34.269
 Vibrational            162.602             56.272             58.752
 Vibration     1          0.593              1.987              7.986
 Vibration     2          0.593              1.985              6.471
 Vibration     3          0.594              1.981              5.204
 Vibration     4          0.596              1.974              4.496
 Vibration     5          0.601              1.960              3.799
 Vibration     6          0.605              1.944              3.337
 Vibration     7          0.614              1.916              2.843
 Vibration     8          0.623              1.887              2.509
 Vibration     9          0.643              1.822              2.025
 Vibration    10          0.648              1.807              1.941
 Vibration    11          0.662              1.764              1.737
 Vibration    12          0.680              1.712              1.537
 Vibration    13          0.712              1.617              1.264
 Vibration    14          0.723              1.585              1.189
 Vibration    15          0.747              1.521              1.055
 Vibration    16          0.750              1.513              1.040
 Vibration    17          0.781              1.431              0.899
 Vibration    18          0.790              1.407              0.862
 Vibration    19          0.794              1.397              0.847
 Vibration    20          0.853              1.255              0.664
 Vibration    21          0.881              1.193              0.597
 Vibration    22          0.889              1.174              0.578
 Vibration    23          0.959              1.029              0.448

 Optimization completed.
    -- Stationary point found.
 Normal termination of Gaussian 09 at Fri Oct  1 04:55:01 2021.
 Gaussian 09:  AM64L-G09RevA.02 11-Jun-2009

 ----------------------------------------------------------------------
 #p TD(NStates=10, Root=1) b3lyp/6-31G* volume pop=NPA density=current
 Geom=AllCheck Guess=Read
 ----------------------------------------------------------------------

 COc1ccc(cc1)Oc1nnnn1c1ccccc1_conf_0
 -----------------------------------
 Redundant internal coordinates taken from checkpoint file:
 C14H12N4O2_0200_conf_0.chk
 Charge =  0 Multiplicity = 1

                         Standard orientation:
 ---------------------------------------------------------------------
 Center     Atomic      Atomic             Coordinates (Angstroms)
 Number     Number       Type             X           Y           Z
 ---------------------------------------------------------------------
      1          6           0        6.173630   -1.446971    0.293937
      2          8           0        5.528401   -0.207179    0.051560
      3          6           0        4.164164   -0.183696    0.026421
      4          6           0        3.343321   -1.302225    0.218087
      5          6           0        1.956677   -1.156557    0.170914
      6          6           0        1.394250    0.092999   -0.065198
      7          6           0        2.196824    1.218929   -0.261226
      8          6           0        3.578969    1.067395   -0.210352
      9          8           0       -0.010433    0.076966   -0.124007
     10          6           0       -0.779359    1.160708   -0.081311
     11          7           0       -0.465571    2.439927   -0.051505
     12          7           0       -1.656381    3.102726    0.005184
     13          7           0       -2.653637    2.291535    0.005568
     14          7           0       -2.133289    1.024722   -0.052257
     15          6           0       -2.974713   -0.124973   -0.030223
     16          6           0       -4.175310   -0.059773    0.683901
     17          6           0       -5.019337   -1.167979    0.697850
     18          6           0       -4.666418   -2.335187    0.017025
     19          6           0       -3.464995   -2.387372   -0.690932
     20          6           0       -2.615038   -1.282155   -0.726798
     21          1           0        7.244297   -1.236492    0.271710
     22          1           0        5.933717   -2.185897   -0.482337
     23          1           0        5.905429   -1.856518    1.276968
     24          1           0        3.763815   -2.283274    0.405032
     25          1           0        1.305930   -2.012357    0.319496
     26          1           0        1.752322    2.189736   -0.432714
     27          1           0        4.229249    1.924170   -0.354567
     28          1           0       -4.435248    0.852290    1.208626
     29          1           0       -5.953709   -1.118567    1.249468
     30          1           0       -5.325663   -3.198212    0.036396
     31          1           0       -3.187505   -3.288532   -1.230247
     32          1           0       -1.690224   -1.315872   -1.289757
 ---------------------------------------------------------------------

 SCF Done:  E(RB3LYP) =  -910.091717257     A.U. after    1 cycles

 Excitation energies and oscillator strengths:

 Excited State   1:      Singlet-A      4.3671 eV  283.90 nm  f=0.1408  <S**2>=0.000
      70 -> 71         0.70452
 This state for optimization and/or second-order correction.
 Total Energy, E(TD-HF/TD-KS) =  -909.931228346
 Copying the excited state density for this state as the 1-particle RhoCI density.

 Excited State   2:      Singlet-A      4.9182 eV  252.09 nm  f=0.0272  <S**2>=0.000
      68 -> 71         0.11823
      68 -> 74        -0.23232
      70 -> 73         0.64388

 Excited State   3:      Singlet-A      4.9409 eV  250.93 nm  f=0.0005  <S**2>=0.000
      67 -> 71        -0.16065
      69 -> 72        -0.12101
      70 -> 72         0.67357

 Excited State   4:      Singlet-A      5.2623 eV  235.61 nm  f=0.0007  <S**2>=0.000
      67 -> 71         0.49662
      69 -> 72         0.44644
      70 -> 72         0.20172

 Excited State   5:      Singlet-A      5.3718 eV  230.81 nm  f=0.3192  <S**2>=0.000
      65 -> 71         0.15656
      67 -> 72        -0.10181
      69 -> 71         0.62728
      70 -> 74         0.20654

 Excited State   6:      Singlet-A      5.5825 eV  222.10 nm  f=0.0271  <S**2>=0.000
      65 -> 71         0.20371
      68 -> 71         0.61056
      70 -> 74        -0.21337

 Excited State   7:      Singlet-A      5.6305 eV  220.20 nm  f=0.0702  <S**2>=0.000
      65 -> 71         0.26768
      66 -> 71        -0.14731
      68 -> 71        -0.17822
      68 -> 73        -0.10035
      70 -> 74        -0.25263
      70 -> 75         0.52384

 Excited State   8:      Singlet-A      5.6714 eV  218.61 nm  f=0.0541  <S**2>=0.000
      65 -> 71        -0.37559
      66 -> 71         0.10697
      68 -> 71         0.25525
      70 -> 74         0.23724
      70 -> 75         0.45392

 Excited State   9:      Singlet-A      5.7052 eV  217.32 nm  f=0.1406  <S**2>=0.000
      65 -> 71         0.36972
      66 -> 71        -0.11181
      67 -> 72         0.10322
      68 -> 73         0.17288
      69 -> 71        -0.24513
      70 -> 74         0.47313

 Excited State  10:      Singlet-A      5.8285 eV  212.72 nm  f=0.0072  <S**2>=0.000
      64 -> 71         0.65124
      64 -> 75        -0.17612
      68 -> 71         0.10451

 The electronic state is 1-A.
 Alpha  occ. eigenvalues --  -19.23207 -19.18458 -14.44065 -14.40141 -14.39153
 Alpha  occ. eigenvalues --  -14.35554 -10.33153 -10.26281 -10.25647 -10.25523
 Alpha  occ. eigenvalues --  -10.24769 -10.21154 -10.20893 -10.20889 -10.20784
 Alpha  occ. eigenvalues --  -10.20642 -10.20475 -10.20145 -10.19813 -10.19511
 Alpha  occ. eigenvalues --   -1.14959  -1.10919  -1.07077  -0.96206  -0.88988
 Alpha  occ. eigenvalues --   -0.86857  -0.85845  -0.77819  -0.76713  -0.76554
 Alpha  occ. eigenvalues --   -0.75883  -0.71802  -0.67699  -0.66862  -0.63979
 Alpha  occ. eigenvalues --   -0.62510  -0.61307  -0.59146  -0.56755  -0.55156
 Alpha  occ. eigenvalues --   -0.53574  -0.51565  -0.51125  -0.49676  -0.47516
 Alpha  occ. eigenvalues --   -0.46624  -0.46222  -0.45682  -0.44580  -0.44029
 Alpha  occ. eigenvalues --   -0.43872  -0.43317  -0.42245  -0.40357  -0.39091
 Alpha  occ. eigenvalues --   -0.38752  -0.38101  -0.37320  -0.36584  -0.36347
 Alpha  occ. eigenvalues --   -0.33566  -0.33356  -0.32650  -0.29448  -0.28500
 Alpha  occ. eigenvalues --   -0.28079  -0.26842  -0.26250  -0.25419  -0.21796
 Alpha virt. eigenvalues --   -0.03903  -0.01820  -0.01315   0.00449   0.00902
 Alpha virt. eigenvalues --    0.05114   0.07731   0.07956   0.10093   0.10699
 Alpha virt. eigenvalues --    0.12780   0.13177   0.14141   0.14588   0.14733

 Mulliken atomic charges:
              1
     1  C   -0.254095
     2  O   -0.437070
     3  C    0.407487
     4  C   -0.173829
     5  C   -0.164849
     6  C    0.396642
     7  C   -0.126164
     8  C   -0.160625
     9  O   -0.509832
    10  C    0.738361
    11  N   -0.430676
    12  N   -0.137757
    13  N   -0.107402
    14  N   -0.449293
    15  C    0.254103
    16  C   -0.168925
    17  C   -0.144101
    18  C   -0.168691
    19  C   -0.147891
    20  C   -0.183821
    21  H    0.212146
    22  H    0.191949
    23  H    0.192755
    24  H    0.186939
    25  H    0.225248
    26  H    0.262973
    27  H    0.205043
    28  H    0.131257
    29  H    0.100787
    30  H    0.085386
    31  H    0.088767
    32  H    0.085177
 Sum of Mulliken atomic charges =  -0.00000

 Dipole moment (field-independent basis, Debye):
    X=             20.1931    Y=             -6.4857    Z=              0.5052  Tot=             21.2151
 Quadrupole moment (field-independent basis, Debye-Ang):
   XX=            -84.9070   YY=           -127.0445   ZZ=           -114.9663
   XY=             -9.8527   XZ=              0.0361   YZ=             -1.4181

 Summary of Natural Population Analysis:

                                       Natural Population
                Natural  -----------------------------------------------
    Atom  No    Charge         Core      Valence    Rydberg      Total
 -----------------------------------------------------------------------
      C    1   -0.33517      1.99941     4.32127    0.01449     6.33517
      O    2   -0.42004      1.99975     6.40872    0.01157     8.42004
      C    3    0.37915      1.99879     3.60107    0.02099     5.62085
      C    4   -0.27766      1.99905     4.26657    0.01203     6.27766
      C    5   -0.20336      1.99904     4.18932    0.01500     6.20336
      C    6    0.42613      1.99868     3.55501    0.02019     5.57387
      C    7   -0.25667      1.99902     4.24314    0.01451     6.25667
      C    8   -0.19909      1.99907     4.18560    0.01443     6.19909
      O    9   -0.45818      1.99966     6.44683    0.01169     8.45818
      C   10    0.58801      1.99909     3.38213    0.03077     5.41199
      N   11   -0.41252      1.99938     5.38581    0.02733     7.41252
      N   12   -0.12090      1.99971     5.08778    0.03341     7.12090
      N   13   -0.12450      1.99965     5.09302    0.03183     7.12450
      N   14   -0.21764      1.99927     5.19913    0.01924     7.21764
      C   15    0.03840      1.99892     3.94172    0.02096     5.96160
      C   16   -0.27229      1.99905     4.25848    0.01476     6.27229
      C   17   -0.23237      1.99911     4.21890    0.01436     6.23237
      C   18   -0.33571      1.99910     4.32031    0.01630     6.33571
      C   19   -0.24158      1.99911     4.22790    0.01457     6.24158
      C   20   -0.28976      1.99904     4.27740    0.01332     6.28976
      H   21    0.25258      0.00000     0.74714    0.00028     0.74742
      H   22    0.22744      0.00000     0.77154    0.00102     0.77256
      H   23    0.22796      0.00000     0.77103    0.00101     0.77204
      H   24    0.26398      0.00000     0.73546    0.00057     0.73602
      H   25    0.28795      0.00000     0.71147    0.00058     0.71205
      H   26    0.31784      0.00000     0.68066    0.00150     0.68216
      H   27    0.27615      0.00000     0.72311    0.00074     0.72385
      H   28    0.24248      0.00000     0.75633    0.00119     0.75752
      H   29    0.22260      0.00000     0.77661    0.00080     0.77740
      H   30    0.21622      0.00000     0.78307    0.00071     0.78378
      H   31    0.21647      0.00000     0.78274    0.00079     0.78353
      H   32    0.21407      0.00000     0.78516    0.00076     0.78593
 =======================================================================
   * Total *   -0.00000     39.98389    99.63441    0.38170   140.00000

 Normal termination of Gaussian 09 at Fri Oct  1 06:49:38 2021.
