 Gaussian 09, Revision A.02,

 -----------------------------------
 #p opt b3lyp/6-31G* scf=(xqc,tight)
 -----------------------------------

 --------------------------------
 COc1ccc(cc1)C(c1ccccc1)Cl_conf_0
 --------------------------------
 Symbolic Z-matrix:
 Charge =  0 Multiplicity = 1

 SCF Done:  E(RB3LYP) =  -1076.72734670     A.U. after   14 cycles
 SCF Done:  E(RB3LYP) =  -1076.72972127     A.U. after   13 cycles
 SCF Done:  E(RB3LYP) =  -1076.73005778     A.U. after   12 cycles
 SCF Done:  E(RB3LYP) =  -1076.73022624     A.U. after   12 cycles
 SCF Done:  E(RB3LYP) =  -1076.73031901     A.U. after   15 cycles
 SCF Done:  E(RB3LYP) =  -1076.73037611     A.U. after   12 cycles
 SCF Done:  E(RB3LYP) =  -1076.73039933     A.U. after   11 cycles
 SCF Done:  E(RB3LYP) =  -1076.73040566     A.U. after   11 cycles
 SCF Done:  E(RB3LYP) =  -1076.73040704     A.U. after   10 cycles
 SCF Done:  E(RB3LYP) =  -1076.73040726     A.U. after    8 cycles
 Optimization completed.
    -- Stationary point found.
 Normal termination of Gaussian 09 at Wed Sep 29 01:39:18 2021.

 ----------------------------------------------------------------------
 #p freq b3lyp/6-31G* volume NMR pop=NPA density=current Geom=AllCheck
 Guess=Read
 ----------------------------------------------------------------------

 COc1ccc(cc1)C(c1ccccc1)Cl_conf_0
 --------------------------------
 Redundant internal coordinates taken from checkpoint file:
 C14H13ClO_79f2_conf_0.chk
 Charge =  0 Multiplicity = 1

 SCF Done:  E(RB3LYP) =  -1076.73040726     A.U. after    1 cycles

  1  C    Isotropic =   137.3236   Anisotropy =    65.4581

  2  O    Isotropic =   235.4025   Anisotropy =    82.9264

  3  C    Isotropic =    39.0179   Anisotropy =   127.6622

  4  C    Isotropic =    87.1031   Anisotropy =   141.2036

  5  C    Isotropic =    67.9020   Anisotropy =   146.2257

  6  C    Isotropic =    64.7451   Anisotropy =   158.4115

  7  C    Isotropic =    65.7478   Anisotropy =   167.5094

  8  C    Isotropic =    77.8617   Anisotropy =   135.7589

  9  C    Isotropic =   117.2074   Anisotropy =    28.6060

 10  C    Isotropic =    54.9266   Anisotropy =   175.2326

 11  C    Isotropic =    67.4082   Anisotropy =   172.2843

 12  C    Isotropic =    68.0467   Anisotropy =   165.1144

 13  C    Isotropic =    68.6701   Anisotropy =   166.5927

 14  C    Isotropic =    68.2875   Anisotropy =   163.7200

 15  C    Isotropic =    66.4986   Anisotropy =   150.0626

 16  Cl   Isotropic =   669.5135   Anisotropy =   568.8463

 17  H    Isotropic =    28.2843   Anisotropy =     8.2687

 18  H    Isotropic =    28.6403   Anisotropy =     8.2162

 19  H    Isotropic =    28.6685   Anisotropy =     7.9321

 20  H    Isotropic =    25.9078   Anisotropy =     7.2380

 21  H    Isotropic =    25.3812   Anisotropy =     8.3830

 22  H    Isotropic =    24.3591   Anisotropy =     9.3591

 23  H    Isotropic =    25.3534   Anisotropy =     5.7489

 24  H    Isotropic =    26.2991   Anisotropy =     5.9937

 25  H    Isotropic =    25.0866   Anisotropy =    11.6351

 26  H    Isotropic =    25.0734   Anisotropy =     5.8812

 27  H    Isotropic =    25.1106   Anisotropy =     3.8833

 28  H    Isotropic =    24.9994   Anisotropy =     4.5989

 29  H    Isotropic =    24.9449   Anisotropy =     8.0622

  Exact polarizability: 211.929   0.391 127.276  11.488   3.785 132.753
 Approx polarizability: 285.589   4.599 198.716  30.288   7.188 240.070

                     1                      2                      3
                     A                      A                      A
 Frequencies --    18.1394                32.1073                53.3025
 Red. masses --     4.0967                 3.7957                 4.5754
 Frc consts  --     0.0008                 0.0023                 0.0077
 IR Inten    --     0.1443                 0.2787                 0.3339

                     4                      5                      6
                     A                      A                      A
 Frequencies --    88.0898               112.3243               137.7327
 Red. masses --     4.0949                 5.7926                 7.4607
 Frc consts  --     0.0187                 0.0431                 0.0834
 IR Inten    --     1.0420                 3.9772                 0.8986

                     7                      8                      9
                     A                      A                      A
 Frequencies --   181.3128               213.3437               249.4165
 Red. masses --     4.0110                 4.3800                 1.5557
 Frc consts  --     0.0777                 0.1175                 0.0570
 IR Inten    --     0.3131                 4.2165                 0.1938

                    10                     11                     12
                     A                      A                      A
 Frequencies --   264.1585               274.5451               330.3311
 Red. masses --     2.5155                 4.8601                 5.0054
 Frc consts  --     0.1034                 0.2158                 0.3218
 IR Inten    --     0.6999                 2.3370                 5.6252

                    13                     14                     15
                     A                      A                      A
 Frequencies --   377.4778               414.9442               425.2189
 Red. masses --     6.1244                 2.9778                 3.1591
 Frc consts  --     0.5142                 0.3021                 0.3365
 IR Inten    --     1.2338                 0.2054                 0.9691

                    16                     17                     18
                     A                      A                      A
 Frequencies --   462.7564               504.6012               533.1599
 Red. masses --     4.6010                 3.8239                 3.0282
 Frc consts  --     0.5805                 0.5737                 0.5072
 IR Inten    --     0.9051                 3.4034                 1.4790

                    19                     20                     21
                     A                      A                      A
 Frequencies --   568.4762               620.1705               632.8634
 Red. masses --     4.9884                 4.2848                 6.3676
 Frc consts  --     0.9498                 0.9710                 1.5026
 IR Inten    --    33.7123                38.9285                 1.7785

                    22                     23                     24
                     A                      A                      A
 Frequencies --   642.1226               707.4976               718.5350
 Red. masses --     6.6247                 3.0568                 2.0570
 Frc consts  --     1.6094                 0.9015                 0.6257
 IR Inten    --    14.9402                 4.1195                97.0788

                    25                     26                     27
                     A                      A                      A
 Frequencies --   728.7490               773.0271               794.5336
 Red. masses --     4.2807                 4.1640                 2.3449
 Frc consts  --     1.3394                 1.4660                 0.8722
 IR Inten    --     2.3714                13.2330                12.9477

                    28                     29                     30
                     A                      A                      A
 Frequencies --   818.1066               830.0792               858.5480
 Red. masses --     2.2582                 1.6549                 1.3807
 Frc consts  --     0.8905                 0.6718                 0.5996
 IR Inten    --    25.8197                 6.3583                 4.8908

                    31                     32                     33
                     A                      A                      A
 Frequencies --   860.8880               878.6614               933.9578
 Red. masses --     1.7260                 4.2479                 1.4356
 Frc consts  --     0.7537                 1.9323                 0.7378
 IR Inten    --    16.8329                11.3074                 0.9318

                    34                     35                     36
                     A                      A                      A
 Frequencies --   941.2913               969.8398               972.9762
 Red. masses --     1.3281                 1.3421                 1.3071
 Frc consts  --     0.6933                 0.7438                 0.7290
 IR Inten    --     0.3771                 0.0620                 0.0899

                    37                     38                     39
                     A                      A                      A
 Frequencies --   998.3723              1018.7544              1031.0509
 Red. masses --     1.2576                 6.1607                 2.8083
 Frc consts  --     0.7385                 3.7672                 1.7589
 IR Inten    --     0.0521                 1.2079                 0.1622

                    40                     41                     42
                     A                      A                      A
 Frequencies --  1059.5227              1078.3903              1115.6434
 Red. masses --     2.2694                 6.1235                 1.6022
 Frc consts  --     1.5010                 4.1957                 1.1749
 IR Inten    --     2.5387                55.1275                 2.7207

                    43                     44                     45
                     A                      A                      A
 Frequencies --  1146.6565              1185.5905              1193.9814
 Red. masses --     1.3276                 1.2706                 1.1077
 Frc consts  --     1.0285                 1.0523                 0.9304
 IR Inten    --     9.9152                 0.7240                 0.3105

                    46                     47                     48
                     A                      A                      A
 Frequencies --  1201.6906              1211.9432              1217.1415
 Red. masses --     2.9332                 1.1693                 1.2165
 Frc consts  --     2.4956                 1.0119                 1.0618
 IR Inten    --     9.6152                46.6499                 0.8080

                    49                     50                     51
                     A                      A                      A
 Frequencies --  1218.8964              1230.1426              1253.4983
 Red. masses --     1.3388                 1.6957                 1.3121
 Frc consts  --     1.1720                 1.5119                 1.2147
 IR Inten    --     8.3340                 5.8078                30.9944

                    52                     53                     54
                     A                      A                      A
 Frequencies --  1296.0686              1307.4201              1349.3158
 Red. masses --     3.8107                 2.4203                 1.5250
 Frc consts  --     3.7715                 2.4376                 1.6358
 IR Inten    --   179.3472               125.8652                13.1151

                    55                     56                     57
                     A                      A                      A
 Frequencies --  1358.3513              1368.1099              1395.1758
 Red. masses --     5.2721                 1.9525                 1.6901
 Frc consts  --     5.7313                 2.1532                 1.9382
 IR Inten    --    31.0572                 7.1017                20.6053

                    58                     59                     60
                     A                      A                      A
 Frequencies --  1468.9009              1500.3145              1503.2779
 Red. masses --     2.8562                 1.2122                 2.1436
 Frc consts  --     3.6310                 1.6077                 2.8542
 IR Inten    --     3.1575                23.0956                 7.0501

                    61                     62                     63
                     A                      A                      A
 Frequencies --  1521.7900              1534.6882              1544.7973
 Red. masses --     1.0478                 1.0613                 2.1703
 Frc consts  --     1.4297                 1.4727                 3.0515
 IR Inten    --     5.5766                43.9777                 7.1562

                    64                     65                     66
                     A                      A                      A
 Frequencies --  1565.2772              1631.4694              1644.6583
 Red. masses --     2.4197                 6.4819                 5.4485
 Frc consts  --     3.4929                10.1651                 8.6831
 IR Inten    --    96.4472                 8.4458                 1.4802

                    67                     68                     69
                     A                      A                      A
 Frequencies --  1661.7465              1672.7178              3026.6388
 Red. masses --     5.4997                 5.6974                 1.0348
 Frc consts  --     8.9479                 9.3923                 5.5850
 IR Inten    --     0.0946                89.1712                58.0994

                    70                     71                     72
                     A                      A                      A
 Frequencies --  3086.0475              3117.3746              3159.4809
 Red. masses --     1.1068                 1.0864                 1.0998
 Frc consts  --     6.2104                 6.2204                 6.4681
 IR Inten    --    41.9490                 6.1732                27.5671

                    73                     74                     75
                     A                      A                      A
 Frequencies --  3178.4049              3180.1664              3186.8678
 Red. masses --     1.0863                 1.0892                 1.0874
 Frc consts  --     6.4658                 6.4900                 6.5069
 IR Inten    --     4.2807                12.2977                 1.0375

                    76                     77                     78
                     A                      A                      A
 Frequencies --  3197.1517              3206.2174              3208.5177
 Red. masses --     1.0917                 1.0878                 1.0954
 Frc consts  --     6.5749                 6.5882                 6.6439
 IR Inten    --    24.4584                 9.7527                27.3041

                    79                     80                     81
                     A                      A                      A
 Frequencies --  3217.9501              3220.9043              3228.0641
 Red. masses --     1.0941                 1.0945                 1.0912
 Frc consts  --     6.6755                 6.6900                 6.6994
 IR Inten    --     6.8869                 6.1285                11.7410

 - Thermochemistry -
 -------------------
 Temperature   298.150 Kelvin.  Pressure   1.00000 Atm.
 Atom     1 has atomic number  6 and mass  12.00000

 Molecular mass:   232.06549 amu.
 Principal axes and moments of inertia in atomic units:
                           1         2         3
     Eigenvalues --  2077.699577344.728518291.38584
           X            0.99999  -0.00339  -0.00345
           Y            0.00342   0.99996   0.00863
           Z            0.00342  -0.00865   0.99996
 This molecule is an asymmetric top.
 Rotational symmetry number  1.
 Warning -- assumption of classical behavior for rotation
           may cause significant error
 Rotational temperatures (Kelvin)      0.04169     0.01179     0.01045
 Rotational constants (GHZ):           0.86862     0.24572     0.21766
 Zero-point vibrational energy     613818.4 (Joules/Mol)
                                  146.70612 (Kcal/Mol)
 Warning -- explicit consideration of  20 degrees of freedom as
           vibrations may cause significant error
 Vibrational temperatures:     26.10    46.20    76.69   126.74   161.61
          (Kelvin)            198.17   260.87   306.95   358.85   380.06
                              395.01   475.27   543.11   597.01   611.79
                              665.80   726.01   767.10   817.91   892.29
                              910.55   923.87  1017.93  1033.81  1048.51
                             1112.21  1143.16  1177.07  1194.30  1235.26
                             1238.62  1264.20  1343.76  1354.31  1395.38
                             1399.89  1436.43  1465.76  1483.45  1524.42
                             1551.56  1605.16  1649.78  1705.80  1717.87
                             1728.96  1743.71  1751.19  1753.72  1769.90
                             1803.50  1864.75  1881.08  1941.36  1954.36
                             1968.40  2007.34  2113.42  2158.62  2162.88
                             2189.51  2208.07  2222.62  2252.08  2347.32
                             2366.29  2390.88  2406.66  4354.65  4440.13
                             4485.20  4545.78  4573.01  4575.54  4585.19
                             4599.98  4613.03  4616.34  4629.91  4634.16
                             4644.46

 Zero-point correction=                           0.233791 (Hartree/Particle)
 Thermal correction to Energy=                    0.247896
 Thermal correction to Enthalpy=                  0.248840
 Thermal correction to Gibbs Free Energy=         0.190339
 Sum of electronic and zero-point Energies=          -1076.496616
 Sum of electronic and thermal Energies=             -1076.482511
 Sum of electronic and thermal Enthalpies=           -1076.481567
 Sum of electronic and thermal Free Energies=        -1076.540068

                     E (Thermal)             CV                S
                      KCal/Mol        Cal/Mol-Kelvin    Cal/Mol-Kelvin
 Total                  155.557             53.898            123.126
 Electronic               0.000              0.000              0.000
 Translational            0.889              2.981             42.227
 Rotational               0.889              2.981             33.203
 Vibrational            153.780             47.936             47.696
 Vibration     1          0.593              1.986              6.828
 Vibration     2          0.594              1.983              5.695
 Vibration     3          0.596              1.976              4.691
 Vibration     4          0.601              1.958              3.702
 Vibration     5          0.607              1.939              3.228
 Vibration     6          0.614              1.916              2.835
 Vibration     7          0.630              1.865              2.315
 Vibration     8          0.644              1.821              2.015
 Vibration     9          0.662              1.764              1.735
 Vibration    10          0.671              1.739              1.634
 Vibration    11          0.677              1.720              1.567
 Vibration    12          0.713              1.615              1.258
 Vibration    13          0.748              1.518              1.049
 Vibration    14          0.778              1.438              0.909
 Vibration    15          0.787              1.415              0.874
 Vibration    16          0.820              1.333              0.758
 Vibration    17          0.860              1.240              0.647
 Vibration    18          0.888              1.177              0.580
 Vibration    19          0.924              1.099              0.507
 Vibration    20          0.980              0.989              0.416

 Normal termination of Gaussian 09 at Wed Sep 29 02:40:32 2021.
 Gaussian 09:  AM64L-G09RevA.02 11-Jun-2009

 ----------------------------------------------------------------------
 #p TD(NStates=10, Root=1) b3lyp/6-31G* volume pop=NPA density=current
 Geom=AllCheck Guess=Read
 ----------------------------------------------------------------------

 COc1ccc(cc1)C(c1ccccc1)Cl_conf_0
 --------------------------------
 Redundant internal coordinates taken from checkpoint file:
 C14H13ClO_79f2_conf_0.chk
 Charge =  0 Multiplicity = 1

                         Standard orientation:
 ---------------------------------------------------------------------
 Center     Atomic      Atomic             Coordinates (Angstroms)
 Number     Number       Type             X           Y           Z
 ---------------------------------------------------------------------
      1          6           0       -5.221437   -1.166210    0.471581
      2          8           0       -4.405059   -0.586584   -0.533944
      3          6           0       -3.134296   -0.219239   -0.202078
      4          6           0       -2.564279   -0.371462    1.066450
      5          6           0       -1.249913    0.048629    1.284551
      6          6           0       -0.480958    0.613728    0.264196
      7          6           0       -1.072017    0.768139   -0.999926
      8          6           0       -2.377485    0.358384   -1.232933
      9          6           0        0.954688    0.981587    0.564131
     10          6           0        1.999104   -0.063508    0.228080
     11          6           0        1.864210   -0.938686   -0.856720
     12          6           0        2.854669   -1.881482   -1.132130
     13          6           0        3.990364   -1.967090   -0.325085
     14          6           0        4.131341   -1.102174    0.761806
     15          6           0        3.142221   -0.158644    1.033888
     16         17           0        1.416934    2.585951   -0.264442
     17          1           0       -6.177838   -1.382595   -0.007696
     18          1           0       -5.383825   -0.474012    1.308365
     19          1           0       -4.788534   -2.099782    0.854794
     20          1           0       -3.127001   -0.802375    1.886496
     21          1           0       -0.819949   -0.075098    2.276061
     22          1           0       -0.509200    1.236445   -1.801327
     23          1           0       -2.839467    0.483694   -2.207183
     24          1           0        1.040925    1.229482    1.623622
     25          1           0        0.977748   -0.891269   -1.480849
     26          1           0        2.734850   -2.554352   -1.977086
     27          1           0        4.758537   -2.705345   -0.539109
     28          1           0        5.009640   -1.163386    1.398846
     29          1           0        3.259423    0.518257    1.877258
 ---------------------------------------------------------------------

 SCF Done:  E(RB3LYP) =  -1076.73040726     A.U. after    1 cycles

 Excitation energies and oscillator strengths:

 Excited State   1:      Singlet-A      4.5684 eV  271.40 nm  f=0.1131  <S**2>=0.000
      61 -> 62         0.69511
 This state for optimization and/or second-order correction.
 Total Energy, E(TD-HF/TD-KS) =  -1076.56252317
 Copying the excited state density for this state as the 1-particle RhoCI density.

 Excited State   2:      Singlet-A      5.0484 eV  245.59 nm  f=0.0255  <S**2>=0.000
      58 -> 62        -0.26662
      58 -> 65        -0.19075
      59 -> 62         0.15357
      61 -> 63         0.58094

 Excited State   3:      Singlet-A      5.1289 eV  241.74 nm  f=0.0058  <S**2>=0.000
      58 -> 62         0.15215
      59 -> 62         0.49678
      60 -> 64        -0.28713
      61 -> 64         0.34156

 Excited State   4:      Singlet-A      5.3988 eV  229.65 nm  f=0.0241  <S**2>=0.000
      59 -> 62        -0.28144
      60 -> 64         0.20798
      61 -> 63         0.10847
      61 -> 64         0.59212

 Excited State   5:      Singlet-A      5.4660 eV  226.83 nm  f=0.1569  <S**2>=0.000
      59 -> 64         0.11523
      60 -> 62         0.63816
      61 -> 65        -0.19041

 Excited State   6:      Singlet-A      5.5846 eV  222.01 nm  f=0.0485  <S**2>=0.000
      58 -> 62         0.60591
      58 -> 65        -0.15035
      60 -> 62         0.12580
      61 -> 63         0.21735
      61 -> 64        -0.10905

 Excited State   7:      Singlet-A      5.7942 eV  213.98 nm  f=0.1052  <S**2>=0.000
      58 -> 63         0.23579
      60 -> 62         0.12492
      60 -> 63         0.17939
      61 -> 63        -0.15989
      61 -> 65         0.57250

 Excited State   8:      Singlet-A      5.9470 eV  208.48 nm  f=0.0153  <S**2>=0.000
      57 -> 62        -0.21669
      60 -> 63         0.62817
      60 -> 64        -0.11810
      61 -> 65        -0.12329

 Excited State   9:      Singlet-A      5.9781 eV  207.40 nm  f=0.0076  <S**2>=0.000
      57 -> 62         0.62006
      60 -> 63         0.15582
      60 -> 64        -0.19014

 Excited State  10:      Singlet-A      6.0897 eV  203.60 nm  f=0.0051  <S**2>=0.000
      59 -> 62         0.10342
      59 -> 63         0.65031
      59 -> 64        -0.12160
      60 -> 63         0.11008

 The electronic state is 1-A.
 Alpha  occ. eigenvalues -- -101.52079 -19.18263 -10.25629 -10.25219 -10.24542
 Alpha  occ. eigenvalues --  -10.20378 -10.19978 -10.19835 -10.19373 -10.19344
 Alpha  occ. eigenvalues --  -10.19339 -10.19326 -10.19264 -10.19219 -10.19132
 Alpha  occ. eigenvalues --  -10.18883  -9.43700  -7.20082  -7.19127  -7.19112
 Alpha  occ. eigenvalues --   -1.06860  -0.87684  -0.85323  -0.82939  -0.76770
 Alpha  occ. eigenvalues --   -0.75353  -0.75000  -0.74523  -0.70963  -0.65947
 Alpha  occ. eigenvalues --   -0.61920  -0.60653  -0.59756  -0.57172  -0.53761
 Alpha  occ. eigenvalues --   -0.51715  -0.49193  -0.48025  -0.47266  -0.46587
 Alpha  occ. eigenvalues --   -0.45243  -0.44132  -0.42818  -0.42707  -0.42336
 Alpha  occ. eigenvalues --   -0.41987  -0.40218  -0.38087  -0.37801  -0.36534
 Alpha  occ. eigenvalues --   -0.35437  -0.35302  -0.34240  -0.33016  -0.32087
 Alpha  occ. eigenvalues --   -0.29079  -0.28716  -0.25508  -0.25182  -0.24780
 Alpha  occ. eigenvalues --   -0.22007
 Alpha virt. eigenvalues --   -0.02938  -0.00658  -0.00308   0.00871   0.04845
 Alpha virt. eigenvalues --    0.08566   0.09465   0.10405   0.11131   0.13209
 Alpha virt. eigenvalues --    0.14450   0.15009   0.15198   0.15690   0.16135

 Mulliken atomic charges:
              1
     1  C   -0.249038
     2  O   -0.435364
     3  C    0.391502
     4  C   -0.168478
     5  C   -0.149447
     6  C    0.237697
     7  C   -0.156286
     8  C   -0.148833
     9  C   -0.440340
    10  C    0.188439
    11  C   -0.192665
    12  C   -0.133994
    13  C   -0.167645
    14  C   -0.129298
    15  C   -0.192444
    16  Cl  -0.214885
    17  H    0.204223
    18  H    0.188278
    19  H    0.190605
    20  H    0.168674
    21  H    0.185207
    22  H    0.209085
    23  H    0.183576
    24  H    0.168299
    25  H    0.076930
    26  H    0.096076
    27  H    0.091928
    28  H    0.101586
    29  H    0.096613
 Sum of Mulliken atomic charges =  -0.00000

 Dipole moment (field-independent basis, Debye):
    X=            -13.4815    Y=             -3.1564    Z=              2.2277  Tot=             14.0241
 Quadrupole moment (field-independent basis, Debye-Ang):
   XX=            -80.6107   YY=           -112.5465   ZZ=            -92.5942
   XY=              5.5531   XZ=             -2.5816   YZ=              0.0864

 Summary of Natural Population Analysis:

                                       Natural Population
                Natural  -----------------------------------------------
    Atom  No    Charge         Core      Valence    Rydberg      Total
 -----------------------------------------------------------------------
      C    1   -0.33362      1.99941     4.31985    0.01435     6.33362
      O    2   -0.41804      1.99975     6.40665    0.01164     8.41804
      C    3    0.37871      1.99879     3.60117    0.02133     5.62129
      C    4   -0.28505      1.99904     4.27327    0.01274     6.28505
      C    5   -0.16746      1.99903     4.15433    0.01410     6.16746
      C    6    0.13804      1.99899     3.84617    0.01680     5.86196
      C    7   -0.22993      1.99904     4.21459    0.01629     6.22993
      C    8   -0.21169      1.99905     4.19771    0.01494     6.21169
      C    9   -0.31868      1.99893     4.29788    0.02187     6.31868
      C   10   -0.12164      1.99895     4.10542    0.01727     6.12164
      C   11   -0.26064      1.99902     4.24816    0.01346     6.26064
      C   12   -0.23716      1.99911     4.22345    0.01460     6.23716
      C   13   -0.31450      1.99910     4.29944    0.01596     6.31450
      C   14   -0.23060      1.99910     4.21712    0.01438     6.23060
      C   15   -0.25549      1.99902     4.24194    0.01452     6.25549
     Cl   16   -0.24404      9.99981     7.21822    0.02602    17.24404
      H   17    0.24766      0.00000     0.75199    0.00035     0.75234
      H   18    0.22578      0.00000     0.77301    0.00121     0.77422
      H   19    0.22713      0.00000     0.77174    0.00113     0.77287
      H   20    0.25319      0.00000     0.74602    0.00079     0.74681
      H   21    0.26379      0.00000     0.73539    0.00082     0.73621
      H   22    0.28380      0.00000     0.71486    0.00134     0.71620
      H   23    0.26454      0.00000     0.73451    0.00094     0.73546
      H   24    0.26059      0.00000     0.73742    0.00198     0.73941
      H   25    0.20579      0.00000     0.79305    0.00115     0.79421
      H   26    0.21988      0.00000     0.77922    0.00090     0.78012
      H   27    0.21849      0.00000     0.78069    0.00082     0.78151
      H   28    0.22292      0.00000     0.77619    0.00090     0.77708
      H   29    0.21823      0.00000     0.78071    0.00106     0.78177
 =======================================================================
   * Total *   -0.00000     39.98614    81.74018    0.27368   122.00000

 Normal termination of Gaussian 09 at Wed Sep 29 07:05:58 2021.
