 Gaussian 09, Revision A.02,

 -----------------------------------
 #p opt b3lyp/6-31G* scf=(xqc,tight)
 -----------------------------------

 -------------------------------------
 Cc1ccc2c(c1)ccc(c2)OC(=O)N(C)C_conf_0
 -------------------------------------
 Symbolic Z-matrix:
 Charge =  0 Multiplicity = 1

 SCF Done:  E(RB3LYP) =  -747.746912407     A.U. after   15 cycles
 SCF Done:  E(RB3LYP) =  -747.753919789     A.U. after   12 cycles
 SCF Done:  E(RB3LYP) =  -747.754371239     A.U. after   12 cycles
 SCF Done:  E(RB3LYP) =  -747.754717690     A.U. after   12 cycles
 SCF Done:  E(RB3LYP) =  -747.755180846     A.U. after   11 cycles
 SCF Done:  E(RB3LYP) =  -747.755368034     A.U. after   12 cycles
 SCF Done:  E(RB3LYP) =  -747.755488204     A.U. after   12 cycles
 SCF Done:  E(RB3LYP) =  -747.755543298     A.U. after   10 cycles
 SCF Done:  E(RB3LYP) =  -747.755583488     A.U. after   11 cycles
 SCF Done:  E(RB3LYP) =  -747.755595045     A.U. after   16 cycles
 SCF Done:  E(RB3LYP) =  -747.756559728     A.U. after    8 cycles
 SCF Done:  E(RB3LYP) =  -747.756559836     A.U. after    7 cycles
 SCF Done:  E(RB3LYP) =  -747.756560032     A.U. after    7 cycles
 SCF Done:  E(RB3LYP) =  -747.756560604     A.U. after    9 cycles
 SCF Done:  E(RB3LYP) =  -747.756561625     A.U. after    9 cycles
 SCF Done:  E(RB3LYP) =  -747.756562051     A.U. after    7 cycles
 SCF Done:  E(RB3LYP) =  -747.756562233     A.U. after    7 cycles
 SCF Done:  E(RB3LYP) =  -747.756562258     A.U. after    6 cycles
 Optimization completed on the basis of negligible forces.
    -- Stationary point found.
 Normal termination of Gaussian 09 at Thu Sep 30 12:44:51 2021.

 ----------------------------------------------------------------------
 #p freq b3lyp/6-31G* volume NMR pop=NPA density=current Geom=AllCheck
 Guess=Read
 ----------------------------------------------------------------------

 Cc1ccc2c(c1)ccc(c2)OC(=O)N(C)C_conf_0
 -------------------------------------
 Redundant internal coordinates taken from checkpoint file:
 C14H15NO2_36ed_conf_0.chk
 Charge =  0 Multiplicity = 1

 SCF Done:  E(RB3LYP) =  -747.756562258     A.U. after    1 cycles

  1  C    Isotropic =   167.1539   Anisotropy =    35.3237

  2  C    Isotropic =    61.6386   Anisotropy =   172.6375

  3  C    Isotropic =    68.6327   Anisotropy =   150.8092

  4  C    Isotropic =    68.2001   Anisotropy =   142.0449

  5  C    Isotropic =    64.7022   Anisotropy =   192.9172

  6  C    Isotropic =    65.8295   Anisotropy =   193.1938

  7  C    Isotropic =    67.7904   Anisotropy =   124.2557

  8  C    Isotropic =    67.7181   Anisotropy =   141.2169

  9  C    Isotropic =    72.7063   Anisotropy =   150.0117

 10  C    Isotropic =    46.3068   Anisotropy =   106.1898

 11  C    Isotropic =    78.3493   Anisotropy =   118.7882

 12  O    Isotropic =   146.0173   Anisotropy =   125.7846

 13  C    Isotropic =    46.6069   Anisotropy =    75.9115

 14  O    Isotropic =    67.0305   Anisotropy =   385.8065

 15  N    Isotropic =   180.7393   Anisotropy =    83.2030

 16  C    Isotropic =   155.3601   Anisotropy =    51.1563

 17  C    Isotropic =   155.5874   Anisotropy =    49.4959

 18  H    Isotropic =    29.6083   Anisotropy =     8.3176

 19  H    Isotropic =    30.2038   Anisotropy =     7.2299

 20  H    Isotropic =    29.6298   Anisotropy =     8.3065

 21  H    Isotropic =    24.9261   Anisotropy =     7.2569

 22  H    Isotropic =    24.6688   Anisotropy =     7.5831

 23  H    Isotropic =    24.8525   Anisotropy =     8.6412

 24  H    Isotropic =    24.6963   Anisotropy =     7.2278

 25  H    Isotropic =    24.7185   Anisotropy =     9.1004

 26  H    Isotropic =    25.1434   Anisotropy =     8.8726

 27  H    Isotropic =    28.1360   Anisotropy =     6.9098

 28  H    Isotropic =    29.9076   Anisotropy =     9.3613

 29  H    Isotropic =    29.8909   Anisotropy =     9.2940

 30  H    Isotropic =    28.1959   Anisotropy =     5.1941

 31  H    Isotropic =    29.6999   Anisotropy =     8.8928

 32  H    Isotropic =    29.6614   Anisotropy =     9.1745

  Exact polarizability: 272.095  -3.858 150.996  -9.813  10.154  81.396
 Approx polarizability: 367.709  -9.782 266.798 -21.196  20.804 126.787

                     1                      2                      3
                     A                      A                      A
 Frequencies --    27.2062                34.5983                47.9097
 Red. masses --     4.2701                 3.3068                 1.4486
 Frc consts  --     0.0019                 0.0023                 0.0020
 IR Inten    --     0.6232                 2.5631                 0.1132

                     4                      5                      6
                     A                      A                      A
 Frequencies --    64.1852                93.6368               113.7784
 Red. masses --     3.8356                 1.1625                 2.6623
 Frc consts  --     0.0093                 0.0060                 0.0203
 IR Inten    --     1.3336                 0.1430                 0.3270

                     7                      8                      9
                     A                      A                      A
 Frequencies --   121.4311               147.5789               187.1755
 Red. masses --     3.4082                 1.2497                 3.7146
 Frc consts  --     0.0296                 0.0160                 0.0767
 IR Inten    --     1.3352                 0.1514                 0.7842

                    10                     11                     12
                     A                      A                      A
 Frequencies --   216.0634               218.9095               233.0559
 Red. masses --     4.1298                 2.3227                 4.0064
 Frc consts  --     0.1136                 0.0656                 0.1282
 IR Inten    --     0.7845                 3.5855                 1.7809

                    13                     14                     15
                     A                      A                      A
 Frequencies --   239.6367               325.5942               368.7192
 Red. masses --     3.8555                 3.7780                 4.0901
 Frc consts  --     0.1304                 0.2360                 0.3276
 IR Inten    --     2.5241                 1.7137                 2.5424

                    16                     17                     18
                     A                      A                      A
 Frequencies --   383.7798               411.4427               426.4981
 Red. masses --     3.5766                 3.3525                 3.4231
 Frc consts  --     0.3104                 0.3344                 0.3669
 IR Inten    --    16.1400                 1.0685                 5.2840

                    19                     20                     21
                     A                      A                      A
 Frequencies --   460.6750               493.6329               502.3091
 Red. masses --     4.2753                 2.7312                 4.5677
 Frc consts  --     0.5346                 0.3921                 0.6790
 IR Inten    --     2.3938                 6.3417                 2.8162

                    22                     23                     24
                     A                      A                      A
 Frequencies --   532.6647               554.7521               621.6604
 Red. masses --     6.4375                 3.2533                 5.5028
 Frc consts  --     1.0762                 0.5899                 1.2530
 IR Inten    --     0.0054                 1.0427                 9.3592

                    25                     26                     27
                     A                      A                      A
 Frequencies --   635.8600               665.5447               712.5656
 Red. masses --     5.6435                 3.9340                 5.5559
 Frc consts  --     1.3444                 1.0267                 1.6621
 IR Inten    --     0.8779                 3.2201                 0.6568

                    28                     29                     30
                     A                      A                      A
 Frequencies --   738.8886               766.3493               779.6347
 Red. masses --    11.8406                 2.9730                 6.0564
 Frc consts  --     3.8087                 1.0287                 2.1689
 IR Inten    --    20.1165                 1.0767                 3.5454

                    31                     32                     33
                     A                      A                      A
 Frequencies --   808.7695               821.8076               843.6366
 Red. masses --     1.8280                 1.3303                 3.3224
 Frc consts  --     0.7045                 0.5293                 1.3932
 IR Inten    --     4.4647                23.8451                 1.5291

                    34                     35                     36
                     A                      A                      A
 Frequencies --   867.4767               900.3689               902.7305
 Red. masses --     3.6144                 1.6359                 1.5316
 Frc consts  --     1.6025                 0.7814                 0.7354
 IR Inten    --    11.4591                 8.7782                29.1297

                    37                     38                     39
                     A                      A                      A
 Frequencies --   948.4654               957.4579               965.6346
 Red. masses --     3.7785                 1.3226                 1.2889
 Frc consts  --     2.0027                 0.7144                 0.7081
 IR Inten    --    18.7176                 1.1896                 0.5970

                    40                     41                     42
                     A                      A                      A
 Frequencies --   987.1085              1036.2966              1046.0214
 Red. masses --     3.3800                 1.5293                 2.5773
 Frc consts  --     1.9404                 0.9676                 1.6615
 IR Inten    --    14.9400                10.4288                14.2307

                    43                     44                     45
                     A                      A                      A
 Frequencies --  1076.8283              1094.4183              1144.6178
 Red. masses --     1.5124                 1.3627                 1.2154
 Frc consts  --     1.0332                 0.9616                 0.9382
 IR Inten    --     4.1869                 7.5455                 0.1043

                    46                     47                     48
                     A                      A                      A
 Frequencies --  1157.7411              1180.4220              1189.7123
 Red. masses --     1.5974                 1.8046                 1.3133
 Frc consts  --     1.2615                 1.4815                 1.0952
 IR Inten    --    10.8116                56.6636                30.4934

                    49                     50                     51
                     A                      A                      A
 Frequencies --  1191.0737              1198.7511              1208.4686
 Red. masses --     1.3493                 2.3531                 1.6164
 Frc consts  --     1.1278                 1.9922                 1.3908
 IR Inten    --     1.5933               671.0312               149.6219

                    52                     53                     54
                     A                      A                      A
 Frequencies --  1261.5250              1284.3940              1296.7512
 Red. masses --     7.2547                 1.8563                 1.8811
 Frc consts  --     6.8024                 1.8042                 1.8637
 IR Inten    --   336.3177                77.5759                 8.4635

                    55                     56                     57
                     A                      A                      A
 Frequencies --  1301.5202              1383.0609              1420.0745
 Red. masses --     4.3384                 1.8830                 5.0577
 Frc consts  --     4.3300                 2.1221                 6.0093
 IR Inten    --     9.3938                 8.8789                 5.9499

                    58                     59                     60
                     A                      A                      A
 Frequencies --  1420.6347              1442.0224              1443.6417
 Red. masses --     4.2663                 2.5764                 1.2924
 Frc consts  --     5.0730                 3.1565                 1.5870
 IR Inten    --   101.6765               248.4418                12.6501

                    61                     62                     63
                     A                      A                      A
 Frequencies --  1454.5589              1460.2144              1489.5654
 Red. masses --     3.3425                 1.2027                 1.2233
 Frc consts  --     4.1666                 1.5109                 1.5992
 IR Inten    --     0.5465                31.2652                76.0704

                    64                     65                     66
                     A                      A                      A
 Frequencies --  1513.6832              1519.3984              1521.9072
 Red. masses --     1.0446                 1.0418                 1.1896
 Frc consts  --     1.4102                 1.4170                 1.6234
 IR Inten    --     5.5161                 0.3420                10.0099

                    67                     68                     69
                     A                      A                      A
 Frequencies --  1530.5277              1531.6423              1532.0479
 Red. masses --     1.0928                 1.1203                 1.9351
 Frc consts  --     1.5083                 1.5484                 2.6760
 IR Inten    --    12.4769                17.0943                14.5202

                    70                     71                     72
                     A                      A                      A
 Frequencies --  1559.3867              1566.4923              1627.1980
 Red. masses --     2.7689                 1.2764                 6.7777
 Frc consts  --     3.9670                 1.8455                10.5733
 IR Inten    --    41.7531                37.9552                 2.8682

                    73                     74                     75
                     A                      A                      A
 Frequencies --  1670.2166              1693.3377              1816.1522
 Red. masses --     5.8183                 6.3061                10.8846
 Frc consts  --     9.5630                10.6537                21.1527
 IR Inten    --    51.7794                 2.3306               397.1705

                    76                     77                     78
                     A                      A                      A
 Frequencies --  3027.8362              3035.5898              3039.5598
 Red. masses --     1.0401                 1.0406                 1.0379
 Frc consts  --     5.6182                 5.6497                 5.6497
 IR Inten    --    28.2640               136.3676                39.5184

                    79                     80                     81
                     A                      A                      A
 Frequencies --  3072.4822              3078.5647              3089.2036
 Red. masses --     1.1044                 1.1051                 1.1007
 Frc consts  --     6.1428                 6.1710                 6.1890
 IR Inten    --    54.9830                19.9021                21.9559

                    82                     83                     84
                     A                      A                      A
 Frequencies --  3125.9061              3172.3445              3172.8109
 Red. masses --     1.1004                 1.0895                 1.0866
 Frc consts  --     6.3350                 6.4601                 6.4446
 IR Inten    --    16.2135                12.8391                11.9405

                    85                     86                     87
                     A                      A                      A
 Frequencies --  3187.9334              3191.6183              3194.6599
 Red. masses --     1.0897                 1.0951                 1.0961
 Frc consts  --     6.5250                 6.5722                 6.5909
 IR Inten    --    19.7855                24.2136                 0.8617

                    88                     89                     90
                     A                      A                      A
 Frequencies --  3204.8560              3211.6367              3247.8432
 Red. masses --     1.0911                 1.0942                 1.0931
 Frc consts  --     6.6027                 6.6496                 6.7935
 IR Inten    --     8.7355                 3.3926                 3.6290

 - Thermochemistry -
 -------------------
 Temperature   298.150 Kelvin.  Pressure   1.00000 Atm.
 Atom     1 has atomic number  6 and mass  12.00000

 Molecular mass:   229.11028 amu.
 Principal axes and moments of inertia in atomic units:
                           1         2         3
     Eigenvalues --  1056.176079527.93697**********
           X            0.99998   0.00603  -0.00217
           Y           -0.00601   0.99993   0.00985
           Z            0.00223  -0.00984   0.99995
 This molecule is an asymmetric top.
 Rotational symmetry number  1.
 Warning -- assumption of classical behavior for rotation
           may cause significant error
 Rotational temperatures (Kelvin)      0.08201     0.00909     0.00849
 Rotational constants (GHZ):           1.70875     0.18942     0.17696
 Zero-point vibrational energy     690522.5 (Joules/Mol)
                                  165.03883 (Kcal/Mol)
 Warning -- explicit consideration of  23 degrees of freedom as
           vibrations may cause significant error
 Vibrational temperatures:     39.14    49.78    68.93    92.35   134.72
          (Kelvin)            163.70   174.71   212.33   269.30   310.87
                              314.96   335.32   344.78   468.46   530.50
                              552.17   591.97   613.63   662.81   710.23
                              722.71   766.38   798.16   894.43   914.86
                              957.57  1025.22  1063.09  1102.60  1121.72
                             1163.64  1182.40  1213.80  1248.10  1295.43
                             1298.83  1364.63  1377.57  1389.33  1420.23
                             1491.00  1504.99  1549.31  1574.62  1646.85
                             1665.73  1698.36  1711.73  1713.69  1724.73
                             1738.71  1815.05  1847.95  1865.73  1872.59
                             1989.91  2043.17  2043.97  2074.75  2077.08
                             2092.78  2100.92  2143.15  2177.85  2186.07
                             2189.68  2202.09  2203.69  2204.27  2243.61
                             2253.83  2341.17  2403.07  2436.33  2613.03
                             4356.38  4367.53  4373.24  4420.61  4429.36
                             4444.67  4497.48  4564.29  4564.96  4586.72
                             4592.02  4596.40  4611.07  4620.82  4672.92

 Zero-point correction=                           0.263006 (Hartree/Particle)
 Thermal correction to Energy=                    0.279157
 Thermal correction to Enthalpy=                  0.280101
 Thermal correction to Gibbs Free Energy=         0.217686
 Sum of electronic and zero-point Energies=           -747.493556
 Sum of electronic and thermal Energies=              -747.477405
 Sum of electronic and thermal Enthalpies=            -747.476461
 Sum of electronic and thermal Free Energies=         -747.538876

                     E (Thermal)             CV                S
                      KCal/Mol        Cal/Mol-Kelvin    Cal/Mol-Kelvin
 Total                  175.174             60.007            131.363
 Electronic               0.000              0.000              0.000
 Translational            0.889              2.981             42.189
 Rotational               0.889              2.981             32.995
 Vibrational            173.396             54.045             56.179
 Vibration     1          0.593              1.984              6.023
 Vibration     2          0.594              1.983              5.547
 Vibration     3          0.595              1.978              4.902
 Vibration     4          0.597              1.971              4.324
 Vibration     5          0.603              1.954              3.583
 Vibration     6          0.607              1.938              3.203
 Vibration     7          0.609              1.931              3.077
 Vibration     8          0.617              1.905              2.703
 Vibration     9          0.632              1.857              2.256
 Vibration    10          0.645              1.817              1.992
 Vibration    11          0.647              1.812              1.968
 Vibration    12          0.654              1.790              1.855
 Vibration    13          0.657              1.780              1.806
 Vibration    14          0.710              1.624              1.282
 Vibration    15          0.741              1.537              1.085
 Vibration    16          0.753              1.505              1.024
 Vibration    17          0.775              1.445              0.922
 Vibration    18          0.788              1.413              0.870
 Vibration    19          0.818              1.337              0.764
 Vibration    20          0.849              1.264              0.674
 Vibration    21          0.858              1.245              0.652
 Vibration    22          0.888              1.178              0.581
 Vibration    23          0.910              1.129              0.534

 Optimization completed.
    -- Stationary point found.
 Normal termination of Gaussian 09 at Thu Sep 30 13:52:01 2021.
 Gaussian 09:  AM64L-G09RevA.02 11-Jun-2009

 ----------------------------------------------------------------------
 #p TD(NStates=10, Root=1) b3lyp/6-31G* volume pop=NPA density=current
 Geom=AllCheck Guess=Read
 ----------------------------------------------------------------------

 Cc1ccc2c(c1)ccc(c2)OC(=O)N(C)C_conf_0
 -------------------------------------
 Redundant internal coordinates taken from checkpoint file:
 C14H15NO2_36ed_conf_0.chk
 Charge =  0 Multiplicity = 1

                         Standard orientation:
 ---------------------------------------------------------------------
 Center     Atomic      Atomic             Coordinates (Angstroms)
 Number     Number       Type             X           Y           Z
 ---------------------------------------------------------------------
      1          6           0       -5.860636   -0.331803    0.127599
      2          6           0       -4.387861   -0.000988    0.094113
      3          6           0       -3.953275    1.326866    0.367736
      4          6           0       -2.620631    1.663040    0.346736
      5          6           0       -1.627748    0.689985    0.051003
      6          6           0       -2.049294   -0.649167   -0.226549
      7          6           0       -3.435948   -0.956441   -0.195941
      8          6           0       -1.060301   -1.624034   -0.526797
      9          6           0        0.277583   -1.305727   -0.554738
     10          6           0        0.677402    0.021573   -0.269478
     11          6           0       -0.243366    0.998417    0.024720
     12          8           0        2.007555    0.422190   -0.377287
     13          6           0        2.985722   -0.303984    0.268554
     14          8           0        2.759732   -1.275318    0.965069
     15          7           0        4.221567    0.218833    0.016610
     16          6           0        5.380318   -0.409344    0.630769
     17          6           0        4.479715    1.391003   -0.805150
     18          1           0       -6.291307   -0.136839    1.118196
     19          1           0       -6.039967   -1.384119   -0.113674
     20          1           0       -6.423963    0.277787   -0.590563
     21          1           0       -4.696796    2.087137    0.597596
     22          1           0       -2.309108    2.683205    0.559077
     23          1           0       -3.743362   -1.978654   -0.408692
     24          1           0       -1.376164   -2.642322   -0.740119
     25          1           0        1.026575   -2.055417   -0.776361
     26          1           0        0.095603    2.009222    0.232258
     27          1           0        5.049238   -1.271854    1.206956
     28          1           0        5.893815    0.297834    1.295916
     29          1           0        6.091151   -0.734940   -0.140163
     30          1           0        3.549177    1.778530   -1.211954
     31          1           0        5.151466    1.131704   -1.634508
     32          1           0        4.964296    2.175537   -0.207964
 ---------------------------------------------------------------------

 SCF Done:  E(RB3LYP) =  -747.756562258     A.U. after    1 cycles

 Excitation energies and oscillator strengths:

 Excited State   1:      Singlet-A      4.3059 eV  287.94 nm  f=0.0328  <S**2>=0.000
      60 -> 62         0.26930
      60 -> 63        -0.16788
      61 -> 62         0.56598
      61 -> 63         0.27344
 This state for optimization and/or second-order correction.
 Total Energy, E(TD-HF/TD-KS) =  -747.598322445
 Copying the excited state density for this state as the 1-particle RhoCI density.

 Excited State   2:      Singlet-A      4.5135 eV  274.70 nm  f=0.0191  <S**2>=0.000
      60 -> 62         0.43369
      61 -> 62        -0.38091
      61 -> 63         0.39737

 Excited State   3:      Singlet-A      5.2480 eV  236.25 nm  f=0.0258  <S**2>=0.000
      59 -> 62         0.69123
      60 -> 62         0.12324

 Excited State   4:      Singlet-A      5.7049 eV  217.33 nm  f=1.0668  <S**2>=0.000
      58 -> 62        -0.32480
      59 -> 63         0.11808
      60 -> 62        -0.34027
      60 -> 63         0.20056
      61 -> 63         0.39741
      61 -> 64        -0.20511

 Excited State   5:      Singlet-A      5.7269 eV  216.49 nm  f=0.3702  <S**2>=0.000
      57 -> 62        -0.20715
      58 -> 62         0.45926
      60 -> 62        -0.20679
      60 -> 63         0.14054
      61 -> 63         0.23861
      61 -> 64         0.31368

 Excited State   6:      Singlet-A      5.8565 eV  211.70 nm  f=0.0100  <S**2>=0.000
      57 -> 62         0.45832
      58 -> 62         0.38270
      61 -> 64        -0.35522

 Excited State   7:      Singlet-A      5.9670 eV  207.78 nm  f=0.3331  <S**2>=0.000
      59 -> 63         0.18189
      60 -> 62         0.20309
      60 -> 63         0.57941
      61 -> 62         0.13580
      61 -> 63        -0.15359

 Excited State   8:      Singlet-A      6.0324 eV  205.53 nm  f=0.0217  <S**2>=0.000
      59 -> 63         0.65528
      60 -> 63        -0.21328

 Excited State   9:      Singlet-A      6.1691 eV  200.98 nm  f=0.0208  <S**2>=0.000
      56 -> 62        -0.16587
      57 -> 62         0.20314
      57 -> 63         0.25857
      58 -> 63        -0.32675
      59 -> 63        -0.10721
      60 -> 64         0.38701
      61 -> 64         0.20884
      61 -> 65        -0.14545

 Excited State  10:      Singlet-A      6.4477 eV  192.29 nm  f=0.0490  <S**2>=0.000
      56 -> 62         0.17455
      57 -> 62         0.15786
      57 -> 63         0.10899
      58 -> 65        -0.15515
      61 -> 64         0.17390
      61 -> 65         0.58096

 The electronic state is 1-A.
 Alpha  occ. eigenvalues --  -19.19303 -19.11488 -14.36986 -10.33225 -10.24726
 Alpha  occ. eigenvalues --  -10.22247 -10.21709 -10.19467 -10.19408 -10.19216
 Alpha  occ. eigenvalues --  -10.18856 -10.18752 -10.18692 -10.18643 -10.18530
 Alpha  occ. eigenvalues --  -10.18309 -10.18233  -1.10423  -1.01253  -0.94145
 Alpha  occ. eigenvalues --   -0.86880  -0.82190  -0.77181  -0.75900  -0.72711
 Alpha  occ. eigenvalues --   -0.72264  -0.71069  -0.67528  -0.62311  -0.61343
 Alpha  occ. eigenvalues --   -0.59458  -0.56019  -0.53434  -0.50472  -0.49819
 Alpha  occ. eigenvalues --   -0.48602  -0.48120  -0.46863  -0.44554  -0.43883
 Alpha  occ. eigenvalues --   -0.43529  -0.42253  -0.41770  -0.41702  -0.40744
 Alpha  occ. eigenvalues --   -0.40686  -0.40177  -0.39715  -0.38711  -0.38340
 Alpha  occ. eigenvalues --   -0.37286  -0.36263  -0.34155  -0.33101  -0.32004
 Alpha  occ. eigenvalues --   -0.29806  -0.27808  -0.26866  -0.24410  -0.22941
 Alpha  occ. eigenvalues --   -0.20679
 Alpha virt. eigenvalues --   -0.03140  -0.00381   0.03784   0.05423   0.09084
 Alpha virt. eigenvalues --    0.10039   0.10130   0.11246   0.12077   0.13210
 Alpha virt. eigenvalues --    0.13711   0.14355   0.15152   0.15921   0.16084

 Mulliken atomic charges:
              1
     1  C   -0.535974
     2  C    0.203953
     3  C   -0.206956
     4  C   -0.198195
     5  C    0.134377
     6  C    0.164337
     7  C   -0.273420
     8  C   -0.223163
     9  C   -0.159492
    10  C    0.380339
    11  C   -0.255563
    12  O   -0.546270
    13  C    0.785728
    14  O   -0.500081
    15  N   -0.433995
    16  C   -0.319249
    17  C   -0.318363
    18  H    0.172154
    19  H    0.158920
    20  H    0.171023
    21  H    0.110818
    22  H    0.122406
    23  H    0.123912
    24  H    0.127914
    25  H    0.139939
    26  H    0.135670
    27  H    0.208002
    28  H    0.156947
    29  H    0.156468
    30  H    0.200357
    31  H    0.159212
    32  H    0.158243
 Sum of Mulliken atomic charges =  -0.00000

 Dipole moment (field-independent basis, Debye):
    X=              1.5670    Y=              1.6717    Z=             -1.1870  Tot=              2.5806
 Quadrupole moment (field-independent basis, Debye-Ang):
   XX=            -69.5469   YY=            -95.3637   ZZ=           -102.8514
   XY=              7.7298   XZ=             -3.5869   YZ=              3.4201

 Summary of Natural Population Analysis:

                                       Natural Population
                Natural  -----------------------------------------------
    Atom  No    Charge         Core      Valence    Rydberg      Total
 -----------------------------------------------------------------------
      C    1   -0.69506      1.99939     4.68819    0.00749     6.69506
      C    2    0.04526      1.99904     3.94088    0.01482     5.95474
      C    3   -0.30029      1.99906     4.28547    0.01576     6.30029
      C    4   -0.21168      1.99907     4.19708    0.01554     6.21168
      C    5   -0.04944      1.99903     4.03513    0.01527     6.04944
      C    6   -0.04905      1.99903     4.03469    0.01533     6.04905
      C    7   -0.21889      1.99899     4.20575    0.01415     6.21889
      C    8   -0.21023      1.99908     4.19581    0.01535     6.21023
      C    9   -0.32446      1.99902     4.30949    0.01595     6.32446
      C   10    0.36639      1.99871     3.61260    0.02230     5.63361
      C   11   -0.25206      1.99896     4.23758    0.01552     6.25206
      O   12   -0.54130      1.99969     6.53137    0.01025     8.54130
      C   13    0.94068      1.99937     3.01514    0.04481     5.05932
      O   14   -0.63562      1.99978     6.61674    0.01911     8.63562
      N   15   -0.48194      1.99932     5.47167    0.01095     7.48194
      C   16   -0.46960      1.99947     4.45824    0.01189     6.46960
      C   17   -0.47126      1.99946     4.46032    0.01148     6.47126
      H   18    0.25091      0.00000     0.74795    0.00115     0.74909
      H   19    0.23802      0.00000     0.76110    0.00088     0.76198
      H   20    0.25020      0.00000     0.74864    0.00116     0.74980
      H   21    0.22823      0.00000     0.77083    0.00094     0.77177
      H   22    0.22900      0.00000     0.76988    0.00112     0.77100
      H   23    0.22819      0.00000     0.77048    0.00132     0.77181
      H   24    0.23218      0.00000     0.76674    0.00109     0.76782
      H   25    0.25093      0.00000     0.74805    0.00101     0.74907
      H   26    0.24110      0.00000     0.75739    0.00151     0.75890
      H   27    0.26457      0.00000     0.73392    0.00151     0.73543
      H   28    0.22098      0.00000     0.77768    0.00134     0.77902
      H   29    0.22134      0.00000     0.77735    0.00131     0.77866
      H   30    0.25746      0.00000     0.74170    0.00084     0.74254
      H   31    0.22340      0.00000     0.77510    0.00150     0.77660
      H   32    0.22202      0.00000     0.77643    0.00155     0.77798
 =======================================================================
   * Total *   -0.00000     33.98646    87.71936    0.29418   122.00000

 Normal termination of Gaussian 09 at Thu Sep 30 19:06:31 2021.
