 Gaussian 09, Revision A.02,

 -----------------------------------
 #p opt b3lyp/6-31G* scf=(xqc,tight)
 -----------------------------------

 ----------------------------------
 CCn1c2ccccc2c2c1cc([Li])cc2_conf_0
 ----------------------------------
 Symbolic Z-matrix:
 Charge =  0 Multiplicity = 1

 SCF Done:  E(RB3LYP) =  -602.970401377     A.U. after   16 cycles
 SCF Done:  E(RB3LYP) =  -602.986420931     A.U. after   12 cycles
 SCF Done:  E(RB3LYP) =  -602.987651449     A.U. after   11 cycles
 SCF Done:  E(RB3LYP) =  -602.988086081     A.U. after   11 cycles
 SCF Done:  E(RB3LYP) =  -602.988248928     A.U. after   11 cycles
 SCF Done:  E(RB3LYP) =  -602.988313187     A.U. after   10 cycles
 SCF Done:  E(RB3LYP) =  -602.988324507     A.U. after    9 cycles
 SCF Done:  E(RB3LYP) =  -602.988328116     A.U. after    8 cycles
 SCF Done:  E(RB3LYP) =  -602.988333053     A.U. after    9 cycles
 SCF Done:  E(RB3LYP) =  -602.988335245     A.U. after    9 cycles
 SCF Done:  E(RB3LYP) =  -602.988336147     A.U. after    8 cycles
 SCF Done:  E(RB3LYP) =  -602.988336639     A.U. after    8 cycles
 SCF Done:  E(RB3LYP) =  -602.988337337     A.U. after    8 cycles
 SCF Done:  E(RB3LYP) =  -602.988337560     A.U. after    8 cycles
 Optimization completed.
    -- Stationary point found.
 Normal termination of Gaussian 09 at Sun Oct  3 04:28:10 2021.

 ----------------------------------------------------------------------
 #p freq b3lyp/6-31G* volume NMR pop=NPA density=current Geom=AllCheck
 Guess=Read
 ----------------------------------------------------------------------

 CCn1c2ccccc2c2c1cc([Li])cc2_conf_0
 ----------------------------------
 Redundant internal coordinates taken from checkpoint file:
 C14H12LiN_94b8_conf_0.chk
 Charge =  0 Multiplicity = 1

 SCF Done:  E(RB3LYP) =  -602.988337560     A.U. after    1 cycles

  1  C    Isotropic =   174.3838   Anisotropy =    23.4035

  2  C    Isotropic =   152.0533   Anisotropy =    33.9816

  3  N    Isotropic =   137.5301   Anisotropy =    50.3364

  4  C    Isotropic =    58.7463   Anisotropy =   131.5629

  5  C    Isotropic =    89.2080   Anisotropy =   137.7803

  6  C    Isotropic =    72.5425   Anisotropy =   157.7411

  7  C    Isotropic =    78.1347   Anisotropy =   149.1600

  8  C    Isotropic =    76.0488   Anisotropy =   155.7547

  9  C    Isotropic =    71.0141   Anisotropy =   146.6740

 10  C    Isotropic =    73.4538   Anisotropy =   146.0233

 11  C    Isotropic =    58.0745   Anisotropy =   130.9674

 12  C    Isotropic =    74.6218   Anisotropy =   132.2570

 13  C    Isotropic =    31.6290   Anisotropy =   247.0769

 14  Li   Isotropic =    90.6503   Anisotropy =    16.0956

 15  C    Isotropic =    61.4919   Anisotropy =   143.4769

 16  C    Isotropic =    77.6303   Anisotropy =   149.4673

 17  H    Isotropic =    31.2679   Anisotropy =    10.7356

 18  H    Isotropic =    30.7295   Anisotropy =     7.1425

 19  H    Isotropic =    30.8139   Anisotropy =     7.0112

 20  H    Isotropic =    28.0551   Anisotropy =     7.3372

 21  H    Isotropic =    28.1494   Anisotropy =     6.8654

 22  H    Isotropic =    25.2587   Anisotropy =     8.2674

 23  H    Isotropic =    25.0513   Anisotropy =     5.3502

 24  H    Isotropic =    25.2558   Anisotropy =     4.6623

 25  H    Isotropic =    24.4401   Anisotropy =     7.0648

 26  H    Isotropic =    24.5741   Anisotropy =    10.2317

 27  H    Isotropic =    24.5673   Anisotropy =     7.0483

 28  H    Isotropic =    24.7175   Anisotropy =     8.3101

  Exact polarizability: 289.010   6.538 178.989  -1.086 -10.164  79.416
 Approx polarizability: 418.389   7.561 298.943  -0.644 -26.113 117.634

                     1                      2                      3
                     A                      A                      A
 Frequencies --    54.4956                64.7563                74.2509
 Red. masses --     2.7523                 3.5037                 6.3190
 Frc consts  --     0.0048                 0.0087                 0.0205
 IR Inten    --     1.2444                 0.0686                39.3164

                     4                      5                      6
                     A                      A                      A
 Frequencies --   101.4907               137.0734               160.0315
 Red. masses --     6.3949                 4.5779                 4.4450
 Frc consts  --     0.0388                 0.0507                 0.0671
 IR Inten    --    70.8017                18.7170                21.1540

                     7                      8                      9
                     A                      A                      A
 Frequencies --   208.5524               215.2930               264.1839
 Red. masses --     1.1519                 4.4759                 4.1218
 Frc consts  --     0.0295                 0.1222                 0.1695
 IR Inten    --     0.4403                 6.4002                 0.3947

                    10                     11                     12
                     A                      A                      A
 Frequencies --   304.9253               308.7526               394.3937
 Red. masses --     3.8539                 2.2075                 5.4332
 Frc consts  --     0.2111                 0.1240                 0.4979
 IR Inten    --     9.6925                 3.0378                 6.0873

                    13                     14                     15
                     A                      A                      A
 Frequencies --   410.3483               436.2277               456.8331
 Red. masses --     4.5257                 3.4260                 3.1539
 Frc consts  --     0.4490                 0.3841                 0.3878
 IR Inten    --     8.2154                 5.6629                 1.7155

                    16                     17                     18
                     A                      A                      A
 Frequencies --   528.6473               542.7770               574.3886
 Red. masses --     6.1916                 5.3182                 4.5803
 Frc consts  --     1.0195                 0.9231                 0.8903
 IR Inten    --    16.4856                15.4811                 4.0545

                    19                     20                     21
                     A                      A                      A
 Frequencies --   587.5708               598.8924               609.2978
 Red. masses --     4.0261                 5.3995                 4.4678
 Frc consts  --     0.8189                 1.1410                 0.9772
 IR Inten    --     1.9436                 7.3335                 1.5650

                    22                     23                     24
                     A                      A                      A
 Frequencies --   661.2162               739.7301               743.4914
 Red. masses --     6.9863                 5.0999                 2.0122
 Frc consts  --     1.7996                 1.6442                 0.6553
 IR Inten    --    31.7637                 1.9910                23.5655

                    25                     26                     27
                     A                      A                      A
 Frequencies --   755.6670               783.5803               786.9200
 Red. masses --     2.1157                 2.6866                 2.9033
 Frc consts  --     0.7118                 0.9719                 1.0593
 IR Inten    --    25.0502                13.1450                 2.6711

                    28                     29                     30
                     A                      A                      A
 Frequencies --   796.9182               809.9091               852.6035
 Red. masses --     1.6277                 1.5280                 1.5425
 Frc consts  --     0.6090                 0.5905                 0.6606
 IR Inten    --     2.2383                10.1718                 0.2986

                    31                     32                     33
                     A                      A                      A
 Frequencies --   876.9391               907.8930               915.8495
 Red. masses --     1.4107                 3.2049                 1.3613
 Frc consts  --     0.6392                 1.5564                 0.6727
 IR Inten    --     0.6391                 0.7160                 0.9035

                    34                     35                     36
                     A                      A                      A
 Frequencies --   940.5986               948.9772               956.3600
 Red. masses --     1.2994                 2.4362                 1.2198
 Frc consts  --     0.6773                 1.2926                 0.6573
 IR Inten    --     0.0245                 3.4644                 0.0136

                    37                     38                     39
                     A                      A                      A
 Frequencies --  1014.9455              1050.6244              1063.3030
 Red. masses --     7.4611                 2.1303                 2.3436
 Frc consts  --     4.5284                 1.3855                 1.5612
 IR Inten    --    17.0454                 1.6176                10.5882

                    40                     41                     42
                     A                      A                      A
 Frequencies --  1080.9113              1116.1605              1153.8136
 Red. masses --     3.6016                 1.9427                 1.7213
 Frc consts  --     2.4793                 1.4260                 1.3502
 IR Inten    --     4.4397                 9.6632                18.2416

                    43                     44                     45
                     A                      A                      A
 Frequencies --  1165.9254              1173.0173              1191.5326
 Red. masses --     1.7065                 1.5511                 1.1823
 Frc consts  --     1.3668                 1.2575                 0.9890
 IR Inten    --    10.4879                 0.7028                 6.6804

                    46                     47                     48
                     A                      A                      A
 Frequencies --  1254.7348              1262.7631              1294.8991
 Red. masses --     2.3250                 2.3531                 2.4666
 Frc consts  --     2.1567                 2.2107                 2.4368
 IR Inten    --    20.7481                63.8095                 7.2920

                    49                     50                     51
                     A                      A                      A
 Frequencies --  1327.4515              1357.0219              1364.4731
 Red. masses --     1.4180                 2.2097                 1.9214
 Frc consts  --     1.4722                 2.3974                 2.1077
 IR Inten    --     1.6683                17.7199                31.1566

                    52                     53                     54
                     A                      A                      A
 Frequencies --  1382.5117              1402.3458              1413.4521
 Red. masses --     4.7736                 1.9598                 1.6755
 Frc consts  --     5.3757                 2.2707                 1.9723
 IR Inten    --    52.4498                49.2004                 0.4381

                    55                     56                     57
                     A                      A                      A
 Frequencies --  1437.7064              1452.5331              1494.3468
 Red. masses --     1.2691                 2.9727                 2.1299
 Frc consts  --     1.5455                 3.6953                 2.8023
 IR Inten    --    17.9545                38.7511                10.7165

                    58                     59                     60
                     A                      A                      A
 Frequencies --  1510.9115              1519.7652              1521.7322
 Red. masses --     2.7358                 1.0591                 1.1912
 Frc consts  --     3.6798                 1.4413                 1.6252
 IR Inten    --    67.1327                 4.7480                22.0895

                    61                     62                     63
                     A                      A                      A
 Frequencies --  1528.1026              1536.5761              1586.9167
 Red. masses --     2.6947                 1.0815                 6.2170
 Frc consts  --     3.7074                 1.5044                 9.2245
 IR Inten    --     4.0913                 5.1268                 7.9327

                    64                     65                     66
                     A                      A                      A
 Frequencies --  1627.4479              1633.7541              1666.2627
 Red. masses --     6.1157                 6.4438                 6.6084
 Frc consts  --     9.5435                10.1336                10.8102
 IR Inten    --     8.9533                21.6645                10.2978

                    67                     68                     69
                     A                      A                      A
 Frequencies --  3052.6133              3060.5911              3096.2158
 Red. masses --     1.0358                 1.0602                 1.1047
 Frc consts  --     5.6870                 5.8510                 6.2399
 IR Inten    --    27.3799                33.8691                 7.5195

                    70                     71                     72
                     A                      A                      A
 Frequencies --  3103.8066              3118.7540              3121.8458
 Red. masses --     1.0862                 1.0878                 1.1009
 Frc consts  --     6.1655                 6.2339                 6.3215
 IR Inten    --    44.5100                35.3486                47.4724

                    73                     74                     75
                     A                      A                      A
 Frequencies --  3135.8531              3164.9915              3175.8366
 Red. masses --     1.1041                 1.0916                 1.0844
 Frc consts  --     6.3970                 6.4428                 6.4443
 IR Inten    --    22.7317                35.9907                 1.0937

                    76                     77                     78
                     A                      A                      A
 Frequencies --  3184.3161              3195.3503              3205.2221
 Red. masses --     1.0883                 1.0927                 1.0968
 Frc consts  --     6.5017                 6.5734                 6.6387
 IR Inten    --     7.9128                44.7533                43.5624

 - Thermochemistry -
 -------------------
 Temperature   298.150 Kelvin.  Pressure   1.00000 Atm.
 Atom     1 has atomic number  6 and mass  12.00000

 Molecular mass:   201.11298 amu.
 Principal axes and moments of inertia in atomic units:
                           1         2         3
     Eigenvalues --  1961.624953814.495635607.70957
           X            1.00000  -0.00064   0.00096
           Y            0.00063   1.00000   0.00306
           Z           -0.00096  -0.00306   0.99999
 This molecule is an asymmetric top.
 Rotational symmetry number  1.
 Warning -- assumption of classical behavior for rotation
           may cause significant error
 Rotational temperatures (Kelvin)      0.04415     0.02271     0.01545
 Rotational constants (GHZ):           0.92002     0.47313     0.32183
 Zero-point vibrational energy     584442.6 (Joules/Mol)
                                  139.68513 (Kcal/Mol)
 Warning -- explicit consideration of  21 degrees of freedom as
           vibrations may cause significant error
 Vibrational temperatures:     78.41    93.17   106.83   146.02   197.22
          (Kelvin)            230.25   300.06   309.76   380.10   438.72
                              444.23   567.44   590.40   627.63   657.28
                              760.60   780.93   826.42   845.38   861.67
                              876.64   951.34  1064.31  1069.72  1087.23
                             1127.40  1132.20  1146.59  1165.28  1226.70
                             1261.72  1306.25  1317.70  1353.31  1365.36
                             1375.99  1460.28  1511.61  1529.85  1555.19
                             1605.90  1660.08  1677.50  1687.71  1714.35
                             1805.28  1816.83  1863.07  1909.90  1952.45
                             1963.17  1989.12  2017.66  2033.64  2068.54
                             2089.87  2150.03  2173.86  2186.60  2189.43
                             2198.60  2210.79  2283.22  2341.53  2350.60
                             2397.38  4392.02  4403.50  4454.76  4465.68
                             4487.19  4491.63  4511.79  4553.71  4569.31
                             4581.51  4597.39  4611.59

 Zero-point correction=                           0.222602 (Hartree/Particle)
 Thermal correction to Energy=                    0.235908
 Thermal correction to Enthalpy=                  0.236852
 Thermal correction to Gibbs Free Energy=         0.182459
 Sum of electronic and zero-point Energies=           -602.765735
 Sum of electronic and thermal Energies=              -602.752430
 Sum of electronic and thermal Enthalpies=            -602.751486
 Sum of electronic and thermal Free Energies=         -602.805879

                     E (Thermal)             CV                S
                      KCal/Mol        Cal/Mol-Kelvin    Cal/Mol-Kelvin
 Total                  148.034             52.133            114.480
 Electronic               0.000              0.000              0.000
 Translational            0.889              2.981             41.801
 Rotational               0.889              2.981             32.106
 Vibrational            146.257             46.171             40.573
 Vibration     1          0.596              1.976              4.647
 Vibration     2          0.597              1.971              4.307
 Vibration     3          0.599              1.966              4.037
 Vibration     4          0.604              1.948              3.425
 Vibration     5          0.614              1.916              2.844
 Vibration     6          0.622              1.891              2.549
 Vibration     7          0.642              1.828              2.056
 Vibration     8          0.645              1.818              1.998
 Vibration     9          0.671              1.739              1.634
 Vibration    10          0.696              1.664              1.390
 Vibration    11          0.698              1.657              1.369
 Vibration    12          0.761              1.482              0.983
 Vibration    13          0.775              1.448              0.925
 Vibration    14          0.797              1.391              0.839
 Vibration    15          0.815              1.346              0.775
 Vibration    16          0.884              1.187              0.590
 Vibration    17          0.898              1.156              0.559
 Vibration    18          0.931              1.087              0.496
 Vibration    19          0.945              1.058              0.472
 Vibration    20          0.957              1.034              0.452
 Vibration    21          0.968              1.012              0.434

 Optimization completed.
    -- Stationary point found.
 Normal termination of Gaussian 09 at Sun Oct  3 06:46:57 2021.
 Gaussian 09:  AM64L-G09RevA.02 11-Jun-2009

 ----------------------------------------------------------------------
 #p TD(NStates=10, Root=1) b3lyp/6-31G* volume pop=NPA density=current
 Geom=AllCheck Guess=Read
 ----------------------------------------------------------------------

 CCn1c2ccccc2c2c1cc([Li])cc2_conf_0
 ----------------------------------
 Redundant internal coordinates taken from checkpoint file:
 C14H12LiN_94b8_conf_0.chk
 Charge =  0 Multiplicity = 1

                         Standard orientation:
 ---------------------------------------------------------------------
 Center     Atomic      Atomic             Coordinates (Angstroms)
 Number     Number       Type             X           Y           Z
 ---------------------------------------------------------------------
      1          6           0       -0.056644    3.293791    0.861146
      2          6           0       -0.089392    2.529836   -0.468270
      3          7           0       -0.107158    1.088087   -0.309269
      4          6           0       -1.245286    0.302782   -0.176903
      5          6           0       -2.593457    0.672075   -0.222940
      6          6           0       -3.551602   -0.330557   -0.075973
      7          6           0       -3.181330   -1.671867    0.116889
      8          6           0       -1.836903   -2.035265    0.167717
      9          6           0       -0.853509   -1.050674    0.023940
     10          6           0        0.594036   -1.065751    0.027665
     11          6           0        1.020733    0.271658   -0.170170
     12          6           0        2.378818    0.610513   -0.208566
     13          6           0        3.374704   -0.377654   -0.061700
     14          3           0        5.315102   -0.026295   -0.104312
     15          6           0        2.909290   -1.712353    0.129378
     16          6           0        1.562160   -2.065781    0.176731
     17          1           0       -0.040940    4.375629    0.682363
     18          1           0        0.833909    3.025917    1.439149
     19          1           0       -0.937475    3.057674    1.467302
     20          1           0        0.783210    2.789880   -1.077668
     21          1           0       -0.971966    2.816827   -1.050955
     22          1           0       -2.894897    1.706250   -0.364361
     23          1           0       -4.605251   -0.065007   -0.108717
     24          1           0       -3.951188   -2.430483    0.229319
     25          1           0       -1.553690   -3.074032    0.319711
     26          1           0        2.654807    1.656722   -0.350414
     27          1           0        3.635289   -2.519691    0.249974
     28          1           0        1.263286   -3.101926    0.328461
 ---------------------------------------------------------------------

 SCF Done:  E(RB3LYP) =  -602.988337560     A.U. after    1 cycles

 Excitation energies and oscillator strengths:

 Excited State   1:      Singlet-A      2.6669 eV  464.90 nm  f=0.0001  <S**2>=0.000
      53 -> 54         0.70254
 This state for optimization and/or second-order correction.
 Total Energy, E(TD-HF/TD-KS) =  -602.890330103
 Copying the excited state density for this state as the 1-particle RhoCI density.

 Excited State   2:      Singlet-A      2.8031 eV  442.31 nm  f=0.0081  <S**2>=0.000
      52 -> 54         0.70102

 Excited State   3:      Singlet-A      3.0375 eV  408.18 nm  f=0.1450  <S**2>=0.000
      51 -> 54         0.70281

 Excited State   4:      Singlet-A      3.7760 eV  328.35 nm  f=0.0193  <S**2>=0.000
      52 -> 58        -0.13134
      53 -> 55         0.68713

 Excited State   5:      Singlet-A      4.0997 eV  302.42 nm  f=0.0004  <S**2>=0.000
      50 -> 54        -0.38962
      51 -> 55         0.11298
      53 -> 56         0.57236

 Excited State   6:      Singlet-A      4.1101 eV  301.66 nm  f=0.0003  <S**2>=0.000
      50 -> 54         0.58057
      53 -> 56         0.39300

 Excited State   7:      Singlet-A      4.1295 eV  300.24 nm  f=0.3288  <S**2>=0.000
      51 -> 55         0.12971
      52 -> 55         0.66304
      53 -> 58         0.15276

 Excited State   8:      Singlet-A      4.1606 eV  297.99 nm  f=0.0637  <S**2>=0.000
      51 -> 55         0.67728
      52 -> 55        -0.12805
      53 -> 56        -0.10067

 Excited State   9:      Singlet-A      4.2723 eV  290.20 nm  f=0.0010  <S**2>=0.000
      52 -> 56         0.69454

 Excited State  10:      Singlet-A      4.3108 eV  287.61 nm  f=0.0325  <S**2>=0.000
      51 -> 56         0.68936

 The electronic state is 1-A.
 Alpha  occ. eigenvalues --  -14.34843 -10.21673 -10.19775 -10.18696 -10.17344
 Alpha  occ. eigenvalues --  -10.16740 -10.16608 -10.16502 -10.16142 -10.15922
 Alpha  occ. eigenvalues --  -10.15362 -10.15281 -10.14931 -10.14350 -10.11739
 Alpha  occ. eigenvalues --   -2.00325  -0.95691  -0.82337  -0.80525  -0.76192
 Alpha  occ. eigenvalues --   -0.73081  -0.71727  -0.68660  -0.67427  -0.63053
 Alpha  occ. eigenvalues --   -0.58841  -0.57333  -0.54293  -0.54042  -0.49242
 Alpha  occ. eigenvalues --   -0.47525  -0.46394  -0.43794  -0.43038  -0.41998
 Alpha  occ. eigenvalues --   -0.41474  -0.40458  -0.39038  -0.38362  -0.37622
 Alpha  occ. eigenvalues --   -0.36465  -0.35976  -0.34607  -0.33332  -0.31871
 Alpha  occ. eigenvalues --   -0.31205  -0.29967  -0.28406  -0.24477  -0.22052
 Alpha  occ. eigenvalues --   -0.19270  -0.17827  -0.16905
 Alpha virt. eigenvalues --   -0.05219  -0.00896   0.00241   0.01627   0.03572
 Alpha virt. eigenvalues --    0.05534   0.05987   0.07351   0.09760   0.11453
 Alpha virt. eigenvalues --    0.11538   0.12721   0.13297   0.14635   0.15326

 Mulliken atomic charges:
              1
     1  C   -0.453479
     2  C   -0.180300
     3  N   -0.575461
     4  C    0.314122
     5  C   -0.155645
     6  C   -0.143499
     7  C   -0.125280
     8  C   -0.192385
     9  C    0.088894
    10  C    0.057015
    11  C    0.347661
    12  C   -0.236652
    13  C   -0.029563
    14  Li  -0.384981
    15  C   -0.177834
    16  C   -0.158295
    17  H    0.177161
    18  H    0.189548
    19  H    0.167956
    20  H    0.201130
    21  H    0.178797
    22  H    0.157071
    23  H    0.152526
    24  H    0.158030
    25  H    0.159119
    26  H    0.152409
    27  H    0.166493
    28  H    0.145443
 Sum of Mulliken atomic charges =  -0.00000

 Dipole moment (field-independent basis, Debye):
    X=            -16.5993    Y=              0.8670    Z=              0.1830  Tot=             16.6230
 Quadrupole moment (field-independent basis, Debye-Ang):
   XX=           -181.2982   YY=            -73.3373   ZZ=            -98.4261
   XY=             -4.9960   XZ=              2.4226   YZ=             -2.6264

 Summary of Natural Population Analysis:

                                       Natural Population
                Natural  -----------------------------------------------
    Atom  No    Charge         Core      Valence    Rydberg      Total
 -----------------------------------------------------------------------
      C    1   -0.68941      1.99944     4.68258    0.00739     6.68941
      C    2   -0.26594      1.99934     4.25141    0.01520     6.26594
      N    3   -0.26295      1.99925     5.25207    0.01163     7.26295
      C    4    0.15708      1.99900     3.82612    0.01781     5.84292
      C    5   -0.22059      1.99902     4.20941    0.01217     6.22059
      C    6   -0.23822      1.99913     4.22493    0.01416     6.23822
      C    7   -0.19923      1.99912     4.18654    0.01357     6.19923
      C    8   -0.19543      1.99904     4.18367    0.01272     6.19543
      C    9   -0.04484      1.99901     4.03093    0.01490     6.04484
      C   10   -0.09042      1.99899     4.07644    0.01499     6.09042
      C   11    0.19100      1.99896     3.79225    0.01779     5.80900
      C   12   -0.21945      1.99902     4.20595    0.01447     6.21945
      C   13   -0.42273      1.99930     4.40059    0.02284     6.42273
     Li   14   -0.13889      1.99861     1.13657    0.00371     3.13889
      C   15   -0.15701      1.99913     4.14262    0.01526     6.15701
      C   16   -0.17260      1.99902     4.16105    0.01253     6.17260
      H   17    0.25299      0.00000     0.74662    0.00039     0.74701
      H   18    0.25053      0.00000     0.74867    0.00080     0.74947
      H   19    0.23893      0.00000     0.76022    0.00085     0.76107
      H   20    0.26401      0.00000     0.73483    0.00116     0.73599
      H   21    0.24996      0.00000     0.74876    0.00128     0.75004
      H   22    0.24670      0.00000     0.75257    0.00073     0.75330
      H   23    0.24994      0.00000     0.74947    0.00059     0.75006
      H   24    0.24988      0.00000     0.74959    0.00054     0.75012
      H   25    0.25049      0.00000     0.74876    0.00076     0.74951
      H   26    0.23149      0.00000     0.76730    0.00120     0.76851
      H   27    0.23813      0.00000     0.76094    0.00093     0.76187
      H   28    0.23903      0.00000     0.75967    0.00130     0.76097
 =======================================================================
   * Total *   -0.00758     31.98538    73.79051    0.23169   106.00758

 Normal termination of Gaussian 09 at Sun Oct  3 12:30:41 2021.
