 Gaussian 09, Revision A.02,

 -----------------------------------
 #p opt b3lyp/6-31G* scf=(xqc,tight)
 -----------------------------------

 -----------------------------
 O=C(c1ccccc1)Cc1ccccc1_conf_0
 -----------------------------
 Symbolic Z-matrix:
 Charge =  0 Multiplicity = 1

 SCF Done:  E(RB3LYP) =  -615.942398081     A.U. after   15 cycles
 SCF Done:  E(RB3LYP) =  -615.943680424     A.U. after   13 cycles
 SCF Done:  E(RB3LYP) =  -615.942415246     A.U. after   13 cycles
 SCF Done:  E(RB3LYP) =  -615.944009650     A.U. after   12 cycles
 SCF Done:  E(RB3LYP) =  -615.944105313     A.U. after   11 cycles
 SCF Done:  E(RB3LYP) =  -615.944130703     A.U. after   11 cycles
 SCF Done:  E(RB3LYP) =  -615.944144202     A.U. after   11 cycles
 SCF Done:  E(RB3LYP) =  -615.944147182     A.U. after   10 cycles
 SCF Done:  E(RB3LYP) =  -615.944147296     A.U. after    8 cycles
 Optimization completed.
    -- Stationary point found.
 Normal termination of Gaussian 09 at Mon Oct  4 05:39:21 2021.

 ----------------------------------------------------------------------
 #p freq b3lyp/6-31G* volume NMR pop=NPA density=current Geom=AllCheck
 Guess=Read
 ----------------------------------------------------------------------

 O=C(c1ccccc1)Cc1ccccc1_conf_0
 -----------------------------
 Redundant internal coordinates taken from checkpoint file:
 C14H12O_9698_conf_0.chk
 Charge =  0 Multiplicity = 1

 SCF Done:  E(RB3LYP) =  -615.944147296     A.U. after    1 cycles

  1  O    Isotropic =  -253.8530   Anisotropy =   912.0444

  2  C    Isotropic =     1.9939   Anisotropy =   152.2706

  3  C    Isotropic =    61.1156   Anisotropy =   159.0467

  4  C    Isotropic =    65.7141   Anisotropy =   182.1176

  5  C    Isotropic =    68.0067   Anisotropy =   165.7135

  6  C    Isotropic =    64.0712   Anisotropy =   172.9689

  7  C    Isotropic =    68.7224   Anisotropy =   163.7706

  8  C    Isotropic =    65.9695   Anisotropy =   167.7001

  9  C    Isotropic =   142.8139   Anisotropy =    22.1487

 10  C    Isotropic =    60.7157   Anisotropy =   172.3007

 11  C    Isotropic =    68.3846   Anisotropy =   167.2496

 12  C    Isotropic =    67.6436   Anisotropy =   166.0847

 13  C    Isotropic =    69.7198   Anisotropy =   166.1146

 14  C    Isotropic =    67.6815   Anisotropy =   164.5841

 15  C    Isotropic =    67.5513   Anisotropy =   144.2583

 16  H    Isotropic =    23.9711   Anisotropy =     6.9837

 17  H    Isotropic =    24.8668   Anisotropy =     4.6985

 18  H    Isotropic =    24.9008   Anisotropy =     4.6769

 19  H    Isotropic =    25.0226   Anisotropy =     5.8941

 20  H    Isotropic =    24.4055   Anisotropy =     9.0445

 21  H    Isotropic =    28.1664   Anisotropy =     2.1704

 22  H    Isotropic =    28.4502   Anisotropy =     5.7691

 23  H    Isotropic =    24.7142   Anisotropy =     8.1930

 24  H    Isotropic =    25.0084   Anisotropy =     4.8841

 25  H    Isotropic =    25.1146   Anisotropy =     3.9827

 26  H    Isotropic =    24.9791   Anisotropy =     4.6942

 27  H    Isotropic =    25.0128   Anisotropy =     6.4602

  Exact polarizability: 166.273  -4.588 148.022   1.285 -15.149 100.015
 Approx polarizability: 227.600 -10.311 272.803   3.466 -37.969 170.961

                     1                      2                      3
                     A                      A                      A
 Frequencies --    23.0678                30.3187                50.4991
 Red. masses --     4.5296                 4.3810                 4.0163
 Frc consts  --     0.0014                 0.0024                 0.0060
 IR Inten    --     0.7887                 0.2981                 0.3420

                     4                      5                      6
                     A                      A                      A
 Frequencies --   106.6535               153.2478               178.7207
 Red. masses --     7.0063                 4.8450                 4.7764
 Frc consts  --     0.0470                 0.0670                 0.0899
 IR Inten    --     2.8278                 0.3462                 0.6241

                     7                      8                      9
                     A                      A                      A
 Frequencies --   239.4882               313.3069               378.7887
 Red. masses --     4.3987                 4.0787                 3.3760
 Frc consts  --     0.1486                 0.2359                 0.2854
 IR Inten    --     4.8030                 2.8742                 0.4160

                    10                     11                     12
                     A                      A                      A
 Frequencies --   414.0090               418.5059               432.0535
 Red. masses --     2.9630                 3.0326                 4.2617
 Frc consts  --     0.2992                 0.3129                 0.4687
 IR Inten    --     0.1110                 0.0356                 0.8873

                    13                     14                     15
                     A                      A                      A
 Frequencies --   472.1388               481.3859               539.8796
 Red. masses --     4.2709                 3.1866                 4.5226
 Frc consts  --     0.5609                 0.4351                 0.7767
 IR Inten    --     1.1869                 0.4778                 7.5468

                    16                     17                     18
                     A                      A                      A
 Frequencies --   605.5271               631.9594               636.9207
 Red. masses --     4.3689                 6.3879                 6.0337
 Frc consts  --     0.9438                 1.5031                 1.4421
 IR Inten    --    37.4067                 1.3120                 3.6086

                    19                     20                     21
                     A                      A                      A
 Frequencies --   697.7393               709.3008               717.5642
 Red. masses --     3.7077                 2.0035                 2.3644
 Frc consts  --     1.0635                 0.5939                 0.7173
 IR Inten    --     2.7667                34.6474                22.3802

                    22                     23                     24
                     A                      A                      A
 Frequencies --   738.6245               774.1075               793.3568
 Red. masses --     1.9522                 1.7890                 3.3943
 Frc consts  --     0.6275                 0.6316                 1.2587
 IR Inten    --    31.7351                26.9233                 4.0489

                    25                     26                     27
                     A                      A                      A
 Frequencies --   857.3133               862.4752               865.3470
 Red. masses --     2.8517                 1.3170                 1.2460
 Frc consts  --     1.2349                 0.5772                 0.5497
 IR Inten    --     2.8514                 0.2265                 0.2387

                    28                     29                     30
                     A                      A                      A
 Frequencies --   929.4570               944.3041               953.6772
 Red. masses --     1.4203                 1.5985                 2.0105
 Frc consts  --     0.7229                 0.8398                 1.0774
 IR Inten    --     0.5909                 3.5894                13.5634

                    31                     32                     33
                     A                      A                      A
 Frequencies --   973.0563               983.5086               998.5540
 Red. masses --     1.3414                 1.3550                 1.2611
 Frc consts  --     0.7483                 0.7722                 0.7408
 IR Inten    --     0.0876                 0.4228                 0.0788

                    34                     35                     36
                     A                      A                      A
 Frequencies --  1009.8092              1017.2914              1019.3733
 Red. masses --     1.2931                 5.9443                 6.0608
 Frc consts  --     0.7769                 3.6245                 3.7106
 IR Inten    --     0.3130                 4.5405                 0.3929

                    37                     38                     39
                     A                      A                      A
 Frequencies --  1043.3405              1059.7138              1064.5877
 Red. masses --     3.7617                 2.2670                 1.9455
 Frc consts  --     2.4126                 1.5000                 1.2991
 IR Inten    --    24.0446                 3.5821                 5.9548

                    40                     41                     42
                     A                      A                      A
 Frequencies --  1113.3159              1116.3317              1180.5580
 Red. masses --     1.6227                 1.5519                 1.3870
 Frc consts  --     1.1851                 1.1395                 1.1390
 IR Inten    --     4.6684                 1.1337                44.6917

                    43                     44                     45
                     A                      A                      A
 Frequencies --  1193.0787              1194.4340              1212.4793
 Red. masses --     1.1077                 1.1079                 1.1738
 Frc consts  --     0.9290                 0.9313                 1.0167
 IR Inten    --     0.1149                 0.1130                13.8487

                    46                     47                     48
                     A                      A                      A
 Frequencies --  1216.0466              1218.5835              1300.3149
 Red. masses --     2.0314                 1.3162                 2.9899
 Frc consts  --     1.7699                 1.1516                 2.9785
 IR Inten    --     1.2670                 1.7931               182.5653

                    49                     50                     51
                     A                      A                      A
 Frequencies --  1311.0409              1350.4461              1361.6295
 Red. masses --     1.5274                 1.9373                 4.3550
 Frc consts  --     1.5468                 2.0816                 4.7573
 IR Inten    --     3.0628                 6.1309                 9.8215

                    52                     53                     54
                     A                      A                      A
 Frequencies --  1368.9385              1376.3466              1494.2753
 Red. masses --     2.9344                 1.3104                 2.1443
 Frc consts  --     3.2400                 1.4626                 2.8209
 IR Inten    --     3.8398                14.0304                13.0685

                    55                     56                     57
                     A                      A                      A
 Frequencies --  1500.4274              1509.5894              1540.2689
 Red. masses --     1.9963                 1.2018                 2.1332
 Frc consts  --     2.6479                 1.6136                 2.9818
 IR Inten    --     7.7781                12.6955                 1.2801

                    58                     59                     60
                     A                      A                      A
 Frequencies --  1545.8119              1638.0741              1643.1586
 Red. masses --     2.1435                 5.4107                 5.4719
 Frc consts  --     3.0177                 8.5540                 8.7045
 IR Inten    --    15.6416                11.2058                 1.6937

                    61                     62                     63
                     A                      A                      A
 Frequencies --  1658.2833              1662.7378              1762.9494
 Red. masses --     5.4614                 5.4551                11.3492
 Frc consts  --     8.8485                 8.8859                20.7824
 IR Inten    --    22.5320                 9.0880               152.4883

                    64                     65                     66
                     A                      A                      A
 Frequencies --  3068.6223              3113.9744              3173.3012
 Red. masses --     1.0587                 1.1051                 1.0867
 Frc consts  --     5.8735                 6.3138                 6.4472
 IR Inten    --    13.4377                10.7194                10.5339

                    67                     68                     69
                     A                      A                      A
 Frequencies --  3184.5497              3185.8834              3193.7357
 Red. masses --     1.0865                 1.0856                 1.0908
 Frc consts  --     6.4921                 6.4918                 6.5550
 IR Inten    --     0.6460                 0.1735                20.9561

                    70                     71                     72
                     A                      A                      A
 Frequencies --  3196.9055              3202.9473              3207.9936
 Red. masses --     1.0896                 1.0936                 1.0943
 Frc consts  --     6.5611                 6.6100                 6.6353
 IR Inten    --    13.6266                22.6992                28.6964

                    73                     74                     75
                     A                      A                      A
 Frequencies --  3211.1725              3223.1764              3227.0747
 Red. masses --     1.0977                 1.0926                 1.0930
 Frc consts  --     6.6692                 6.6875                 6.7063
 IR Inten    --    17.3730                10.8344                 5.3898

 - Thermochemistry -
 -------------------
 Temperature   298.150 Kelvin.  Pressure   1.00000 Atm.
 Atom     1 has atomic number  8 and mass  15.99491

 Molecular mass:   196.08882 amu.
 Principal axes and moments of inertia in atomic units:
                           1         2         3
     Eigenvalues --  1576.705515000.585005709.87362
           X            1.00000   0.00147   0.00117
           Y           -0.00144   0.99975  -0.02216
           Z           -0.00120   0.02216   0.99975
 This molecule is an asymmetric top.
 Rotational symmetry number  1.
 Warning -- assumption of classical behavior for rotation
           may cause significant error
 Rotational temperatures (Kelvin)      0.05493     0.01732     0.01517
 Rotational constants (GHZ):           1.14463     0.36091     0.31607
 Zero-point vibrational energy     578857.6 (Joules/Mol)
                                  138.35028 (Kcal/Mol)
 Warning -- explicit consideration of  16 degrees of freedom as
           vibrations may cause significant error
 Vibrational temperatures:     33.19    43.62    72.66   153.45   220.49
          (Kelvin)            257.14   344.57   450.78   544.99   595.67
                              602.14   621.63   679.30   692.61   776.77
                              871.22   909.25   916.39  1003.89  1020.52
                             1032.41  1062.71  1113.77  1141.46  1233.48
                             1240.91  1245.04  1337.28  1358.64  1372.13
                             1400.01  1415.05  1436.69  1452.89  1463.65
                             1466.65  1501.13  1524.69  1531.70  1601.81
                             1606.15  1698.56  1716.57  1718.52  1744.49
                             1749.62  1753.27  1870.86  1886.29  1942.99
                             1959.08  1969.59  1980.25  2149.93  2158.78
                             2171.96  2216.10  2224.08  2356.82  2364.14
                             2385.90  2392.31  2536.49  4415.06  4480.31
                             4565.67  4581.85  4583.77  4595.07  4599.63
                             4608.32  4615.58  4620.16  4637.43  4643.03

 Zero-point correction=                           0.220475 (Hartree/Particle)
 Thermal correction to Energy=                    0.232556
 Thermal correction to Enthalpy=                  0.233500
 Thermal correction to Gibbs Free Energy=         0.179783
 Sum of electronic and zero-point Energies=           -615.723672
 Sum of electronic and thermal Energies=              -615.711592
 Sum of electronic and thermal Enthalpies=            -615.710647
 Sum of electronic and thermal Free Energies=         -615.764364

                     E (Thermal)             CV                S
                      KCal/Mol        Cal/Mol-Kelvin    Cal/Mol-Kelvin
 Total                  145.931             47.396            113.057
 Electronic               0.000              0.000              0.000
 Translational            0.889              2.981             41.725
 Rotational               0.889              2.981             32.176
 Vibrational            144.153             41.434             39.155
 Vibration     1          0.593              1.985              6.351
 Vibration     2          0.594              1.984              5.808
 Vibration     3          0.595              1.977              4.798
 Vibration     4          0.606              1.944              3.329
 Vibration     5          0.619              1.899              2.632
 Vibration     6          0.629              1.868              2.342
 Vibration     7          0.657              1.780              1.807
 Vibration     8          0.701              1.648              1.345
 Vibration     9          0.749              1.515              1.044
 Vibration    10          0.778              1.440              0.913
 Vibration    11          0.781              1.430              0.897
 Vibration    12          0.793              1.400              0.852
 Vibration    13          0.829              1.312              0.732
 Vibration    14          0.838              1.291              0.706
 Vibration    15          0.895              1.162              0.566
 Vibration    16          0.964              1.020              0.440

 Normal termination of Gaussian 09 at Mon Oct  4 07:21:12 2021.
 Gaussian 09:  AM64L-G09RevA.02 11-Jun-2009

 ----------------------------------------------------------------------
 #p TD(NStates=10, Root=1) b3lyp/6-31G* volume pop=NPA density=current
 Geom=AllCheck Guess=Read
 ----------------------------------------------------------------------

 O=C(c1ccccc1)Cc1ccccc1_conf_0
 -----------------------------
 Redundant internal coordinates taken from checkpoint file:
 C14H12O_9698_conf_0.chk
 Charge =  0 Multiplicity = 1

                         Standard orientation:
 ---------------------------------------------------------------------
 Center     Atomic      Atomic             Coordinates (Angstroms)
 Number     Number       Type             X           Y           Z
 ---------------------------------------------------------------------
      1          8           0       -0.650116    2.520566    0.111132
      2          6           0       -0.576657    1.372366    0.526312
      3          6           0       -1.635726    0.368598    0.188456
      4          6           0       -2.762613    0.817060   -0.520347
      5          6           0       -3.784231   -0.065315   -0.855342
      6          6           0       -3.690558   -1.412658   -0.492753
      7          6           0       -2.571582   -1.870976    0.204623
      8          6           0       -1.550088   -0.985249    0.546860
      9          6           0        0.625013    0.958811    1.382535
     10          6           0        1.722918    0.298825    0.559553
     11          6           0        2.225112    0.932096   -0.586364
     12          6           0        3.243075    0.341764   -1.334411
     13          6           0        3.776463   -0.890568   -0.949444
     14          6           0        3.284950   -1.527216    0.190318
     15          6           0        2.264205   -0.935701    0.937282
     16          1           0       -2.811401    1.865863   -0.794125
     17          1           0       -4.653854    0.292662   -1.399761
     18          1           0       -4.487510   -2.103537   -0.755073
     19          1           0       -2.493244   -2.918661    0.481708
     20          1           0       -0.680105   -1.358536    1.076476
     21          1           0        0.315962    0.294565    2.196190
     22          1           0        0.999990    1.884482    1.832124
     23          1           0        1.811472    1.890643   -0.888060
     24          1           0        3.620855    0.845932   -2.220075
     25          1           0        4.570135   -1.349385   -1.532898
     26          1           0        3.694925   -2.484706    0.501073
     27          1           0        1.892009   -1.434872    1.829686
 ---------------------------------------------------------------------

 SCF Done:  E(RB3LYP) =  -615.944147296     A.U. after    1 cycles

 Excitation energies and oscillator strengths:

 Excited State   1:      Singlet-A      3.6204 eV  342.46 nm  f=0.0045  <S**2>=0.000
      48 -> 53         0.14209
      49 -> 53        -0.14110
      50 -> 53         0.30362
      52 -> 53         0.59038
 This state for optimization and/or second-order correction.
 Total Energy, E(TD-HF/TD-KS) =  -615.811100988
 Copying the excited state density for this state as the 1-particle RhoCI density.

 Excited State   2:      Singlet-A      4.4929 eV  275.95 nm  f=0.0341  <S**2>=0.000
      48 -> 53         0.18099
      49 -> 53        -0.23373
      50 -> 53         0.45763
      51 -> 53         0.23727
      52 -> 53        -0.37144

 Excited State   3:      Singlet-A      4.6380 eV  267.32 nm  f=0.0012  <S**2>=0.000
      49 -> 53         0.13708
      50 -> 53        -0.19579
      51 -> 53         0.65448

 Excited State   4:      Singlet-A      4.7554 eV  260.72 nm  f=0.0225  <S**2>=0.000
      48 -> 53         0.33515
      48 -> 54         0.14639
      49 -> 53         0.54272
      50 -> 53         0.16146
      50 -> 54        -0.15433

 Excited State   5:      Singlet-A      5.2157 eV  237.71 nm  f=0.2413  <S**2>=0.000
      48 -> 53         0.53215
      49 -> 53        -0.25153
      49 -> 54        -0.13511
      50 -> 53        -0.33565

 Excited State   6:      Singlet-A      5.3896 eV  230.05 nm  f=0.0092  <S**2>=0.000
      50 -> 55        -0.10721
      51 -> 54        -0.19705
      51 -> 55         0.11767
      51 -> 56        -0.34362
      52 -> 54        -0.28529
      52 -> 55         0.41007
      52 -> 56         0.23052

 Excited State   7:      Singlet-A      5.4749 eV  226.46 nm  f=0.0096  <S**2>=0.000
      50 -> 54         0.18990
      52 -> 54         0.59547
      52 -> 55         0.28901

 Excited State   8:      Singlet-A      5.8305 eV  212.65 nm  f=0.0413  <S**2>=0.000
      50 -> 54         0.13916
      50 -> 55        -0.17092
      50 -> 56         0.15178
      51 -> 55         0.11461
      52 -> 55        -0.30675
      52 -> 56         0.52409

 Excited State   9:      Singlet-A      6.0171 eV  206.05 nm  f=0.0135  <S**2>=0.000
      48 -> 54        -0.11002
      48 -> 55         0.13384
      49 -> 54         0.10302
      49 -> 55        -0.12600
      50 -> 54        -0.28017
      50 -> 55         0.35267
      50 -> 56         0.18456
      51 -> 55         0.10755
      51 -> 56         0.21913
      52 -> 55         0.23145
      52 -> 56         0.25198

 Excited State  10:      Singlet-A      6.0423 eV  205.19 nm  f=0.0068  <S**2>=0.000
      48 -> 54         0.12258
      49 -> 54        -0.12144
      50 -> 54         0.35884
      50 -> 55         0.14097
      51 -> 54         0.50018
      52 -> 54        -0.16320

 The electronic state is 1-A.
 Alpha  occ. eigenvalues --  -19.13624 -10.27610 -10.20350 -10.20344 -10.20318
 Alpha  occ. eigenvalues --  -10.20171 -10.19959 -10.19800 -10.19678 -10.19646
 Alpha  occ. eigenvalues --  -10.19194 -10.19140 -10.19041 -10.18968 -10.18688
 Alpha  occ. eigenvalues --   -1.03570  -0.86251  -0.85609  -0.78699  -0.76006
 Alpha  occ. eigenvalues --   -0.75278  -0.74412  -0.70435  -0.63239  -0.61143
 Alpha  occ. eigenvalues --   -0.60628  -0.58847  -0.55294  -0.51924  -0.50631
 Alpha  occ. eigenvalues --   -0.47283  -0.46398  -0.45978  -0.45326  -0.43648
 Alpha  occ. eigenvalues --   -0.42941  -0.42600  -0.41935  -0.41505  -0.39200
 Alpha  occ. eigenvalues --   -0.38577  -0.36489  -0.35782  -0.35488  -0.34797
 Alpha  occ. eigenvalues --   -0.34238  -0.33873  -0.26240  -0.25790  -0.25466
 Alpha  occ. eigenvalues --   -0.25027  -0.23616
 Alpha virt. eigenvalues --   -0.05722  -0.00909  -0.00271   0.00022   0.04033
 Alpha virt. eigenvalues --    0.08407   0.09779   0.11674   0.13629   0.14515
 Alpha virt. eigenvalues --    0.14951   0.16004   0.16317   0.16610   0.17134

 Mulliken atomic charges:
              1
     1  O   -0.347722
     2  C    0.307833
     3  C    0.111552
     4  C   -0.187689
     5  C   -0.130212
     6  C   -0.147656
     7  C   -0.132985
     8  C   -0.197121
     9  C   -0.431656
    10  C    0.185513
    11  C   -0.164778
    12  C   -0.127139
    13  C   -0.122473
    14  C   -0.125956
    15  C   -0.185465
    16  H    0.135262
    17  H    0.124248
    18  H    0.116242
    19  H    0.121710
    20  H    0.113078
    21  H    0.184462
    22  H    0.189277
    23  H    0.155561
    24  H    0.141338
    25  H    0.140819
    26  H    0.139724
    27  H    0.134236
 Sum of Mulliken atomic charges =  -0.00000

 Dipole moment (field-independent basis, Debye):
    X=              3.0292    Y=             -1.0446    Z=              0.7289  Tot=              3.2861
 Quadrupole moment (field-independent basis, Debye-Ang):
   XX=            -82.0165   YY=            -85.1244   ZZ=            -83.5673
   XY=             -1.2118   XZ=             -0.1519   YZ=             -2.0438

 Summary of Natural Population Analysis:

                                       Natural Population
                Natural  -----------------------------------------------
    Atom  No    Charge         Core      Valence    Rydberg      Total
 -----------------------------------------------------------------------
      O    1   -0.31355      1.99980     6.29536    0.01838     8.31355
      C    2    0.37811      1.99926     3.58737    0.03526     5.62189
      C    3   -0.15002      1.99889     4.13576    0.01537     6.15002
      C    4   -0.23238      1.99905     4.21884    0.01449     6.23238
      C    5   -0.22859      1.99910     4.21563    0.01386     6.22859
      C    6   -0.27080      1.99910     4.25713    0.01457     6.27080
      C    7   -0.22982      1.99910     4.21646    0.01426     6.22982
      C    8   -0.24057      1.99904     4.22878    0.01276     6.24057
      C    9   -0.49538      1.99916     4.48304    0.01318     6.49538
      C   10   -0.02152      1.99899     4.00768    0.01484     6.02152
      C   11   -0.21369      1.99902     4.20185    0.01282     6.21369
      C   12   -0.22505      1.99911     4.21191    0.01403     6.22505
      C   13   -0.21614      1.99909     4.20353    0.01351     6.21614
      C   14   -0.22510      1.99910     4.21204    0.01397     6.22510
      C   15   -0.22507      1.99901     4.21325    0.01281     6.22507
      H   16    0.23836      0.00000     0.76065    0.00099     0.76164
      H   17    0.23512      0.00000     0.76404    0.00084     0.76488
      H   18    0.22991      0.00000     0.76927    0.00081     0.77009
      H   19    0.23355      0.00000     0.76562    0.00083     0.76645
      H   20    0.22376      0.00000     0.77506    0.00118     0.77624
      H   21    0.26710      0.00000     0.73159    0.00131     0.73290
      H   22    0.27402      0.00000     0.72374    0.00224     0.72598
      H   23    0.24713      0.00000     0.75116    0.00171     0.75287
      H   24    0.24216      0.00000     0.75701    0.00083     0.75784
      H   25    0.24068      0.00000     0.75852    0.00080     0.75932
      H   26    0.24160      0.00000     0.75756    0.00084     0.75840
      H   27    0.23616      0.00000     0.76275    0.00109     0.76384
 =======================================================================
   * Total *    0.00000     29.98681    73.76560    0.24758   104.00000

 Normal termination of Gaussian 09 at Mon Oct  4 12:45:53 2021.
