 Gaussian 09, Revision A.02,

 -----------------------------------
 #p opt b3lyp/6-31G* scf=(xqc,tight)
 -----------------------------------

 ----------------------------------
 O=C(C(C)C)Oc1ccc2c(c1)cccc2_conf_0
 ----------------------------------
 Symbolic Z-matrix:
 Charge =  0 Multiplicity = 1

 SCF Done:  E(RB3LYP) =  -692.392141218     A.U. after   15 cycles
 SCF Done:  E(RB3LYP) =  -692.397283860     A.U. after   12 cycles
 SCF Done:  E(RB3LYP) =  -692.397532796     A.U. after   12 cycles
 SCF Done:  E(RB3LYP) =  -692.397401789     A.U. after   12 cycles
 SCF Done:  E(RB3LYP) =  -692.397659385     A.U. after   11 cycles
 SCF Done:  E(RB3LYP) =  -692.397727664     A.U. after   11 cycles
 SCF Done:  E(RB3LYP) =  -692.397753395     A.U. after   10 cycles
 SCF Done:  E(RB3LYP) =  -692.397812210     A.U. after   12 cycles
 SCF Done:  E(RB3LYP) =  -692.397825168     A.U. after   11 cycles
 SCF Done:  E(RB3LYP) =  -692.397857568     A.U. after   11 cycles
 SCF Done:  E(RB3LYP) =  -692.397858867     A.U. after    8 cycles
 SCF Done:  E(RB3LYP) =  -692.397859379     A.U. after    8 cycles
 SCF Done:  E(RB3LYP) =  -692.397859765     A.U. after    8 cycles
 SCF Done:  E(RB3LYP) =  -692.397860531     A.U. after    9 cycles
 SCF Done:  E(RB3LYP) =  -692.397861737     A.U. after   10 cycles
 SCF Done:  E(RB3LYP) =  -692.397862430     A.U. after   10 cycles
 SCF Done:  E(RB3LYP) =  -692.397862525     A.U. after    8 cycles
 Optimization completed.
    -- Stationary point found.
 Normal termination of Gaussian 09 at Wed Sep 29 02:45:05 2021.

 ----------------------------------------------------------------------
 #p freq b3lyp/6-31G* volume NMR pop=NPA density=current Geom=AllCheck
 Guess=Read
 ----------------------------------------------------------------------

 O=C(C(C)C)Oc1ccc2c(c1)cccc2_conf_0
 ----------------------------------
 Redundant internal coordinates taken from checkpoint file:
 C14H14O2_b4e7_conf_0.chk
 Charge =  0 Multiplicity = 1

 SCF Done:  E(RB3LYP) =  -692.397862525     A.U. after    1 cycles

  1  O    Isotropic =   -67.0264   Anisotropy =   581.6768

  2  C    Isotropic =    23.4982   Anisotropy =    74.3896

  3  C    Isotropic =   152.9947   Anisotropy =    27.8323

  4  C    Isotropic =   168.7487   Anisotropy =    30.2176

  5  C    Isotropic =   170.9238   Anisotropy =    23.2546

  6  O    Isotropic =   108.4759   Anisotropy =   172.3516

  7  C    Isotropic =    45.9206   Anisotropy =   105.2480

  8  C    Isotropic =    76.7968   Anisotropy =   135.3432

  9  C    Isotropic =    67.0648   Anisotropy =   143.2746

 10  C    Isotropic =    66.2342   Anisotropy =   195.8795

 11  C    Isotropic =    62.6414   Anisotropy =   194.9069

 12  C    Isotropic =    77.0607   Anisotropy =   132.8306

 13  C    Isotropic =    67.0857   Anisotropy =   146.2487

 14  C    Isotropic =    69.8610   Anisotropy =   162.7525

 15  C    Isotropic =    70.9133   Anisotropy =   160.9417

 16  C    Isotropic =    68.1225   Anisotropy =   145.4356

 17  H    Isotropic =    29.4571   Anisotropy =     4.6327

 18  H    Isotropic =    31.0265   Anisotropy =     6.5332

 19  H    Isotropic =    30.4527   Anisotropy =     8.1276

 20  H    Isotropic =    30.9318   Anisotropy =     8.8015

 21  H    Isotropic =    30.6846   Anisotropy =     6.8948

 22  H    Isotropic =    31.3828   Anisotropy =     8.7655

 23  H    Isotropic =    30.7611   Anisotropy =     8.8427

 24  H    Isotropic =    25.1950   Anisotropy =     7.0870

 25  H    Isotropic =    24.6121   Anisotropy =     6.8135

 26  H    Isotropic =    23.6092   Anisotropy =    11.5665

 27  H    Isotropic =    24.5370   Anisotropy =     7.7527

 28  H    Isotropic =    24.7695   Anisotropy =     5.3022

 29  H    Isotropic =    24.8310   Anisotropy =     4.9942

 30  H    Isotropic =    24.6372   Anisotropy =     6.8415

  Exact polarizability: 236.532  11.869 156.891  -6.993  -1.895  69.697
 Approx polarizability: 334.918  25.861 279.971 -15.642  -9.935 108.407

                     1                      2                      3
                     A                      A                      A
 Frequencies --     8.0797                37.4813                40.4744
 Red. masses --     4.3249                 3.7610                 4.5741
 Frc consts  --     0.0002                 0.0031                 0.0044
 IR Inten    --     0.9288                 0.5106                 0.4199

                     4                      5                      6
                     A                      A                      A
 Frequencies --    89.5667               141.3433               184.8322
 Red. masses --     4.5840                 4.9589                 3.7440
 Frc consts  --     0.0217                 0.0584                 0.0754
 IR Inten    --     0.9414                 0.2074                 0.3536

                     7                      8                      9
                     A                      A                      A
 Frequencies --   197.7928               213.0321               233.7680
 Red. masses --     4.1330                 1.0318                 1.2114
 Frc consts  --     0.0953                 0.0276                 0.0390
 IR Inten    --     0.9302                 0.0686                 0.5806

                    10                     11                     12
                     A                      A                      A
 Frequencies --   266.6173               295.8604               325.9870
 Red. masses --     4.2036                 2.7704                 4.6504
 Frc consts  --     0.1761                 0.1429                 0.2912
 IR Inten    --     0.3840                 0.3419                 7.4717

                    13                     14                     15
                     A                      A                      A
 Frequencies --   337.0527               396.8310               410.7335
 Red. masses --     4.4468                 2.7793                 3.3822
 Frc consts  --     0.2976                 0.2579                 0.3362
 IR Inten    --     5.1373                 3.5077                 0.1587

                    16                     17                     18
                     A                      A                      A
 Frequencies --   431.6098               486.4986               521.1128
 Red. masses --     4.4115                 2.5825                 6.1692
 Frc consts  --     0.4842                 0.3601                 0.9871
 IR Inten    --     4.7198                10.6318                 0.0508

                    19                     20                     21
                     A                      A                      A
 Frequencies --   530.4926               544.4180               628.4130
 Red. masses --     5.8247                 4.0630                 5.2568
 Frc consts  --     0.9658                 0.7095                 1.2231
 IR Inten    --     0.2674                 0.2973                 0.8301

                    22                     23                     24
                     A                      A                      A
 Frequencies --   646.0863               661.9292               730.0671
 Red. masses --     3.8818                 3.6813                 5.1997
 Frc consts  --     0.9547                 0.9503                 1.6329
 IR Inten    --     3.2750                 5.6511                 4.4448

                    25                     26                     27
                     A                      A                      A
 Frequencies --   745.5626               764.9657               772.4014
 Red. masses --     4.9377                 1.3226                 3.1692
 Frc consts  --     1.6171                 0.4560                 1.1140
 IR Inten    --     3.6135                21.2477                 1.0831

                    28                     29                     30
                     A                      A                      A
 Frequencies --   785.4734               829.5771               856.1947
 Red. masses --     4.7329                 1.4064                 3.4302
 Frc consts  --     1.7204                 0.5702                 1.4815
 IR Inten    --     0.3571                26.9047                 2.7222

                    31                     32                     33
                     A                      A                      A
 Frequencies --   877.1195               905.5888               912.5221
 Red. masses --     1.5780                 1.9141                 3.0269
 Frc consts  --     0.7153                 0.9249                 1.4850
 IR Inten    --    19.9272                11.2786                12.3795

                    34                     35                     36
                     A                      A                      A
 Frequencies --   935.0098               949.3873               953.5107
 Red. masses --     3.1683                 1.1645                 1.3144
 Frc consts  --     1.6320                 0.6184                 0.7041
 IR Inten    --     2.5416                 1.3042                 2.9234

                    37                     38                     39
                     A                      A                      A
 Frequencies --   964.2435               980.2580               982.4877
 Red. masses --     1.3160                 1.5342                 3.3953
 Frc consts  --     0.7209                 0.8686                 1.9310
 IR Inten    --     1.1998                 8.2251                 7.8237

                    40                     41                     42
                     A                      A                      A
 Frequencies --   990.0822              1051.9493              1125.2640
 Red. masses --     1.2728                 2.2955                 1.8271
 Frc consts  --     0.7351                 1.4966                 1.3630
 IR Inten    --     0.0569                 2.2424                62.9836

                    43                     44                     45
                     A                      A                      A
 Frequencies --  1132.0277              1149.7056              1169.5111
 Red. masses --     1.9998                 1.8784                 2.1917
 Frc consts  --     1.5099                 1.4629                 1.7662
 IR Inten    --    45.5639                 2.4564               231.3882

                    46                     47                     48
                     A                      A                      A
 Frequencies --  1178.2704              1188.1264              1192.9120
 Red. masses --     1.2576                 1.1976                 2.1023
 Frc consts  --     1.0287                 0.9960                 1.7626
 IR Inten    --    10.8456                25.9215               433.9532

                    49                     50                     51
                     A                      A                      A
 Frequencies --  1216.6639              1247.7127              1282.8854
 Red. masses --     1.8534                 2.9269                 1.6764
 Frc consts  --     1.6164                 2.6846                 1.6256
 IR Inten    --    87.9485                84.6456                76.5808

                    52                     53                     54
                     A                      A                      A
 Frequencies --  1297.1266              1344.3357              1387.0866
 Red. masses --     1.8384                 1.3827                 1.6767
 Frc consts  --     1.8224                 1.4723                 1.9007
 IR Inten    --    12.2599                13.4207                41.2449

                    55                     56                     57
                     A                      A                      A
 Frequencies --  1397.5631              1413.3129              1425.5855
 Red. masses --     1.9378                 4.9863                 4.6958
 Frc consts  --     2.2300                 5.8682                 5.6228
 IR Inten    --     2.0198                19.5865                32.3701

                    58                     59                     60
                     A                      A                      A
 Frequencies --  1427.7397              1448.2619              1488.4322
 Red. masses --     1.2864                 1.2282                 2.5292
 Frc consts  --     1.5450                 1.5179                 3.3014
 IR Inten    --    15.3624                13.2502                 2.6979

                    61                     62                     63
                     A                      A                      A
 Frequencies --  1514.8836              1518.3565              1519.3120
 Red. masses --     2.1339                 1.0615                 1.0454
 Frc consts  --     2.8853                 1.4419                 1.4217
 IR Inten    --    39.3651                 3.7564                 0.0897

                    64                     65                     66
                     A                      A                      A
 Frequencies --  1531.0176              1541.0779              1565.1613
 Red. masses --     1.0455                 1.0595                 3.4434
 Frc consts  --     1.4439                 1.4825                 4.9700
 IR Inten    --     7.9343                18.7101                22.9726

                    67                     68                     69
                     A                      A                      A
 Frequencies --  1631.7252              1658.5454              1684.3367
 Red. masses --     7.3355                 5.3612                 6.1416
 Frc consts  --    11.5073                 8.6890                10.2657
 IR Inten    --     5.9320                45.9667                22.1631

                    70                     71                     72
                     A                      A                      A
 Frequencies --  1828.2832              3053.1089              3056.3025
 Red. masses --    12.0424                 1.0603                 1.0574
 Frc consts  --    23.7164                 5.8230                 5.8195
 IR Inten    --   159.2361                 9.1081                23.5478

                    73                     74                     75
                     A                      A                      A
 Frequencies --  3062.1792              3122.0534              3130.2745
 Red. masses --     1.0357                 1.1030                 1.1028
 Frc consts  --     5.7220                 6.3344                 6.3667
 IR Inten    --    25.5686                14.7284                31.6376

                    76                     77                     78
                     A                      A                      A
 Frequencies --  3138.6277              3139.4821              3178.0610
 Red. masses --     1.1028                 1.1023                 1.0859
 Frc consts  --     6.4007                 6.4012                 6.4621
 IR Inten    --    25.9743                26.9839                 3.0151

                    79                     80                     81
                     A                      A                      A
 Frequencies --  3184.1844              3188.4546              3196.8047
 Red. masses --     1.0878                 1.0884                 1.0934
 Frc consts  --     6.4980                 6.5194                 6.5837
 IR Inten    --     0.7942                 9.1127                33.1452

                    82                     83                     84
                     A                      A                      A
 Frequencies --  3209.2046              3218.0850              3272.2483
 Red. masses --     1.0972                 1.0940                 1.0912
 Frc consts  --     6.6581                 6.6749                 6.8844
 IR Inten    --    32.3275                 8.5871                 0.4635

 - Thermochemistry -
 -------------------
 Temperature   298.150 Kelvin.  Pressure   1.00000 Atm.
 Atom     1 has atomic number  8 and mass  15.99491

 Molecular mass:   214.09938 amu.
 Principal axes and moments of inertia in atomic units:
                           1         2         3
     Eigenvalues --  1148.756077377.233288350.48984
           X            1.00000   0.00178   0.00081
           Y           -0.00179   0.99992   0.01259
           Z           -0.00079  -0.01259   0.99992
 This molecule is an asymmetric top.
 Rotational symmetry number  1.
 Warning -- assumption of classical behavior for rotation
           may cause significant error
 Rotational temperatures (Kelvin)      0.07540     0.01174     0.01037
 Rotational constants (GHZ):           1.57104     0.24464     0.21612
 Zero-point vibrational energy     647602.6 (Joules/Mol)
                                  154.78075 (Kcal/Mol)
 Warning -- explicit consideration of  20 degrees of freedom as
           vibrations may cause significant error
 Vibrational temperatures:     11.62    53.93    58.23   128.87   203.36
          (Kelvin)            265.93   284.58   306.51   336.34   383.60
                              425.68   469.02   484.94   570.95   590.95
                              620.99   699.96   749.76   763.26   783.30
                              904.15   929.57   952.37  1050.40  1072.70
                             1100.61  1111.31  1130.12  1193.57  1231.87
                             1261.98  1302.94  1312.91  1345.27  1365.95
                             1371.89  1387.33  1410.37  1413.58  1424.51
                             1513.52  1619.00  1628.73  1654.17  1682.66
                             1695.27  1709.45  1716.33  1750.51  1795.18
                             1845.78  1866.27  1934.20  1995.71  2010.78
                             2033.44  2051.10  2054.20  2083.72  2141.52
                             2179.58  2184.57  2185.95  2202.79  2217.26
                             2251.92  2347.69  2386.27  2423.38  2630.49
                             4392.74  4397.33  4405.79  4491.93  4503.76
                             4515.78  4517.01  4572.52  4581.33  4587.47
                             4599.48  4617.32  4630.10  4708.03

 Zero-point correction=                           0.246659 (Hartree/Particle)
 Thermal correction to Energy=                    0.260900
 Thermal correction to Enthalpy=                  0.261844
 Thermal correction to Gibbs Free Energy=         0.203009
 Sum of electronic and zero-point Energies=           -692.151204
 Sum of electronic and thermal Energies=              -692.136963
 Sum of electronic and thermal Enthalpies=            -692.136019
 Sum of electronic and thermal Free Energies=         -692.194854

                     E (Thermal)             CV                S
                      KCal/Mol        Cal/Mol-Kelvin    Cal/Mol-Kelvin
 Total                  163.717             54.868            123.829
 Electronic               0.000              0.000              0.000
 Translational            0.889              2.981             41.987
 Rotational               0.889              2.981             32.626
 Vibrational            161.940             48.907             49.216
 Vibration     1          0.593              1.987              8.435
 Vibration     2          0.594              1.982              5.388
 Vibration     3          0.594              1.981              5.236
 Vibration     4          0.602              1.957              3.670
 Vibration     5          0.615              1.912              2.786
 Vibration     6          0.631              1.861              2.279
 Vibration     7          0.637              1.843              2.154
 Vibration     8          0.644              1.821              2.018
 Vibration     9          0.654              1.789              1.850
 Vibration    10          0.672              1.734              1.618
 Vibration    11          0.690              1.681              1.440
 Vibration    12          0.710              1.624              1.280
 Vibration    13          0.718              1.601              1.226
 Vibration    14          0.763              1.477              0.974
 Vibration    15          0.775              1.447              0.924
 Vibration    16          0.793              1.401              0.853
 Vibration    17          0.843              1.280              0.693
 Vibration    18          0.876              1.203              0.607
 Vibration    19          0.885              1.183              0.586
 Vibration    20          0.900              1.152              0.556

 Optimization completed.
    -- Stationary point found.
 Normal termination of Gaussian 09 at Wed Sep 29 03:37:58 2021.
 Gaussian 09:  AM64L-G09RevA.02 11-Jun-2009

 ----------------------------------------------------------------------
 #p TD(NStates=10, Root=1) b3lyp/6-31G* volume pop=NPA density=current
 Geom=AllCheck Guess=Read
 ----------------------------------------------------------------------

 O=C(C(C)C)Oc1ccc2c(c1)cccc2_conf_0
 ----------------------------------
 Redundant internal coordinates taken from checkpoint file:
 C14H14O2_b4e7_conf_0.chk
 Charge =  0 Multiplicity = 1

                         Standard orientation:
 ---------------------------------------------------------------------
 Center     Atomic      Atomic             Coordinates (Angstroms)
 Number     Number       Type             X           Y           Z
 ---------------------------------------------------------------------
      1          8           0        2.126218   -1.476018    0.392933
      2          6           0        2.462412   -0.402357   -0.047441
      3          6           0        3.897743    0.051464   -0.277849
      4          6           0        4.292311    1.089662    0.793919
      5          6           0        4.847488   -1.149625   -0.290821
      6          8           0        1.603558    0.604761   -0.393921
      7          6           0        0.218605    0.550199   -0.235310
      8          6           0       -0.385382    1.831870   -0.194453
      9          6           0       -1.749220    1.945584   -0.085205
     10          6           0       -2.575206    0.791387   -0.012670
     11          6           0       -1.951980   -0.497478   -0.058855
     12          6           0       -0.537974   -0.598411   -0.174979
     13          6           0       -2.773463   -1.655264    0.010974
     14          6           0       -4.141496   -1.544601    0.121307
     15          6           0       -4.756113   -0.269406    0.167903
     16          6           0       -3.988083    0.871600    0.102446
     17          1           0        3.917865    0.552445   -1.254251
     18          1           0        4.260603    0.644777    1.795255
     19          1           0        3.621656    1.953684    0.778530
     20          1           0        5.313350    1.442826    0.613932
     21          1           0        4.820040   -1.676379    0.667930
     22          1           0        5.874180   -0.815464   -0.474984
     23          1           0        4.573794   -1.867309   -1.070579
     24          1           0        0.254384    2.706682   -0.252835
     25          1           0       -2.212262    2.928742   -0.053598
     26          1           0       -0.071576   -1.572857   -0.200139
     27          1           0       -2.300353   -2.633570   -0.023002
     28          1           0       -4.756317   -2.439099    0.173922
     29          1           0       -5.836630   -0.195554    0.255741
     30          1           0       -4.454803    1.853382    0.138190
 ---------------------------------------------------------------------

 SCF Done:  E(RB3LYP) =  -692.397862525     A.U. after    2 cycles

 Excitation energies and oscillator strengths:

 Excited State   1:      Singlet-A      4.3420 eV  285.55 nm  f=0.0343  <S**2>=0.000
      56 -> 58         0.24339
      56 -> 59         0.13672
      57 -> 58         0.59676
      57 -> 59        -0.22739
 This state for optimization and/or second-order correction.
 Total Energy, E(TD-HF/TD-KS) =  -692.238298293
 Copying the excited state density for this state as the 1-particle RhoCI density.

 Excited State   2:      Singlet-A      4.4336 eV  279.65 nm  f=0.0091  <S**2>=0.000
      56 -> 58        -0.43102
      57 -> 58         0.33421
      57 -> 59         0.43614

 Excited State   3:      Singlet-A      5.2635 eV  235.55 nm  f=0.3769  <S**2>=0.000
      55 -> 58         0.10886
      56 -> 58         0.31020
      57 -> 59         0.40003
      57 -> 60         0.45756

 Excited State   4:      Singlet-A      5.3480 eV  231.83 nm  f=0.0459  <S**2>=0.000
      55 -> 58         0.50674
      55 -> 59         0.33922
      55 -> 60         0.27790
      57 -> 59        -0.10974

 Excited State   5:      Singlet-A      5.6412 eV  219.78 nm  f=0.2879  <S**2>=0.000
      54 -> 58         0.24631
      55 -> 58         0.17129
      56 -> 58         0.21293
      56 -> 59         0.40060
      56 -> 60         0.18453
      57 -> 59         0.14206
      57 -> 60        -0.33647
      57 -> 61        -0.16369

 Excited State   6:      Singlet-A      5.7922 eV  214.06 nm  f=0.0368  <S**2>=0.000
      54 -> 58         0.40898
      56 -> 59        -0.37389
      56 -> 60        -0.13502
      57 -> 61        -0.40304

 Excited State   7:      Singlet-A      5.9195 eV  209.45 nm  f=0.0893  <S**2>=0.000
      55 -> 58        -0.42918
      55 -> 59         0.44526
      55 -> 60         0.24475
      56 -> 58         0.10326
      57 -> 60        -0.13655

 Excited State   8:      Singlet-A      6.0790 eV  203.96 nm  f=0.4173  <S**2>=0.000
      53 -> 58         0.19509
      54 -> 59         0.19760
      56 -> 58        -0.22467
      56 -> 59         0.35518
      56 -> 60        -0.20349
      56 -> 61        -0.14539
      57 -> 59        -0.14593
      57 -> 60         0.25626
      57 -> 61        -0.25051

 Excited State   9:      Singlet-A      6.2104 eV  199.64 nm  f=0.3150  <S**2>=0.000
      54 -> 58         0.16624
      54 -> 59        -0.33333
      56 -> 58        -0.18231
      56 -> 60         0.38369
      56 -> 61         0.26161
      57 -> 59        -0.15783
      57 -> 60         0.23865

 Excited State  10:      Singlet-A      6.4443 eV  192.39 nm  f=0.0490  <S**2>=0.000
      53 -> 58         0.12385
      54 -> 58        -0.15389
      54 -> 59         0.21426
      55 -> 59         0.12975
      55 -> 60        -0.11112
      56 -> 59        -0.13973
      56 -> 60         0.46592
      56 -> 61        -0.29198
      57 -> 61        -0.16887

 The electronic state is 1-A.
 Alpha  occ. eigenvalues --  -19.20530 -19.14420 -10.32130 -10.25497 -10.20920
 Alpha  occ. eigenvalues --  -10.19968 -10.19742 -10.19574 -10.19475 -10.19080
 Alpha  occ. eigenvalues --  -10.19045 -10.18978 -10.18904 -10.18851 -10.18812
 Alpha  occ. eigenvalues --  -10.17933  -1.10955  -1.02840  -0.87310  -0.82591
 Alpha  occ. eigenvalues --   -0.80622  -0.77285  -0.74679  -0.72128  -0.69172
 Alpha  occ. eigenvalues --   -0.67319  -0.62705  -0.60477  -0.59779  -0.56385
 Alpha  occ. eigenvalues --   -0.51795  -0.51108  -0.50530  -0.47399  -0.46937
 Alpha  occ. eigenvalues --   -0.46032  -0.44978  -0.43935  -0.43670  -0.42049
 Alpha  occ. eigenvalues --   -0.41238  -0.40839  -0.39386  -0.38917  -0.38563
 Alpha  occ. eigenvalues --   -0.37897  -0.36210  -0.35575  -0.34824  -0.34350
 Alpha  occ. eigenvalues --   -0.34039  -0.33271  -0.30951  -0.28274  -0.27223
 Alpha  occ. eigenvalues --   -0.23687  -0.21320
 Alpha virt. eigenvalues --   -0.03840  -0.01385   0.01222   0.03492   0.09034
 Alpha virt. eigenvalues --    0.09394   0.10476   0.11384   0.12407   0.13668
 Alpha virt. eigenvalues --    0.13892   0.15131   0.16698   0.17031   0.17051

 Mulliken atomic charges:
              1
     1  O   -0.453052
     2  C    0.617848
     3  C   -0.169600
     4  C   -0.453067
     5  C   -0.438116
     6  O   -0.504874
     7  C    0.351876
     8  C   -0.192895
     9  C   -0.214818
    10  C    0.157423
    11  C    0.125776
    12  C   -0.235201
    13  C   -0.194536
    14  C   -0.153779
    15  C   -0.111525
    16  C   -0.206819
    17  H    0.159962
    18  H    0.159574
    19  H    0.164820
    20  H    0.156380
    21  H    0.165165
    22  H    0.143669
    23  H    0.156031
    24  H    0.131469
    25  H    0.129272
    26  H    0.180010
    27  H    0.133406
    28  H    0.124978
    29  H    0.138363
    30  H    0.132259
 Sum of Mulliken atomic charges =  -0.00000

 Dipole moment (field-independent basis, Debye):
    X=              0.8132    Y=              1.2998    Z=             -0.4783  Tot=              1.6061
 Quadrupole moment (field-independent basis, Debye-Ang):
   XX=            -76.8684   YY=            -90.7349   ZZ=            -96.3069
   XY=              2.4296   XZ=             -2.0394   YZ=              1.6938

 Summary of Natural Population Analysis:

                                       Natural Population
                Natural  -----------------------------------------------
    Atom  No    Charge         Core      Valence    Rydberg      Total
 -----------------------------------------------------------------------
      O    1   -0.57856      1.99977     6.55879    0.02000     8.57856
      C    2    0.83344      1.99935     3.12022    0.04699     5.16656
      C    3   -0.34871      1.99915     4.33789    0.01167     6.34871
      C    4   -0.67088      1.99942     4.66311    0.00834     6.67088
      C    5   -0.67558      1.99944     4.66627    0.00988     6.67558
      O    6   -0.51523      1.99969     6.50429    0.01124     8.51523
      C    7    0.36273      1.99873     3.61658    0.02196     5.63727
      C    8   -0.32296      1.99905     4.30698    0.01694     6.32296
      C    9   -0.21775      1.99907     4.20291    0.01578     6.21775
      C   10   -0.05084      1.99903     4.03680    0.01501     6.05084
      C   11   -0.04778      1.99903     4.03341    0.01533     6.04778
      C   12   -0.25957      1.99897     4.24528    0.01532     6.25957
      C   13   -0.20159      1.99906     4.18707    0.01546     6.20159
      C   14   -0.29046      1.99912     4.27511    0.01622     6.29046
      C   15   -0.16339      1.99911     4.14950    0.01477     6.16339
      C   16   -0.22362      1.99907     4.20917    0.01538     6.22362
      H   17    0.26278      0.00000     0.73523    0.00198     0.73722
      H   18    0.23410      0.00000     0.76472    0.00118     0.76590
      H   19    0.24244      0.00000     0.75640    0.00115     0.75756
      H   20    0.23800      0.00000     0.76107    0.00093     0.76200
      H   21    0.24167      0.00000     0.75700    0.00133     0.75833
      H   22    0.23328      0.00000     0.76589    0.00083     0.76672
      H   23    0.24093      0.00000     0.75823    0.00085     0.75907
      H   24    0.24390      0.00000     0.75503    0.00106     0.75610
      H   25    0.23346      0.00000     0.76545    0.00109     0.76654
      H   26    0.26459      0.00000     0.73372    0.00169     0.73541
      H   27    0.23293      0.00000     0.76595    0.00113     0.76707
      H   28    0.23504      0.00000     0.76417    0.00079     0.76496
      H   29    0.23529      0.00000     0.76384    0.00086     0.76471
      H   30    0.23232      0.00000     0.76654    0.00114     0.76768
 =======================================================================
   * Total *   -0.00000     31.98705    81.72663    0.28632   114.00000

 Normal termination of Gaussian 09 at Wed Sep 29 08:22:38 2021.
