 Gaussian 09, Revision A.02,

 -----------------------------------
 #p opt b3lyp/6-31G* scf=(xqc,tight)
 -----------------------------------

 ------------------------------
 COc1ccc(cc1)c1ccc(cc1)C_conf_0
 ------------------------------
 Symbolic Z-matrix:
 Charge =  0 Multiplicity = 1

 SCF Done:  E(RB3LYP) =  -617.144837710     A.U. after   14 cycles
 SCF Done:  E(RB3LYP) =  -617.146687051     A.U. after   12 cycles
 SCF Done:  E(RB3LYP) =  -617.146822300     A.U. after   11 cycles
 SCF Done:  E(RB3LYP) =  -617.146832770     A.U. after    9 cycles
 SCF Done:  E(RB3LYP) =  -617.146833591     A.U. after    8 cycles
 SCF Done:  E(RB3LYP) =  -617.146833702     A.U. after    7 cycles
 Optimization completed.
    -- Stationary point found.
 Normal termination of Gaussian 09 at Thu Sep 30 18:19:07 2021.

 ----------------------------------------------------------------------
 #p freq b3lyp/6-31G* volume NMR pop=NPA density=current Geom=AllCheck
 Guess=Read
 ----------------------------------------------------------------------

 COc1ccc(cc1)c1ccc(cc1)C_conf_0
 ------------------------------
 Redundant internal coordinates taken from checkpoint file:
 C14H14O_8db2_conf_0.chk
 Charge =  0 Multiplicity = 1

 SCF Done:  E(RB3LYP) =  -617.146833702     A.U. after    1 cycles

  1  C    Isotropic =   137.5022   Anisotropy =    65.0028

  2  O    Isotropic =   238.1254   Anisotropy =    78.8515

  3  C    Isotropic =    39.5991   Anisotropy =   126.5537

  4  C    Isotropic =    86.1535   Anisotropy =   142.2285

  5  C    Isotropic =    67.7808   Anisotropy =   152.0992

  6  C    Isotropic =    61.4735   Anisotropy =   165.9184

  7  C    Isotropic =    67.5916   Anisotropy =   152.4002

  8  C    Isotropic =    77.8697   Anisotropy =   134.6269

  9  C    Isotropic =    56.5483   Anisotropy =   174.2943

 10  C    Isotropic =    69.3134   Anisotropy =   150.3973

 11  C    Isotropic =    66.8382   Anisotropy =   147.0586

 12  C    Isotropic =    60.6288   Anisotropy =   176.6440

 13  C    Isotropic =    66.9642   Anisotropy =   149.1324

 14  C    Isotropic =    69.1264   Anisotropy =   150.8725

 15  C    Isotropic =   167.8451   Anisotropy =    34.4104

 16  H    Isotropic =    28.2911   Anisotropy =     8.0780

 17  H    Isotropic =    28.6174   Anisotropy =     7.9425

 18  H    Isotropic =    28.6189   Anisotropy =     8.0286

 19  H    Isotropic =    25.7413   Anisotropy =     7.5269

 20  H    Isotropic =    24.9495   Anisotropy =     8.6285

 21  H    Isotropic =    24.9107   Anisotropy =     8.2043

 22  H    Isotropic =    25.4386   Anisotropy =     5.9611

 23  H    Isotropic =    24.9957   Anisotropy =     8.4665

 24  H    Isotropic =    25.1177   Anisotropy =     6.8067

 25  H    Isotropic =    25.1009   Anisotropy =     6.8359

 26  H    Isotropic =    24.9724   Anisotropy =     8.4991

 27  H    Isotropic =    30.1443   Anisotropy =     7.3097

 28  H    Isotropic =    30.0531   Anisotropy =     7.4173

 29  H    Isotropic =    29.7175   Anisotropy =     8.3503

  Exact polarizability: 260.497   1.585 137.881  -0.079   1.883  71.081
 Approx polarizability: 345.801  -1.878 247.573   1.999   3.717 110.940

                     1                      2                      3
                     A                      A                      A
 Frequencies --    42.5303                47.2081                66.0527
 Red. masses --     1.0403                 3.5961                 3.6698
 Frc consts  --     0.0011                 0.0047                 0.0094
 IR Inten    --     0.4668                 0.9844                 0.3009

                     4                      5                      6
                     A                      A                      A
 Frequencies --    78.7858               103.1312               159.9928
 Red. masses --     3.8341                 3.7998                 3.8812
 Frc consts  --     0.0140                 0.0238                 0.0585
 IR Inten    --     0.3712                 2.0046                 1.7421

                     7                      8                      9
                     A                      A                      A
 Frequencies --   216.9413               237.8192               263.4339
 Red. masses --     2.2356                 2.3490                 2.3203
 Frc consts  --     0.0620                 0.0783                 0.0949
 IR Inten    --     0.4366                 0.4913                 0.5689

                    10                     11                     12
                     A                      A                      A
 Frequencies --   277.7478               334.0501               384.5447
 Red. masses --     3.5239                 2.9387                 4.3412
 Frc consts  --     0.1602                 0.1932                 0.3782
 IR Inten    --     1.7210                 0.5185                 2.3553

                    13                     14                     15
                     A                      A                      A
 Frequencies --   419.5121               428.6678               434.9481
 Red. masses --     3.1110                 3.2093                 4.0919
 Frc consts  --     0.3226                 0.3475                 0.4561
 IR Inten    --     0.5509                 0.5355                 0.2103

                    16                     17                     18
                     A                      A                      A
 Frequencies --   475.1007               526.2227               552.4591
 Red. masses --     4.2282                 3.0040                 4.7111
 Frc consts  --     0.5623                 0.4901                 0.8472
 IR Inten    --     0.6163                11.6178                14.4769

                    19                     20                     21
                     A                      A                      A
 Frequencies --   564.7811               648.0737               659.8064
 Red. masses --     2.3405                 6.7186                 6.4924
 Frc consts  --     0.4399                 1.6626                 1.6653
 IR Inten    --     2.1906                 0.6248                 1.1143

                    22                     23                     24
                     A                      A                      A
 Frequencies --   667.7095               724.8632               742.5288
 Red. masses --     5.0872                 4.0802                 3.4063
 Frc consts  --     1.3363                 1.2631                 1.1065
 IR Inten    --     7.8262                 0.0076                 1.0851

                    25                     26                     27
                     A                      A                      A
 Frequencies --   802.9738               823.7881               831.3811
 Red. masses --     5.0412                 1.3530                 1.7234
 Frc consts  --     1.9151                 0.5410                 0.7018
 IR Inten    --     2.6487                35.2496                26.2703

                    28                     29                     30
                     A                      A                      A
 Frequencies --   836.5698               857.2666               857.9589
 Red. masses --     3.0096                 1.2674                 1.6761
 Frc consts  --     1.2410                 0.5488                 0.7269
 IR Inten    --    12.6370                 0.1444                13.1195

                    31                     32                     33
                     A                      A                      A
 Frequencies --   947.2983               961.6054               964.7248
 Red. masses --     1.3006                 1.2882                 1.3229
 Frc consts  --     0.6877                 0.7018                 0.7254
 IR Inten    --     0.5299                 0.2354                 0.2421

                    34                     35                     36
                     A                      A                      A
 Frequencies --   968.9770              1018.7480              1019.8997
 Red. masses --     1.2951                 2.6539                 1.9234
 Frc consts  --     0.7164                 1.6228                 1.1788
 IR Inten    --     0.4826                 2.4556                 2.8027

                    37                     38                     39
                     A                      A                      A
 Frequencies --  1037.0842              1055.3344              1075.1227
 Red. masses --     2.9642                 2.7571                 1.5205
 Frc consts  --     1.8784                 1.8092                 1.0355
 IR Inten    --     1.7846                 4.6905                18.1726

                    40                     41                     42
                     A                      A                      A
 Frequencies --  1083.1751              1146.0886              1153.3296
 Red. masses --     4.5971                 1.3285                 1.3255
 Frc consts  --     3.1779                 1.0281                 1.0388
 IR Inten    --    51.4079                 7.5645                 4.3956

                    43                     44                     45
                     A                      A                      A
 Frequencies --  1184.7108              1211.9290              1218.3785
 Red. masses --     1.2709                 1.1645                 1.3852
 Frc consts  --     1.0510                 1.0078                 1.2115
 IR Inten    --     0.7508                45.3075                11.9558

                    46                     47                     48
                     A                      A                      A
 Frequencies --  1224.4797              1243.8720              1297.2582
 Red. masses --     1.1440                 3.0829                 4.4401
 Frc consts  --     1.0106                 2.8104                 4.4025
 IR Inten    --     1.2345                 6.7951               255.6488

                    49                     50                     51
                     A                      A                      A
 Frequencies --  1313.1057              1320.1287              1345.8861
 Red. masses --     2.7003                 3.5545                 1.8566
 Frc consts  --     2.7432                 3.6498                 1.9814
 IR Inten    --    23.5938                41.8218                29.2279

                    52                     53                     54
                     A                      A                      A
 Frequencies --  1351.8317              1359.6464              1443.1819
 Red. masses --     2.3000                 2.1132                 1.2458
 Frc consts  --     2.4764                 2.3017                 1.5288
 IR Inten    --     6.8266                27.2283                 1.1567

                    55                     56                     57
                     A                      A                      A
 Frequencies --  1447.5999              1469.8122              1499.9531
 Red. masses --     2.7750                 2.9005                 1.1983
 Frc consts  --     3.4262                 3.6919                 1.5884
 IR Inten    --     2.5923                 0.4612                26.3435

                    58                     59                     60
                     A                      A                      A
 Frequencies --  1518.2047              1520.3328              1522.2518
 Red. masses --     1.0499                 1.0482                 1.1094
 Frc consts  --     1.4258                 1.4275                 1.5147
 IR Inten    --     5.2540                 5.2729                 7.5248

                    61                     62                     63
                     A                      A                      A
 Frequencies --  1533.7105              1553.7658              1576.4477
 Red. masses --     1.0685                 2.2337                 2.7299
 Frc consts  --     1.4808                 3.1771                 3.9973
 IR Inten    --    61.3590               134.4016                18.5360

                    64                     65                     66
                     A                      A                      A
 Frequencies --  1613.2513              1631.8247              1669.7419
 Red. masses --     5.3133                 6.5750                 5.6683
 Frc consts  --     8.1474                10.3155                 9.3110
 IR Inten    --     3.9569                 8.9051                47.3523

                    67                     68                     69
                     A                      A                      A
 Frequencies --  1675.9671              3024.1157              3038.3426
 Red. masses --     5.8111                 1.0349                 1.0412
 Frc consts  --     9.6169                 5.5761                 5.6633
 IR Inten    --    31.8278                67.0010                43.7851

                    70                     71                     72
                     A                      A                      A
 Frequencies --  3082.2986              3094.9329              3122.6370
 Red. masses --     1.1067                 1.0948                 1.1026
 Frc consts  --     6.1947                 6.1787                 6.3345
 IR Inten    --    44.7015                23.6024                17.1155

                    73                     74                     75
                     A                      A                      A
 Frequencies --  3156.4051              3173.2761              3174.4391
 Red. masses --     1.0996                 1.0877                 1.0875
 Frc consts  --     6.4544                 6.4531                 6.4565
 IR Inten    --    31.2569                21.3032                26.2315

                    76                     77                     78
                     A                      A                      A
 Frequencies --  3192.3523              3192.9191              3198.5740
 Red. masses --     1.0901                 1.0887                 1.0906
 Frc consts  --     6.5455                 6.5396                 6.5741
 IR Inten    --     5.7625                12.1356                29.8220

                    79                     80                     81
                     A                      A                      A
 Frequencies --  3200.2664              3215.3757              3224.5250
 Red. masses --     1.0923                 1.0939                 1.0917
 Frc consts  --     6.5915                 6.6630                 6.6879
 IR Inten    --     1.5468                10.6599                14.7614

 - Thermochemistry -
 -------------------
 Temperature   298.150 Kelvin.  Pressure   1.00000 Atm.
 Atom     1 has atomic number  6 and mass  12.00000

 Molecular mass:   198.10447 amu.
 Principal axes and moments of inertia in atomic units:
                           1         2         3
     Eigenvalues --   701.544477666.976298208.32317
           X            0.99998   0.00600  -0.00169
           Y           -0.00599   0.99998   0.00090
           Z            0.00170  -0.00089   1.00000
 This molecule is an asymmetric top.
 Rotational symmetry number  1.
 Warning -- assumption of classical behavior for rotation
           may cause significant error
 Rotational temperatures (Kelvin)      0.12346     0.01130     0.01055
 Rotational constants (GHZ):           2.57253     0.23539     0.21987
 Zero-point vibrational energy     636030.3 (Joules/Mol)
                                  152.01490 (Kcal/Mol)
 Warning -- explicit consideration of  19 degrees of freedom as
           vibrations may cause significant error
 Vibrational temperatures:     61.19    67.92    95.03   113.36   148.38
          (Kelvin)            230.19   312.13   342.17   379.02   399.62
                              480.62   553.27   603.58   616.76   625.79
                              683.56   757.12   794.86   812.59   932.43
                              949.31   960.68  1042.92  1068.33  1155.30
                             1185.25  1196.17  1203.64  1233.41  1234.41
                             1362.95  1383.53  1388.02  1394.14  1465.75
                             1467.41  1492.13  1518.39  1546.86  1558.45
                             1648.96  1659.38  1704.53  1743.69  1752.97
                             1761.75  1789.65  1866.46  1889.26  1899.37
                             1936.43  1944.98  1956.23  2076.41  2082.77
                             2114.73  2158.10  2184.36  2187.42  2190.18
                             2206.66  2235.52  2268.15  2321.11  2347.83
                             2402.38  2411.34  4351.02  4371.49  4434.73
                             4452.91  4492.77  4541.36  4565.63  4567.30
                             4593.08  4593.89  4602.03  4604.46  4626.20
                             4639.37

 Zero-point correction=                           0.242251 (Hartree/Particle)
 Thermal correction to Energy=                    0.255633
 Thermal correction to Enthalpy=                  0.256577
 Thermal correction to Gibbs Free Energy=         0.201213
 Sum of electronic and zero-point Energies=           -616.904583
 Sum of electronic and thermal Energies=              -616.891201
 Sum of electronic and thermal Enthalpies=            -616.890256
 Sum of electronic and thermal Free Energies=         -616.945620

                     E (Thermal)             CV                S
                      KCal/Mol        Cal/Mol-Kelvin    Cal/Mol-Kelvin
 Total                  160.412             51.489            116.523
 Electronic               0.000              0.000              0.000
 Translational            0.889              2.981             41.756
 Rotational               0.889              2.981             32.157
 Vibrational            158.635             45.527             42.610
 Vibration     1          0.595              1.980              5.138
 Vibration     2          0.595              1.979              4.931
 Vibration     3          0.597              1.970              4.268
 Vibration     4          0.600              1.963              3.921
 Vibration     5          0.605              1.947              3.394
 Vibration     6          0.622              1.891              2.550
 Vibration     7          0.646              1.815              1.984
 Vibration     8          0.656              1.783              1.819
 Vibration     9          0.670              1.740              1.639
 Vibration    10          0.679              1.715              1.548
 Vibration    11          0.716              1.608              1.240
 Vibration    12          0.753              1.503              1.021
 Vibration    13          0.782              1.428              0.894
 Vibration    14          0.790              1.408              0.863
 Vibration    15          0.796              1.394              0.843
 Vibration    16          0.832              1.305              0.723
 Vibration    17          0.881              1.192              0.596
 Vibration    18          0.908              1.134              0.539
 Vibration    19          0.921              1.107              0.514

 Normal termination of Gaussian 09 at Thu Sep 30 19:19:37 2021.
 Gaussian 09:  AM64L-G09RevA.02 11-Jun-2009

 ----------------------------------------------------------------------
 #p TD(NStates=10, Root=1) b3lyp/6-31G* volume pop=NPA density=current
 Geom=AllCheck Guess=Read
 ----------------------------------------------------------------------

 COc1ccc(cc1)c1ccc(cc1)C_conf_0
 ------------------------------
 Redundant internal coordinates taken from checkpoint file:
 C14H14O_8db2_conf_0.chk
 Charge =  0 Multiplicity = 1

                         Standard orientation:
 ---------------------------------------------------------------------
 Center     Atomic      Atomic             Coordinates (Angstroms)
 Number     Number       Type             X           Y           Z
 ---------------------------------------------------------------------
      1          6           0       -5.327407   -0.697696    0.215191
      2          8           0       -4.500486    0.405316   -0.116864
      3          6           0       -3.146370    0.234694   -0.067969
      4          6           0       -2.502500   -0.954469    0.291309
      5          6           0       -1.107233   -1.007983    0.306141
      6          6           0       -0.319307    0.100500   -0.032008
      7          6           0       -0.991206    1.285182   -0.390842
      8          6           0       -2.376698    1.356327   -0.409615
      9          6           0        1.162555    0.031513   -0.011919
     10          6           0        1.845359   -1.128216   -0.414123
     11          6           0        3.236877   -1.192036   -0.387292
     12          6           0        4.007162   -0.101009    0.034053
     13          6           0        3.328043    1.056336    0.436838
     14          6           0        1.937096    1.123318    0.415596
     15          6           0        5.516791   -0.159654    0.030410
     16          1           0       -6.354966   -0.344682    0.109352
     17          1           0       -5.163573   -1.029488    1.249225
     18          1           0       -5.164111   -1.545144   -0.464065
     19          1           0       -3.069378   -1.835265    0.571037
     20          1           0       -0.624642   -1.931352    0.614598
     21          1           0       -0.414554    2.157936   -0.684380
     22          1           0       -2.889501    2.269237   -0.696573
     23          1           0        1.279701   -1.983770   -0.773352
     24          1           0        3.734428   -2.104601   -0.709181
     25          1           0        3.897132    1.916210    0.784484
     26          1           0        1.441884    2.025632    0.764287
     27          1           0        5.878662   -1.187903    0.136771
     28          1           0        5.943561    0.434767    0.845813
     29          1           0        5.930280    0.235047   -0.907732
 ---------------------------------------------------------------------

 SCF Done:  E(RB3LYP) =  -617.146833702     A.U. after    1 cycles

 Excitation energies and oscillator strengths:

 Excited State   1:      Singlet-A      4.7045 eV  263.54 nm  f=0.5775  <S**2>=0.000
      53 -> 54         0.66604
      53 -> 55        -0.18680
 This state for optimization and/or second-order correction.
 Total Energy, E(TD-HF/TD-KS) =  -616.973946967
 Copying the excited state density for this state as the 1-particle RhoCI density.

 Excited State   2:      Singlet-A      4.7568 eV  260.65 nm  f=0.0929  <S**2>=0.000
      50 -> 54         0.14211
      51 -> 54        -0.13535
      52 -> 54        -0.16611
      53 -> 54         0.20852
      53 -> 55         0.61160

 Excited State   3:      Singlet-A      4.8849 eV  253.81 nm  f=0.0122  <S**2>=0.000
      50 -> 54        -0.15045
      51 -> 54         0.13900
      52 -> 54        -0.26251
      53 -> 56         0.60818

 Excited State   4:      Singlet-A      5.6094 eV  221.03 nm  f=0.0199  <S**2>=0.000
      50 -> 55        -0.10853
      50 -> 56        -0.17737
      51 -> 55        -0.16070
      51 -> 56        -0.27036
      52 -> 54         0.51168
      53 -> 55         0.13969
      53 -> 56         0.26599

 Excited State   5:      Singlet-A      5.7170 eV  216.87 nm  f=0.0343  <S**2>=0.000
      50 -> 54         0.33953
      51 -> 54         0.49387
      53 -> 57         0.34388

 Excited State   6:      Singlet-A      5.8183 eV  213.09 nm  f=0.0254  <S**2>=0.000
      50 -> 54         0.42210
      50 -> 55        -0.21808
      51 -> 54        -0.29502
      51 -> 55        -0.32132
      53 -> 55        -0.19692
      53 -> 56         0.13535

 Excited State   7:      Singlet-A      6.0111 eV  206.26 nm  f=0.0107  <S**2>=0.000
      51 -> 55        -0.11792
      52 -> 55         0.63938
      52 -> 56        -0.22807
      53 -> 57        -0.13049

 Excited State   8:      Singlet-A      6.0990 eV  203.29 nm  f=0.0229  <S**2>=0.000
      51 -> 54        -0.25967
      51 -> 55         0.35044
      51 -> 56        -0.10861
      52 -> 56        -0.26238
      53 -> 57         0.44173

 Excited State   9:      Singlet-A      6.2020 eV  199.91 nm  f=0.0395  <S**2>=0.000
      50 -> 54         0.31083
      50 -> 55         0.42528
      50 -> 57        -0.13366
      51 -> 55         0.18320
      51 -> 56        -0.24882
      51 -> 57         0.10941
      52 -> 56         0.15431
      53 -> 57        -0.19988

 Excited State  10:      Singlet-A      6.2278 eV  199.08 nm  f=0.0226  <S**2>=0.000
      50 -> 55         0.18300
      50 -> 56         0.44467
      51 -> 55        -0.23845
      51 -> 56        -0.38085
      52 -> 56        -0.15916
      53 -> 57         0.13423

 The electronic state is 1-A.
 Alpha  occ. eigenvalues --  -19.17655 -10.24431 -10.24068 -10.19105 -10.19047
 Alpha  occ. eigenvalues --  -10.18839 -10.18742 -10.18622 -10.18568 -10.18212
 Alpha  occ. eigenvalues --  -10.18208 -10.18157 -10.18123 -10.18112 -10.18095
 Alpha  occ. eigenvalues --   -1.06219  -0.85959  -0.84006  -0.78075  -0.74837
 Alpha  occ. eigenvalues --   -0.74029  -0.73490  -0.70194  -0.66693  -0.61581
 Alpha  occ. eigenvalues --   -0.59658  -0.58968  -0.56444  -0.53325  -0.50329
 Alpha  occ. eigenvalues --   -0.48091  -0.46728  -0.46057  -0.45077  -0.43922
 Alpha  occ. eigenvalues --   -0.43191  -0.41939  -0.41529  -0.41133  -0.40890
 Alpha  occ. eigenvalues --   -0.38373  -0.37489  -0.37239  -0.35833  -0.34836
 Alpha  occ. eigenvalues --   -0.33391  -0.33205  -0.32047  -0.31439  -0.24934
 Alpha  occ. eigenvalues --   -0.24559  -0.24326  -0.20056
 Alpha virt. eigenvalues --   -0.01489   0.00062   0.00602   0.04193   0.09619
 Alpha virt. eigenvalues --    0.10404   0.10960   0.12731   0.13012   0.13923
 Alpha virt. eigenvalues --    0.14075   0.15472   0.15825   0.16590   0.17012

 Mulliken atomic charges:
              1
     1  C   -0.227277
     2  O   -0.466138
     3  C    0.364056
     4  C   -0.174525
     5  C   -0.201175
     6  C    0.098188
     7  C   -0.163110
     8  C   -0.177128
     9  C    0.063800
    10  C   -0.191204
    11  C   -0.178336
    12  C    0.165697
    13  C   -0.197751
    14  C   -0.165299
    15  C   -0.527567
    16  H    0.181129
    17  H    0.166546
    18  H    0.165921
    19  H    0.140993
    20  H    0.137926
    21  H    0.147810
    22  H    0.146260
    23  H    0.107662
    24  H    0.110553
    25  H    0.107488
    26  H    0.115925
    27  H    0.148201
    28  H    0.147350
    29  H    0.154006
 Sum of Mulliken atomic charges =  -0.00000

 Dipole moment (field-independent basis, Debye):
    X=             -4.5369    Y=             -0.8681    Z=              0.3034  Tot=              4.6292
 Quadrupole moment (field-independent basis, Debye-Ang):
   XX=            -70.2585   YY=            -82.0755   ZZ=            -91.4702
   XY=              6.4279   XZ=             -1.9941   YZ=             -0.3186

 Summary of Natural Population Analysis:

                                       Natural Population
                Natural  -----------------------------------------------
    Atom  No    Charge         Core      Valence    Rydberg      Total
 -----------------------------------------------------------------------
      C    1   -0.32404      1.99942     4.31039    0.01423     6.32404
      O    2   -0.45941      1.99975     6.44773    0.01193     8.45941
      C    3    0.31800      1.99878     3.66042    0.02280     5.68200
      C    4   -0.26787      1.99904     4.25612    0.01271     6.26787
      C    5   -0.26129      1.99907     4.24497    0.01725     6.26129
      C    6    0.00778      1.99902     3.97634    0.01686     5.99222
      C    7   -0.18691      1.99906     4.17449    0.01336     6.18691
      C    8   -0.27742      1.99905     4.26192    0.01645     6.27742
      C    9   -0.11672      1.99901     4.10091    0.01680     6.11672
      C   10   -0.25694      1.99906     4.24195    0.01593     6.25694
      C   11   -0.21389      1.99904     4.20135    0.01350     6.21389
      C   12   -0.06002      1.99902     4.04514    0.01585     6.06002
      C   13   -0.26205      1.99904     4.24792    0.01509     6.26205
      C   14   -0.19008      1.99906     4.17753    0.01350     6.19008
      C   15   -0.68383      1.99940     4.67708    0.00735     6.68383
      H   16    0.23436      0.00000     0.76508    0.00056     0.76564
      H   17    0.21183      0.00000     0.78588    0.00229     0.78817
      H   18    0.21158      0.00000     0.78591    0.00250     0.78842
      H   19    0.23929      0.00000     0.75976    0.00094     0.76071
      H   20    0.24143      0.00000     0.75698    0.00160     0.75857
      H   21    0.24511      0.00000     0.75376    0.00113     0.75489
      H   22    0.24921      0.00000     0.74958    0.00121     0.75079
      H   23    0.22430      0.00000     0.77401    0.00169     0.77570
      H   24    0.22671      0.00000     0.77219    0.00110     0.77329
      H   25    0.22625      0.00000     0.77262    0.00114     0.77375
      H   26    0.22552      0.00000     0.77322    0.00126     0.77448
      H   27    0.23329      0.00000     0.76565    0.00106     0.76671
      H   28    0.23185      0.00000     0.76650    0.00165     0.76815
      H   29    0.23396      0.00000     0.76368    0.00236     0.76604
 =======================================================================
   * Total *    0.00000     29.98681    75.76909    0.24410   106.00000

 Normal termination of Gaussian 09 at Thu Sep 30 23:40:25 2021.
