 Gaussian 09, Revision A.02,

 -----------------------------------
 #p opt b3lyp/6-31G* scf=(xqc,tight)
 -----------------------------------

 --------------------------------------
 COc1ccc2c(c1)ccc(c2)OC(=O)N(C)C_conf_0
 --------------------------------------
 Symbolic Z-matrix:
 Charge =  0 Multiplicity = 1

 SCF Done:  E(RB3LYP) =  -822.953111321     A.U. after   15 cycles
 SCF Done:  E(RB3LYP) =  -822.959922247     A.U. after   12 cycles
 SCF Done:  E(RB3LYP) =  -822.960165240     A.U. after   12 cycles
 SCF Done:  E(RB3LYP) =  -822.960645864     A.U. after   11 cycles
 SCF Done:  E(RB3LYP) =  -822.960999703     A.U. after   11 cycles
 SCF Done:  E(RB3LYP) =  -822.961068143     A.U. after   12 cycles
 SCF Done:  E(RB3LYP) =  -822.961136913     A.U. after   11 cycles
 SCF Done:  E(RB3LYP) =  -822.961193486     A.U. after   12 cycles
 SCF Done:  E(RB3LYP) =  -822.961218667     A.U. after   10 cycles
 SCF Done:  E(RB3LYP) =  -822.961230036     A.U. after   10 cycles
 SCF Done:  E(RB3LYP) =  -822.961301939     A.U. after   10 cycles
 SCF Done:  E(RB3LYP) =  -822.961294700     A.U. after   10 cycles
 SCF Done:  E(RB3LYP) =  -822.961300528     A.U. after   11 cycles
 SCF Done:  E(RB3LYP) =  -822.961304237     A.U. after   10 cycles
 SCF Done:  E(RB3LYP) =  -822.961304412     A.U. after    7 cycles
 SCF Done:  E(RB3LYP) =  -822.961304480     A.U. after    7 cycles
 SCF Done:  E(RB3LYP) =  -822.961304509     A.U. after    6 cycles
 SCF Done:  E(RB3LYP) =  -822.961304528     A.U. after    6 cycles
 Optimization completed.
    -- Stationary point found.
 Normal termination of Gaussian 09 at Thu Sep 30 08:13:52 2021.

 ----------------------------------------------------------------------
 #p freq b3lyp/6-31G* volume NMR pop=NPA density=current Geom=AllCheck
 Guess=Read
 ----------------------------------------------------------------------

 COc1ccc2c(c1)ccc(c2)OC(=O)N(C)C_conf_0
 --------------------------------------
 Redundant internal coordinates taken from checkpoint file:
 C14H15NO3_1a16_conf_0.chk
 Charge =  0 Multiplicity = 1

 SCF Done:  E(RB3LYP) =  -822.961304528     A.U. after    1 cycles

  1  C    Isotropic =   137.2713   Anisotropy =    65.5514

  2  O    Isotropic =   235.9383   Anisotropy =    79.0419

  3  C    Isotropic =    40.7019   Anisotropy =   122.1572

  4  C    Isotropic =    76.1710   Anisotropy =   135.3656

  5  C    Isotropic =    66.0419   Anisotropy =   143.2992

  6  C    Isotropic =    67.3424   Anisotropy =   186.5038

  7  C    Isotropic =    64.8385   Anisotropy =   191.2985

  8  C    Isotropic =    90.1853   Anisotropy =   118.1801

  9  C    Isotropic =    68.9408   Anisotropy =   138.8464

 10  C    Isotropic =    75.7438   Anisotropy =   137.1695

 11  C    Isotropic =    48.7781   Anisotropy =   102.3046

 12  C    Isotropic =    74.6268   Anisotropy =   134.2414

 13  O    Isotropic =   147.5873   Anisotropy =   135.9651

 14  C    Isotropic =    46.7866   Anisotropy =    77.8852

 15  O    Isotropic =    68.6422   Anisotropy =   390.4909

 16  N    Isotropic =   180.3895   Anisotropy =    84.1695

 17  C    Isotropic =   155.2365   Anisotropy =    51.1536

 18  C    Isotropic =   155.6147   Anisotropy =    49.3470

 19  H    Isotropic =    28.2250   Anisotropy =     8.2812

 20  H    Isotropic =    28.5272   Anisotropy =     7.9794

 21  H    Isotropic =    28.5228   Anisotropy =     7.9675

 22  H    Isotropic =    25.2247   Anisotropy =     6.2779

 23  H    Isotropic =    24.6655   Anisotropy =     7.5403

 24  H    Isotropic =    25.6559   Anisotropy =     9.3870

 25  H    Isotropic =    24.7780   Anisotropy =     7.4864

 26  H    Isotropic =    25.2737   Anisotropy =     7.1544

 27  H    Isotropic =    24.4970   Anisotropy =    10.9542

 28  H    Isotropic =    28.1190   Anisotropy =     6.9189

 29  H    Isotropic =    29.8397   Anisotropy =     9.4527

 30  H    Isotropic =    29.9493   Anisotropy =     9.1673

 31  H    Isotropic =    28.2525   Anisotropy =     5.3349

 32  H    Isotropic =    29.8096   Anisotropy =     8.8458

 33  H    Isotropic =    29.5688   Anisotropy =     9.3125

  Exact polarizability: 279.257  12.270 158.265  -4.817   9.146  80.898
 Approx polarizability: 377.284  35.864 280.783  -9.763  18.594 125.116

                     1                      2                      3
                     A                      A                      A
 Frequencies --    25.2458                31.4490                55.8316
 Red. masses --     4.0232                 4.3062                 2.1729
 Frc consts  --     0.0015                 0.0025                 0.0040
 IR Inten    --     0.7541                 2.6638                 0.7667

                     4                      5                      6
                     A                      A                      A
 Frequencies --    65.0029                83.8273               110.3609
 Red. masses --     1.8387                 3.7563                 2.5315
 Frc consts  --     0.0046                 0.0156                 0.0182
 IR Inten    --     0.3715                 0.6746                 0.5189

                     7                      8                      9
                     A                      A                      A
 Frequencies --   128.9972               146.7443               178.2545
 Red. masses --     4.6012                 1.3828                 3.8539
 Frc consts  --     0.0451                 0.0175                 0.0721
 IR Inten    --     4.6243                 0.2781                 2.6304

                    10                     11                     12
                     A                      A                      A
 Frequencies --   188.3103               215.2210               219.0420
 Red. masses --     3.1929                 3.9241                 2.2107
 Frc consts  --     0.0667                 0.1071                 0.0625
 IR Inten    --     1.9057                 0.0720                 2.3686

                    13                     14                     15
                     A                      A                      A
 Frequencies --   231.1777               273.9123               307.2666
 Red. masses --     2.1021                 1.7953                 4.6509
 Frc consts  --     0.0662                 0.0794                 0.2587
 IR Inten    --     2.1309                 0.2276                 0.0746

                    16                     17                     18
                     A                      A                      A
 Frequencies --   367.3740               400.3469               412.1460
 Red. masses --     4.1789                 4.1741                 4.6076
 Frc consts  --     0.3323                 0.3942                 0.4611
 IR Inten    --    10.4956                 6.9069                 0.8256

                    19                     20                     21
                     A                      A                      A
 Frequencies --   413.0810               433.4144               483.1830
 Red. masses --     3.4781                 4.2371                 4.2770
 Frc consts  --     0.3497                 0.4690                 0.5883
 IR Inten    --     0.5403                15.6013                 7.0995

                    22                     23                     24
                     A                      A                      A
 Frequencies --   488.4953               530.5265               531.4859
 Red. masses --     2.7059                 4.5361                 6.1924
 Frc consts  --     0.3804                 0.7522                 1.0306
 IR Inten    --     8.7145                 2.1627                 5.2075

                    25                     26                     27
                     A                      A                      A
 Frequencies --   576.6028               620.4381               646.1100
 Red. masses --     3.2363                 5.8448                 5.3917
 Frc consts  --     0.6340                 1.3256                 1.3261
 IR Inten    --     1.2936                 1.1785                11.6961

                    28                     29                     30
                     A                      A                      A
 Frequencies --   670.6288               705.2339               739.0818
 Red. masses --     4.2600                 6.3550                12.1053
 Frc consts  --     1.1288                 1.8622                 3.8959
 IR Inten    --     3.9251                 1.8351                18.3947

                    31                     32                     33
                     A                      A                      A
 Frequencies --   756.2870               777.3720               814.8684
 Red. masses --     3.2620                 5.7280                 1.4158
 Frc consts  --     1.0993                 2.0394                 0.5539
 IR Inten    --     0.1794                 1.0339                 7.8737

                    34                     35                     36
                     A                      A                      A
 Frequencies --   826.4101               855.5557               869.2697
 Red. masses --     1.5719                 3.3695                 1.8016
 Frc consts  --     0.6325                 1.4531                 0.8021
 IR Inten    --    13.7540                27.2637                24.7368

                    37                     38                     39
                     A                      A                      A
 Frequencies --   871.6964               896.8562               954.1362
 Red. masses --     4.1752                 1.6877                 1.2797
 Frc consts  --     1.8692                 0.7998                 0.6864
 IR Inten    --     0.8076                37.7614                 0.3337

                    40                     41                     42
                     A                      A                      A
 Frequencies --   963.6209               967.0548               987.8197
 Red. masses --     4.7586                 1.2822                 3.5467
 Frc consts  --     2.6034                 0.7065                 2.0391
 IR Inten    --    38.8939                 0.2835                 9.4915

                    43                     44                     45
                     A                      A                      A
 Frequencies --  1044.7383              1075.5174              1093.5171
 Red. masses --     2.5487                 4.4458                 1.3675
 Frc consts  --     1.6390                 3.0299                 0.9634
 IR Inten    --     9.5198                54.6186                 7.7273

                    46                     47                     48
                     A                      A                      A
 Frequencies --  1143.2676              1147.2716              1172.5078
 Red. masses --     1.2177                 1.5533                 1.2116
 Frc consts  --     0.9377                 1.2046                 0.9814
 IR Inten    --     0.7508                21.8814                 0.6002

                    49                     50                     51
                     A                      A                      A
 Frequencies --  1182.7649              1185.9464              1191.1603
 Red. masses --     1.8462                 1.2732                 1.4001
 Frc consts  --     1.5217                 1.0550                 1.1704
 IR Inten    --   357.9424                 0.8561                 5.8143

                    52                     53                     54
                     A                      A                      A
 Frequencies --  1202.5561              1214.9013              1236.7586
 Red. masses --     1.9085                 1.7263                 1.8727
 Frc consts  --     1.6262                 1.5013                 1.6877
 IR Inten    --   585.7335               148.1634                 7.1454

                    55                     56                     57
                     A                      A                      A
 Frequencies --  1268.8609              1297.7238              1299.9651
 Red. masses --     3.9677                 3.1158                 2.6224
 Frc consts  --     3.7637                 3.0916                 2.6110
 IR Inten    --   514.8734                 7.9987                14.0672

                    58                     59                     60
                     A                      A                      A
 Frequencies --  1304.6641              1377.8072              1418.2319
 Red. masses --     2.3030                 1.8873                 6.0372
 Frc consts  --     2.3096                 2.1109                 7.1545
 IR Inten    --    44.2088                 5.6672                36.1777

                    61                     62                     63
                     A                      A                      A
 Frequencies --  1433.0925              1441.4582              1459.5521
 Red. masses --     3.1415                 3.2420                 1.2041
 Frc consts  --     3.8013                 3.9689                 1.5114
 IR Inten    --   477.0508                13.9604                20.1494

                    64                     65                     66
                     A                      A                      A
 Frequencies --  1464.0957              1489.0653              1495.5249
 Red. masses --     4.0296                 1.2165                 1.2592
 Frc consts  --     5.0893                 1.5892                 1.6594
 IR Inten    --    16.3489                58.3313                11.9782

                    67                     68                     69
                     A                      A                      A
 Frequencies --  1518.7251              1519.2138              1530.7811
 Red. masses --     1.0481                 1.0447                 1.0466
 Frc consts  --     1.4243                 1.4206                 1.4450
 IR Inten    --     5.5667                 4.2738                18.6076

                    70                     71                     72
                     A                      A                      A
 Frequencies --  1531.0912              1533.9537              1538.0927
 Red. masses --     1.0498                 1.3034                 1.6702
 Frc consts  --     1.4500                 1.8070                 2.3280
 IR Inten    --    12.3426                40.2566                 3.8240

                    73                     74                     75
                     A                      A                      A
 Frequencies --  1561.6857              1566.2860              1633.7435
 Red. masses --     2.3649                 1.4907                 7.5163
 Frc consts  --     3.3983                 2.1547                11.8201
 IR Inten    --    82.2567                17.1880                 1.6870

                    76                     77                     78
                     A                      A                      A
 Frequencies --  1664.3121              1687.8892              1815.8810
 Red. masses --     5.7410                 6.1531                10.8976
 Frc consts  --     9.3694                10.3283                21.1716
 IR Inten    --   147.0589                35.6457               360.2597

                    79                     80                     81
                     A                      A                      A
 Frequencies --  3024.5887              3025.1710              3033.5885
 Red. masses --     1.0347                 1.0435                 1.0437
 Frc consts  --     5.5768                 5.6268                 5.6592
 IR Inten    --    54.9871                34.7420               123.3196

                    82                     83                     84
                     A                      A                      A
 Frequencies --  3077.4724              3080.1043              3082.9215
 Red. masses --     1.0992                 1.1030                 1.1065
 Frc consts  --     6.1335                 6.1651                 6.1963
 IR Inten    --    62.1606                15.3980                44.0236

                    85                     86                     87
                     A                      A                      A
 Frequencies --  3157.3080              3184.8398              3189.4817
 Red. masses --     1.0998                 1.0884                 1.0884
 Frc consts  --     6.4596                 6.5048                 6.5237
 IR Inten    --    31.0110                10.9417                 7.7324

                    88                     89                     90
                     A                      A                      A
 Frequencies --  3194.4698              3209.4672              3214.8322
 Red. masses --     1.0961                 1.0944                 1.0936
 Frc consts  --     6.5902                 6.6420                 6.6590
 IR Inten    --     0.9301                 3.8347                12.4738

                    91                     92                     93
                     A                      A                      A
 Frequencies --  3217.2378              3217.3951              3245.3912
 Red. masses --     1.0931                 1.0904                 1.0915
 Frc consts  --     6.6662                 6.6504                 6.7736
 IR Inten    --    13.4993                10.9147                 2.5930

 - Thermochemistry -
 -------------------
 Temperature   298.150 Kelvin.  Pressure   1.00000 Atm.
 Atom     1 has atomic number  6 and mass  12.00000

 Molecular mass:   245.10519 amu.
 Principal axes and moments of inertia in atomic units:
                           1         2         3
     Eigenvalues --  1193.88514********************
           X            0.99999  -0.00398  -0.00314
           Y            0.00401   0.99995   0.00946
           Z            0.00311  -0.00947   0.99995
 This molecule is an asymmetric top.
 Rotational symmetry number  1.
 Warning -- assumption of classical behavior for rotation
           may cause significant error
 Rotational temperatures (Kelvin)      0.07255     0.00775     0.00717
 Rotational constants (GHZ):           1.51165     0.16145     0.14944
 Zero-point vibrational energy     704101.7 (Joules/Mol)
                                  168.28434 (Kcal/Mol)
 Warning -- explicit consideration of  26 degrees of freedom as
           vibrations may cause significant error
 Vibrational temperatures:     36.32    45.25    80.33    93.52   120.61
          (Kelvin)            158.78   185.60   211.13   256.47   270.94
                              309.65   315.15   332.61   394.10   442.09
                              528.57   576.01   592.99   594.33   623.59
                              695.19   702.83   763.31   764.69   829.60
                              892.67   929.61   964.88  1014.67  1063.37
                             1088.13  1118.46  1172.41  1189.02  1230.95
                             1250.68  1254.18  1290.37  1372.79  1386.43
                             1391.37  1421.25  1503.14  1547.43  1573.33
                             1644.90  1650.67  1686.98  1701.73  1706.31
                             1713.81  1730.21  1747.97  1779.42  1825.61
                             1867.13  1870.36  1877.12  1982.35  2040.52
                             2061.90  2073.93  2099.97  2106.50  2142.43
                             2151.72  2185.10  2185.81  2202.45  2202.90
                             2207.01  2212.97  2246.91  2253.53  2350.59
                             2394.57  2428.49  2612.64  4351.70  4352.54
                             4364.65  4427.79  4431.58  4435.63  4542.66
                             4582.27  4588.95  4596.12  4617.70  4625.42
                             4628.88  4629.11  4669.39

 Zero-point correction=                           0.268178 (Hartree/Particle)
 Thermal correction to Energy=                    0.285133
 Thermal correction to Enthalpy=                  0.286078
 Thermal correction to Gibbs Free Energy=         0.221897
 Sum of electronic and zero-point Energies=           -822.693126
 Sum of electronic and thermal Energies=              -822.676171
 Sum of electronic and thermal Enthalpies=            -822.675227
 Sum of electronic and thermal Free Energies=         -822.739407

                     E (Thermal)             CV                S
                      KCal/Mol        Cal/Mol-Kelvin    Cal/Mol-Kelvin
 Total                  178.924             63.138            135.079
 Electronic               0.000              0.000              0.000
 Translational            0.889              2.981             42.390
 Rotational               0.889              2.981             33.444
 Vibrational            177.146             57.177             59.245
 Vibration     1          0.593              1.985              6.172
 Vibration     2          0.594              1.983              5.736
 Vibration     3          0.596              1.975              4.599
 Vibration     4          0.597              1.971              4.299
 Vibration     5          0.601              1.960              3.799
 Vibration     6          0.606              1.941              3.263
 Vibration     7          0.611              1.924              2.961
 Vibration     8          0.617              1.906              2.714
 Vibration     9          0.629              1.869              2.347
 Vibration    10          0.633              1.856              2.244
 Vibration    11          0.645              1.818              1.999
 Vibration    12          0.647              1.812              1.967
 Vibration    13          0.653              1.793              1.870
 Vibration    14          0.676              1.721              1.571
 Vibration    15          0.697              1.660              1.377
 Vibration    16          0.740              1.539              1.091
 Vibration    17          0.766              1.469              0.961
 Vibration    18          0.776              1.444              0.919
 Vibration    19          0.777              1.442              0.916
 Vibration    20          0.794              1.397              0.848
 Vibration    21          0.839              1.287              0.702
 Vibration    22          0.844              1.276              0.688
 Vibration    23          0.885              1.182              0.586
 Vibration    24          0.886              1.180              0.584
 Vibration    25          0.933              1.082              0.492
 Vibration    26          0.980              0.989              0.416

 Normal termination of Gaussian 09 at Thu Sep 30 09:37:11 2021.
 Gaussian 09:  AM64L-G09RevA.02 11-Jun-2009

 ----------------------------------------------------------------------
 #p TD(NStates=10, Root=1) b3lyp/6-31G* volume pop=NPA density=current
 Geom=AllCheck Guess=Read
 ----------------------------------------------------------------------

 COc1ccc2c(c1)ccc(c2)OC(=O)N(C)C_conf_0
 --------------------------------------
 Redundant internal coordinates taken from checkpoint file:
 C14H15NO3_1a16_conf_0.chk
 Charge =  0 Multiplicity = 1

                         Standard orientation:
 ---------------------------------------------------------------------
 Center     Atomic      Atomic             Coordinates (Angstroms)
 Number     Number       Type             X           Y           Z
 ---------------------------------------------------------------------
      1          6           0       -5.995887    0.668812    0.300648
      2          8           0       -5.270371   -0.512687    0.003872
      3          6           0       -3.909069   -0.429491   -0.057485
      4          6           0       -3.255946   -1.658374   -0.353235
      5          6           0       -1.889382   -1.714023   -0.442442
      6          6           0       -1.089497   -0.552599   -0.244469
      7          6           0       -1.750334    0.681785    0.051860
      8          6           0       -3.169915    0.718906    0.141626
      9          6           0       -0.953168    1.840180    0.248765
     10          6           0        0.418993    1.779935    0.161883
     11          6           0        1.055006    0.553540   -0.133254
     12          6           0        0.324608   -0.594285   -0.340758
     13          8           0        2.438518    0.629709   -0.278405
     14          6           0        3.253419   -0.352687    0.240463
     15          8           0        2.851790   -1.317282    0.862928
     16          7           0        4.562983   -0.091268   -0.049847
     17          6           0        5.581099   -0.982524    0.483356
     18          6           0        5.040300    1.102245   -0.731300
     19          1           0       -7.049287    0.382658    0.303347
     20          1           0       -5.831103    1.443913   -0.459814
     21          1           0       -5.724973    1.070083    1.286383
     22          1           0       -3.872095   -2.539702   -0.501680
     23          1           0       -1.397076   -2.657309   -0.665162
     24          1           0       -3.647608    1.665712    0.369222
     25          1           0       -1.441234    2.785336    0.473828
     26          1           0        1.033749    2.661644    0.314090
     27          1           0        0.820865   -1.532266   -0.555772
     28          1           0        5.093127   -1.841996    0.940252
     29          1           0        6.191952   -0.469398    1.239124
     30          1           0        6.243835   -1.321689   -0.322771
     31          1           0        4.208657    1.636236   -1.184195
     32          1           0        5.750337    0.815749   -1.517154
     33          1           0        5.559115    1.773469   -0.031870
 ---------------------------------------------------------------------

 SCF Done:  E(RB3LYP) =  -822.961304528     A.U. after    1 cycles

 Excitation energies and oscillator strengths:

 Excited State   1:      Singlet-A      4.0888 eV  303.23 nm  f=0.0443  <S**2>=0.000
      64 -> 66         0.13227
      64 -> 67         0.18769
      65 -> 66         0.64755
      65 -> 67        -0.15544
 This state for optimization and/or second-order correction.
 Total Energy, E(TD-HF/TD-KS) =  -822.811043723
 Copying the excited state density for this state as the 1-particle RhoCI density.

 Excited State   2:      Singlet-A      4.5837 eV  270.49 nm  f=0.0063  <S**2>=0.000
      64 -> 66         0.50111
      65 -> 66        -0.21521
      65 -> 67        -0.44262

 Excited State   3:      Singlet-A      5.2749 eV  235.05 nm  f=0.0319  <S**2>=0.000
      63 -> 66         0.69751

 Excited State   4:      Singlet-A      5.5274 eV  224.31 nm  f=0.9052  <S**2>=0.000
      62 -> 66        -0.28313
      64 -> 66         0.36290
      65 -> 67         0.41456
      65 -> 68        -0.29688

 Excited State   5:      Singlet-A      5.6730 eV  218.55 nm  f=0.4170  <S**2>=0.000
      61 -> 66        -0.18194
      62 -> 66         0.40669
      64 -> 66         0.17517
      64 -> 67         0.27023
      65 -> 67         0.26776
      65 -> 68         0.30425

 Excited State   6:      Singlet-A      5.8207 eV  213.01 nm  f=0.0496  <S**2>=0.000
      60 -> 66        -0.11960
      61 -> 66         0.39680
      62 -> 66         0.34997
      64 -> 67         0.18622
      65 -> 68        -0.36048

 Excited State   7:      Singlet-A      5.8523 eV  211.86 nm  f=0.1853  <S**2>=0.000
      61 -> 66         0.42895
      62 -> 67         0.17883
      64 -> 66         0.15915
      64 -> 67        -0.33900
      64 -> 68         0.11813
      65 -> 67         0.10357
      65 -> 68         0.23315
      65 -> 69        -0.14908

 Excited State   8:      Singlet-A      6.0359 eV  205.41 nm  f=0.1343  <S**2>=0.000
      60 -> 67         0.10780
      61 -> 66         0.27032
      62 -> 66        -0.24665
      63 -> 67         0.17874
      64 -> 67         0.44178
      64 -> 68         0.16145
      65 -> 66        -0.10494
      65 -> 68         0.20917

 Excited State   9:      Singlet-A      6.1585 eV  201.32 nm  f=0.0120  <S**2>=0.000
      63 -> 67         0.67135

 Excited State  10:      Singlet-A      6.3010 eV  196.77 nm  f=0.0477  <S**2>=0.000
      60 -> 66         0.23113
      61 -> 66         0.15215
      62 -> 67        -0.13759
      64 -> 68        -0.39200
      65 -> 68         0.11294
      65 -> 69         0.45598

 The electronic state is 1-A.
 Alpha  occ. eigenvalues --  -19.19258 -19.17706 -19.11431 -14.36873 -10.33163
 Alpha  occ. eigenvalues --  -10.24474 -10.24426 -10.23996 -10.22180 -10.21629
 Alpha  occ. eigenvalues --  -10.19484 -10.19189 -10.18878 -10.18828 -10.18805
 Alpha  occ. eigenvalues --  -10.18498 -10.18326 -10.18244  -1.10296  -1.06274
 Alpha  occ. eigenvalues --   -1.01219  -0.94023  -0.86692  -0.81646  -0.76876
 Alpha  occ. eigenvalues --   -0.75309  -0.72684  -0.72016  -0.71244  -0.68514
 Alpha  occ. eigenvalues --   -0.63091  -0.61421  -0.59402  -0.56431  -0.53445
 Alpha  occ. eigenvalues --   -0.52390  -0.51087  -0.49141  -0.48569  -0.47689
 Alpha  occ. eigenvalues --   -0.46710  -0.46242  -0.44760  -0.44217  -0.43480
 Alpha  occ. eigenvalues --   -0.42420  -0.41604  -0.40739  -0.40624  -0.40492
 Alpha  occ. eigenvalues --   -0.39906  -0.38765  -0.38048  -0.37690  -0.36147
 Alpha  occ. eigenvalues --   -0.34646  -0.34325  -0.32530  -0.31602  -0.29120
 Alpha  occ. eigenvalues --   -0.26975  -0.26662  -0.24291  -0.22474  -0.19864
 Alpha virt. eigenvalues --   -0.02956   0.00243   0.03838   0.05542   0.09159
 Alpha virt. eigenvalues --    0.09489   0.10459   0.11387   0.12032   0.12611
 Alpha virt. eigenvalues --    0.13312   0.14327   0.15026   0.15298   0.15674

 Mulliken atomic charges:
              1
     1  C   -0.225496
     2  O   -0.467911
     3  C    0.381394
     4  C   -0.198676
     5  C   -0.208175
     6  C    0.132471
     7  C    0.150086
     8  C   -0.271809
     9  C   -0.223114
    10  C   -0.192884
    11  C    0.368880
    12  C   -0.231171
    13  O   -0.544598
    14  C    0.785600
    15  O   -0.504016
    16  N   -0.434988
    17  C   -0.318258
    18  C   -0.315893
    19  H    0.178354
    20  H    0.166315
    21  H    0.167162
    22  H    0.125113
    23  H    0.127303
    24  H    0.132042
    25  H    0.116988
    26  H    0.120267
    27  H    0.153194
    28  H    0.206634
    29  H    0.155836
    30  H    0.155141
    31  H    0.199886
    32  H    0.157206
    33  H    0.157115
 Sum of Mulliken atomic charges =  -0.00000

 Dipole moment (field-independent basis, Debye):
    X=              0.2818    Y=              2.7057    Z=             -0.7230  Tot=              2.8148
 Quadrupole moment (field-independent basis, Debye-Ang):
   XX=            -62.8470   YY=           -101.5274   ZZ=           -107.8248
   XY=             -5.1856   XZ=             -6.0366   YZ=              3.3226

 Summary of Natural Population Analysis:

                                       Natural Population
                Natural  -----------------------------------------------
    Atom  No    Charge         Core      Valence    Rydberg      Total
 -----------------------------------------------------------------------
      C    1   -0.32439      1.99943     4.31079    0.01417     6.32439
      O    2   -0.46041      1.99975     6.44888    0.01177     8.46041
      C    3    0.36935      1.99879     3.60927    0.02259     5.63065
      C    4   -0.34296      1.99905     4.32662    0.01729     6.34296
      C    5   -0.22006      1.99907     4.20563    0.01536     6.22006
      C    6   -0.04322      1.99903     4.02904    0.01515     6.04322
      C    7   -0.04616      1.99903     4.03160    0.01553     6.04616
      C    8   -0.28867      1.99899     4.27667    0.01301     6.28867
      C    9   -0.23076      1.99907     4.21630    0.01539     6.23076
      C   10   -0.32910      1.99903     4.31339    0.01668     6.32910
      C   11    0.36253      1.99870     3.61671    0.02205     5.63747
      C   12   -0.27631      1.99896     4.26262    0.01472     6.27631
      O   13   -0.53994      1.99969     6.52999    0.01026     8.53994
      C   14    0.94255      1.99937     3.01318    0.04490     5.05745
      O   15   -0.64064      1.99978     6.62174    0.01911     8.64064
      N   16   -0.48418      1.99932     5.47387    0.01099     7.48418
      C   17   -0.46934      1.99947     4.45798    0.01189     6.46934
      C   18   -0.47092      1.99946     4.45996    0.01150     6.47092
      H   19    0.23255      0.00000     0.76694    0.00051     0.76745
      H   20    0.21224      0.00000     0.78605    0.00171     0.78776
      H   21    0.21274      0.00000     0.78555    0.00171     0.78726
      H   22    0.24157      0.00000     0.75738    0.00104     0.75843
      H   23    0.23421      0.00000     0.76477    0.00103     0.76579
      H   24    0.23257      0.00000     0.76623    0.00119     0.76743
      H   25    0.22771      0.00000     0.77120    0.00109     0.77229
      H   26    0.23900      0.00000     0.75992    0.00108     0.76100
      H   27    0.25425      0.00000     0.74432    0.00143     0.74575
      H   28    0.26381      0.00000     0.73468    0.00151     0.73619
      H   29    0.21918      0.00000     0.77936    0.00146     0.78082
      H   30    0.22149      0.00000     0.77728    0.00123     0.77851
      H   31    0.25743      0.00000     0.74175    0.00082     0.74257
      H   32    0.22409      0.00000     0.77453    0.00137     0.77591
      H   33    0.21977      0.00000     0.77856    0.00167     0.78023
 =======================================================================
   * Total *   -0.00000     35.98600    93.69279    0.32122   130.00000

 Normal termination of Gaussian 09 at Thu Sep 30 15:18:44 2021.
