 Gaussian 09, Revision A.02,

 -----------------------------------
 #p opt b3lyp/6-31G* scf=(xqc,tight)
 -----------------------------------

 -------------------------------
 c1ccc(cc1)Cn1cnc2c1cccc2_conf_0
 -------------------------------
 Symbolic Z-matrix:
 Charge =  0 Multiplicity = 1

 SCF Done:  E(RB3LYP) =  -650.224960752     A.U. after   15 cycles
 SCF Done:  E(RB3LYP) =  -650.227525990     A.U. after   12 cycles
 SCF Done:  E(RB3LYP) =  -650.227804700     A.U. after   11 cycles
 SCF Done:  E(RB3LYP) =  -650.227860705     A.U. after   10 cycles
 SCF Done:  E(RB3LYP) =  -650.227897771     A.U. after   11 cycles
 SCF Done:  E(RB3LYP) =  -650.227915871     A.U. after   10 cycles
 SCF Done:  E(RB3LYP) =  -650.227935993     A.U. after   11 cycles
 SCF Done:  E(RB3LYP) =  -650.227953565     A.U. after   12 cycles
 SCF Done:  E(RB3LYP) =  -650.227948012     A.U. after   12 cycles
 SCF Done:  E(RB3LYP) =  -650.228053295     A.U. after   12 cycles
 SCF Done:  E(RB3LYP) =  -650.229380506     A.U. after   15 cycles
 SCF Done:  E(RB3LYP) =  -650.229592044     A.U. after   14 cycles
 SCF Done:  E(RB3LYP) =  -650.229625804     A.U. after   12 cycles
 SCF Done:  E(RB3LYP) =  -650.229632388     A.U. after   12 cycles
 SCF Done:  E(RB3LYP) =  -650.229642915     A.U. after   12 cycles
 SCF Done:  E(RB3LYP) =  -650.229646926     A.U. after   10 cycles
 SCF Done:  E(RB3LYP) =  -650.229647117     A.U. after   10 cycles
 SCF Done:  E(RB3LYP) =  -650.229647129     A.U. after    8 cycles
 Optimization completed.
    -- Stationary point found.
 Normal termination of Gaussian 09 at Mon Oct  4 01:12:33 2021.

 ----------------------------------------------------------------------
 #p freq b3lyp/6-31G* volume NMR pop=NPA density=current Geom=AllCheck
 Guess=Read
 ----------------------------------------------------------------------

 c1ccc(cc1)Cn1cnc2c1cccc2_conf_0
 -------------------------------
 Redundant internal coordinates taken from checkpoint file:
 C14H12N2_ccf7_conf_0.chk
 Charge =  0 Multiplicity = 1

 SCF Done:  E(RB3LYP) =  -650.229647129     A.U. after    1 cycles

  1  C    Isotropic =    68.4622   Anisotropy =   167.7790

  2  C    Isotropic =    67.0907   Anisotropy =   168.0741

  3  C    Isotropic =    69.8145   Anisotropy =   169.9849

  4  C    Isotropic =    59.5525   Anisotropy =   170.1644

  5  C    Isotropic =    69.4214   Anisotropy =   151.2928

  6  C    Isotropic =    68.0712   Anisotropy =   165.4988

  7  C    Isotropic =   139.3947   Anisotropy =    34.2078

  8  N    Isotropic =   103.8363   Anisotropy =   100.3413

  9  C    Isotropic =    54.3262   Anisotropy =    74.3757

 10  N    Isotropic =     8.0076   Anisotropy =   350.0368

 11  C    Isotropic =    51.4604   Anisotropy =   135.1192

 12  C    Isotropic =    63.1548   Anisotropy =   137.3352

 13  C    Isotropic =    85.7414   Anisotropy =   144.2455

 14  C    Isotropic =    73.2889   Anisotropy =   157.9440

 15  C    Isotropic =    74.2246   Anisotropy =   156.9867

 16  C    Isotropic =    74.2108   Anisotropy =   149.9637

 17  H    Isotropic =    24.9972   Anisotropy =     3.6722

 18  H    Isotropic =    25.0106   Anisotropy =     5.6599

 19  H    Isotropic =    25.2877   Anisotropy =    10.9835

 20  H    Isotropic =    24.9291   Anisotropy =     6.9866

 21  H    Isotropic =    24.8942   Anisotropy =     4.3791

 22  H    Isotropic =    27.0509   Anisotropy =     5.5369

 23  H    Isotropic =    27.3216   Anisotropy =     8.0117

 24  H    Isotropic =    24.7890   Anisotropy =     5.5583

 25  H    Isotropic =    25.3486   Anisotropy =     9.1500

 26  H    Isotropic =    25.2188   Anisotropy =     6.0678

 27  H    Isotropic =    25.0731   Anisotropy =     4.4526

 28  H    Isotropic =    24.6157   Anisotropy =     4.8563

  Exact polarizability: 178.640   7.187 146.325 -16.211  -7.062 113.958
 Approx polarizability: 261.621  20.755 255.698 -38.439 -19.604 200.817

                     1                      2                      3
                     A                      A                      A
 Frequencies --    22.0903                28.9650                46.4208
 Red. masses --     3.7890                 4.8261                 5.1893
 Frc consts  --     0.0011                 0.0024                 0.0066
 IR Inten    --     0.2383                 0.6216                 0.3602

                     4                      5                      6
                     A                      A                      A
 Frequencies --   155.4199               174.3431               232.9068
 Red. masses --     4.4634                 4.6139                 4.1875
 Frc consts  --     0.0635                 0.0826                 0.1338
 IR Inten    --     1.8878                 0.4082                 0.8978

                     7                      8                      9
                     A                      A                      A
 Frequencies --   257.7824               293.5117               331.3764
 Red. masses --     3.4275                 3.1285                 5.5292
 Frc consts  --     0.1342                 0.1588                 0.3577
 IR Inten    --     0.7878                 1.3972                 0.8079

                    10                     11                     12
                     A                      A                      A
 Frequencies --   416.1856               436.4564               458.5851
 Red. masses --     2.9843                 2.9737                 3.0246
 Frc consts  --     0.3046                 0.3338                 0.3748
 IR Inten    --     0.2573                 4.5956                 3.0427

                    13                     14                     15
                     A                      A                      A
 Frequencies --   487.3443               551.3492               576.4643
 Red. masses --     4.2952                 6.1123                 4.9016
 Frc consts  --     0.6010                 1.0947                 0.9597
 IR Inten    --     6.6702                 0.3445                 1.5676

                    16                     17                     18
                     A                      A                      A
 Frequencies --   588.3400               626.4732               635.1282
 Red. masses --     4.5366                 4.5952                 6.2591
 Frc consts  --     0.9252                 1.0626                 1.4876
 IR Inten    --     3.6358                 2.3244                 0.3380

                    19                     20                     21
                     A                      A                      A
 Frequencies --   646.8811               710.4754               740.6626
 Red. masses --     4.5842                 2.6690                 1.6441
 Frc consts  --     1.1302                 0.7938                 0.5314
 IR Inten    --     4.2016                 8.9142                47.0119

                    22                     23                     24
                     A                      A                      A
 Frequencies --   758.9355               776.6903               784.9135
 Red. masses --     1.3589                 3.4665                 3.3860
 Frc consts  --     0.4611                 1.2321                 1.2291
 IR Inten    --    55.7750                 6.1859                 5.6230

                    25                     26                     27
                     A                      A                      A
 Frequencies --   798.2303               822.9799               850.0036
 Red. masses --     5.1899                 4.1124                 1.3449
 Frc consts  --     1.9483                 1.6411                 0.5725
 IR Inten    --    13.8738                 2.5949                 3.6898

                    28                     29                     30
                     A                      A                      A
 Frequencies --   861.8327               867.4848               897.3873
 Red. masses --     1.2519                 1.5370                 6.1129
 Frc consts  --     0.5479                 0.6815                 2.9004
 IR Inten    --     0.0620                 2.0598                 5.4244

                    31                     32                     33
                     A                      A                      A
 Frequencies --   918.7312               932.1225               969.7771
 Red. masses --     1.3591                 1.3467                 1.3509
 Frc consts  --     0.6759                 0.6894                 0.7485
 IR Inten    --     4.2385                 2.2986                 0.0889

                    34                     35                     36
                     A                      A                      A
 Frequencies --   974.1137               984.7146              1000.4899
 Red. masses --     1.2377                 1.9294                 1.2988
 Frc consts  --     0.6920                 1.1023                 0.7660
 IR Inten    --     0.0668                14.8741                 0.9613

                    37                     38                     39
                     A                      A                      A
 Frequencies --  1018.4134              1037.4461              1058.1437
 Red. masses --     6.1689                 2.0465                 2.2545
 Frc consts  --     3.7697                 1.2977                 1.4872
 IR Inten    --     1.8099                 5.8571                 3.2176

                    40                     41                     42
                     A                      A                      A
 Frequencies --  1106.4730              1116.7123              1149.1258
 Red. masses --     3.7861                 1.6303                 1.6308
 Frc consts  --     2.7310                 1.1979                 1.2688
 IR Inten    --     0.2935                 6.3392                 0.4459

                    43                     44                     45
                     A                      A                      A
 Frequencies --  1184.1818              1194.0715              1208.6272
 Red. masses --     1.1823                 1.1038                 1.7737
 Frc consts  --     0.9768                 0.9272                 1.5266
 IR Inten    --     0.9240                 0.1185                26.8619

                    46                     47                     48
                     A                      A                      A
 Frequencies --  1214.2532              1222.9100              1236.3347
 Red. masses --     1.1425                 2.5723                 1.8685
 Frc consts  --     0.9925                 2.2665                 1.6827
 IR Inten    --     3.2702                 0.8148                18.3744

                    49                     50                     51
                     A                      A                      A
 Frequencies --  1302.1848              1321.2870              1335.2031
 Red. masses --     1.5427                 2.2979                 2.2355
 Frc consts  --     1.5413                 2.3636                 2.3481
 IR Inten    --    24.8736                40.9425                 6.9539

                    52                     53                     54
                     A                      A                      A
 Frequencies --  1367.1018              1378.2274              1400.5445
 Red. masses --     2.1663                 3.8303                 3.1288
 Frc consts  --     2.3854                 4.2867                 3.6160
 IR Inten    --     2.8584                25.4958                27.9757

                    55                     56                     57
                     A                      A                      A
 Frequencies --  1403.6713              1424.1749              1496.7294
 Red. masses --     1.7434                 2.0943                 2.1269
 Frc consts  --     2.0239                 2.5027                 2.8073
 IR Inten    --    51.0351                 9.0475                53.5619

                    58                     59                     60
                     A                      A                      A
 Frequencies --  1504.8147              1510.1129              1532.1289
 Red. masses --     2.2728                 1.2889                 2.7887
 Frc consts  --     3.0324                 1.7317                 3.8569
 IR Inten    --     9.9918                10.5751                 1.1327

                    61                     62                     63
                     A                      A                      A
 Frequencies --  1546.9677              1551.7548              1636.4282
 Red. masses --     2.3189                 3.8685                 6.3685
 Frc consts  --     3.2696                 5.4883                10.0480
 IR Inten    --     4.8037                91.5627                 1.9292

                    64                     65                     66
                     A                      A                      A
 Frequencies --  1647.2647              1665.7610              1672.9478
 Red. masses --     5.5079                 5.4918                 6.7165
 Frc consts  --     8.8057                 8.9782                11.0754
 IR Inten    --     1.3195                 3.3253                15.0834

                    67                     68                     69
                     A                      A                      A
 Frequencies --  3047.4248              3085.1158              3173.7649
 Red. masses --     1.0590                 1.1054                 1.0875
 Frc consts  --     5.7946                 6.1988                 6.4538
 IR Inten    --    32.2988                 9.0459                 9.1580

                    70                     71                     72
                     A                      A                      A
 Frequencies --  3185.9592              3186.0164              3194.6705
 Red. masses --     1.0857                 1.0861                 1.0899
 Frc consts  --     6.4932                 6.4954                 6.5540
 IR Inten    --     1.0549                 1.1185                10.7272

                    73                     74                     75
                     A                      A                      A
 Frequencies --  3199.2092              3203.1660              3211.8491
 Red. masses --     1.0896                 1.0939                 1.0940
 Frc consts  --     6.5705                 6.6129                 6.6490
 IR Inten    --    17.1453                30.2525                24.8781

                    76                     77                     78
                     A                      A                      A
 Frequencies --  3212.5067              3217.4742              3243.4572
 Red. masses --     1.0979                 1.0958                 1.0955
 Frc consts  --     6.6756                 6.6835                 6.7903
 IR Inten    --    15.8008                14.0402                 3.5405

 - Thermochemistry -
 -------------------
 Temperature   298.150 Kelvin.  Pressure   1.00000 Atm.
 Atom     1 has atomic number  6 and mass  12.00000

 Molecular mass:   208.10005 amu.
 Principal axes and moments of inertia in atomic units:
                           1         2         3
     Eigenvalues --  1661.040845327.709445987.76004
           X            0.99998  -0.00516  -0.00202
           Y            0.00516   0.99999   0.00154
           Z            0.00202  -0.00155   1.00000
 This molecule is an asymmetric top.
 Rotational symmetry number  1.
 Warning -- assumption of classical behavior for rotation
           may cause significant error
 Rotational temperatures (Kelvin)      0.05214     0.01626     0.01447
 Rotational constants (GHZ):           1.08651     0.33875     0.30141
 Zero-point vibrational energy     599449.8 (Joules/Mol)
                                  143.27194 (Kcal/Mol)
 Warning -- explicit consideration of  16 degrees of freedom as
           vibrations may cause significant error
 Vibrational temperatures:     31.78    41.67    66.79   223.61   250.84
          (Kelvin)            335.10   370.89   422.30   476.78   598.80
                              627.96   659.80   701.18   793.27   829.40
                              846.49   901.35   913.81   930.72  1022.21
                             1065.65  1091.94  1117.48  1129.31  1148.47
                             1184.08  1222.96  1239.98  1248.12  1291.14
                             1321.85  1341.11  1395.29  1401.53  1416.78
                             1439.48  1465.27  1492.65  1522.43  1591.97
                             1606.70  1653.33  1703.77  1718.00  1738.94
                             1747.04  1759.49  1778.81  1873.55  1901.03
                             1921.06  1966.95  1982.96  2015.07  2019.57
                             2049.07  2153.46  2165.09  2172.71  2204.39
                             2225.74  2232.63  2354.45  2370.04  2396.66
                             2407.00  4384.56  4438.79  4566.33  4583.88
                             4583.96  4596.41  4602.94  4608.64  4621.13
                             4622.07  4629.22  4666.61

 Zero-point correction=                           0.228318 (Hartree/Particle)
 Thermal correction to Energy=                    0.240295
 Thermal correction to Enthalpy=                  0.241239
 Thermal correction to Gibbs Free Energy=         0.187790
 Sum of electronic and zero-point Energies=           -650.001329
 Sum of electronic and thermal Energies=              -649.989352
 Sum of electronic and thermal Enthalpies=            -649.988408
 Sum of electronic and thermal Free Energies=         -650.041857

                     E (Thermal)             CV                S
                      KCal/Mol        Cal/Mol-Kelvin    Cal/Mol-Kelvin
 Total                  150.787             48.254            112.494
 Electronic               0.000              0.000              0.000
 Translational            0.889              2.981             41.903
 Rotational               0.889              2.981             32.338
 Vibrational            149.010             42.292             38.253
 Vibration     1          0.593              1.985              6.437
 Vibration     2          0.593              1.984              5.899
 Vibration     3          0.595              1.979              4.964
 Vibration     4          0.620              1.897              2.605
 Vibration     5          0.627              1.874              2.388
 Vibration     6          0.654              1.791              1.856
 Vibration     7          0.667              1.750              1.677
 Vibration     8          0.688              1.686              1.454
 Vibration     9          0.714              1.613              1.253
 Vibration    10          0.779              1.435              0.905
 Vibration    11          0.797              1.391              0.838
 Vibration    12          0.817              1.342              0.770
 Vibration    13          0.843              1.278              0.691
 Vibration    14          0.907              1.137              0.541
 Vibration    15          0.933              1.082              0.492
 Vibration    16          0.946              1.057              0.470

 Optimization completed.
    -- Stationary point found.
 Normal termination of Gaussian 09 at Mon Oct  4 03:14:29 2021.
 Gaussian 09:  AM64L-G09RevA.02 11-Jun-2009

 ----------------------------------------------------------------------
 #p TD(NStates=10, Root=1) b3lyp/6-31G* volume pop=NPA density=current
 Geom=AllCheck Guess=Read
 ----------------------------------------------------------------------

 c1ccc(cc1)Cn1cnc2c1cccc2_conf_0
 -------------------------------
 Redundant internal coordinates taken from checkpoint file:
 C14H12N2_ccf7_conf_0.chk
 Charge =  0 Multiplicity = 1

                         Standard orientation:
 ---------------------------------------------------------------------
 Center     Atomic      Atomic             Coordinates (Angstroms)
 Number     Number       Type             X           Y           Z
 ---------------------------------------------------------------------
      1          6           0        3.970505    0.784927    0.914636
      2          6           0        3.009613    0.063346    1.626873
      3          6           0        1.952551   -0.551089    0.956368
      4          6           0        1.840810   -0.448508   -0.435311
      5          6           0        2.802949    0.281568   -1.141258
      6          6           0        3.865170    0.892650   -0.472262
      7          6           0        0.725299   -1.153773   -1.190817
      8          7           0       -0.572560   -1.106296   -0.535747
      9          6           0       -1.277411   -2.175343   -0.022265
     10          7           0       -2.440928   -1.863794    0.485399
     11          6           0       -2.538756   -0.489272    0.302363
     12          6           0       -1.376288    0.008255   -0.335705
     13          6           0       -1.209316    1.360802   -0.643922
     14          6           0       -2.253711    2.214227   -0.297854
     15          6           0       -3.418943    1.736064    0.335820
     16          6           0       -3.575287    0.388663    0.643446
     17          1           0        4.792749    1.264115    1.438974
     18          1           0        3.081895   -0.019938    2.707945
     19          1           0        1.203374   -1.103373    1.517401
     20          1           0        2.721995    0.373176   -2.222570
     21          1           0        4.603594    1.457937   -1.034491
     22          1           0        0.968369   -2.215484   -1.321407
     23          1           0        0.632428   -0.727300   -2.197189
     24          1           0       -0.862196   -3.176045   -0.062258
     25          1           0       -0.307496    1.735305   -1.118278
     26          1           0       -2.166148    3.274668   -0.517958
     27          1           0       -4.207968    2.438772    0.589302
     28          1           0       -4.469294    0.013697    1.132276
 ---------------------------------------------------------------------

 SCF Done:  E(RB3LYP) =  -650.229647129     A.U. after    1 cycles

 Excitation energies and oscillator strengths:

 Excited State   1:      Singlet-A      4.9566 eV  250.14 nm  f=0.0048  <S**2>=0.000
      54 -> 56         0.14353
      55 -> 56         0.68477
 This state for optimization and/or second-order correction.
 Total Energy, E(TD-HF/TD-KS) =  -650.047494065
 Copying the excited state density for this state as the 1-particle RhoCI density.

 Excited State   2:      Singlet-A      5.0370 eV  246.15 nm  f=0.0237  <S**2>=0.000
      54 -> 56        -0.19136
      54 -> 57         0.32583
      54 -> 58         0.36121
      55 -> 57        -0.13817
      55 -> 58         0.31484
      55 -> 59         0.30055

 Excited State   3:      Singlet-A      5.0825 eV  243.94 nm  f=0.0132  <S**2>=0.000
      54 -> 56        -0.16603
      54 -> 57         0.20425
      55 -> 57         0.60575
      55 -> 58        -0.20039
      55 -> 59         0.11641

 Excited State   4:      Singlet-A      5.1002 eV  243.10 nm  f=0.0024  <S**2>=0.000
      54 -> 56         0.63911
      54 -> 57         0.19792
      54 -> 58         0.14620
      55 -> 56        -0.11980

 Excited State   5:      Singlet-A      5.2284 eV  237.13 nm  f=0.0034  <S**2>=0.000
      54 -> 57        -0.43837
      54 -> 58         0.50254
      55 -> 58        -0.18787
      55 -> 59         0.10029

 Excited State   6:      Singlet-A      5.2744 eV  235.07 nm  f=0.1008  <S**2>=0.000
      54 -> 57        -0.26478
      54 -> 59        -0.20073
      55 -> 57         0.27357
      55 -> 58         0.52445
      55 -> 59        -0.12577

 Excited State   7:      Singlet-A      5.4336 eV  228.18 nm  f=0.0002  <S**2>=0.000
      52 -> 56         0.47601
      53 -> 57         0.41981
      53 -> 58        -0.27087

 Excited State   8:      Singlet-A      5.7565 eV  215.38 nm  f=0.0009  <S**2>=0.000
      51 -> 56        -0.18153
      51 -> 57         0.42563
      51 -> 58         0.51915

 Excited State   9:      Singlet-A      6.0444 eV  205.12 nm  f=0.0067  <S**2>=0.000
      53 -> 56        -0.30568
      53 -> 57         0.37183
      53 -> 58         0.48748

 Excited State  10:      Singlet-A      6.1149 eV  202.76 nm  f=0.0398  <S**2>=0.000
      52 -> 57        -0.35199
      52 -> 58         0.16199
      53 -> 56         0.48444
      53 -> 57         0.13869
      53 -> 58         0.29115

 The electronic state is 1-A.
 Alpha  occ. eigenvalues --  -14.39075 -14.31086 -10.24932 -10.24725 -10.21638
 Alpha  occ. eigenvalues --  -10.20964 -10.20105 -10.20065 -10.19947 -10.19871
 Alpha  occ. eigenvalues --  -10.19791 -10.19765 -10.18920 -10.18371 -10.18089
 Alpha  occ. eigenvalues --  -10.17957  -1.01578  -0.89539  -0.86023  -0.83536
 Alpha  occ. eigenvalues --   -0.78041  -0.75296  -0.73987  -0.72984  -0.70173
 Alpha  occ. eigenvalues --   -0.62675  -0.61581  -0.60411  -0.59410  -0.57184
 Alpha  occ. eigenvalues --   -0.52922  -0.51436  -0.50080  -0.47760  -0.47508
 Alpha  occ. eigenvalues --   -0.46004  -0.44601  -0.43907  -0.42863  -0.42346
 Alpha  occ. eigenvalues --   -0.41890  -0.40753  -0.40647  -0.36817  -0.36055
 Alpha  occ. eigenvalues --   -0.35641  -0.35199  -0.34746  -0.33110  -0.29327
 Alpha  occ. eigenvalues --   -0.26614  -0.25890  -0.25399  -0.22317  -0.21816
 Alpha virt. eigenvalues --   -0.01385  -0.01106  -0.00915   0.02474   0.05920
 Alpha virt. eigenvalues --    0.08490   0.09379   0.11105   0.11309   0.13936
 Alpha virt. eigenvalues --    0.14339   0.14956   0.15229   0.15338   0.16978

 Mulliken atomic charges:
              1
     1  C   -0.203486
     2  C   -0.118338
     3  C   -0.251848
     4  C    0.095307
     5  C   -0.200879
     6  C   -0.166909
     7  C   -0.272819
     8  N   -0.429440
     9  C    0.255426
    10  N   -0.452255
    11  C    0.219829
    12  C    0.353237
    13  C   -0.082405
    14  C   -0.135103
    15  C   -0.124751
    16  C   -0.120331
    17  H    0.060926
    18  H    0.073866
    19  H    0.038069
    20  H    0.056688
    21  H    0.067102
    22  H    0.139978
    23  H    0.159849
    24  H    0.213568
    25  H    0.248245
    26  H    0.191021
    27  H    0.181149
    28  H    0.204304
 Sum of Mulliken atomic charges =  -0.00000

 Dipole moment (field-independent basis, Debye):
    X=            -13.1098    Y=              1.3923    Z=             -2.3299  Tot=             13.3879
 Quadrupole moment (field-independent basis, Debye-Ang):
   XX=           -105.2804   YY=            -81.9805   ZZ=            -92.1908
   XY=            -11.7263   XZ=             -4.7646   YZ=              0.4362

 Summary of Natural Population Analysis:

                                       Natural Population
                Natural  -----------------------------------------------
    Atom  No    Charge         Core      Valence    Rydberg      Total
 -----------------------------------------------------------------------
      C    1   -0.38316      1.99910     4.36561    0.01845     6.38316
      C    2   -0.21115      1.99911     4.19752    0.01453     6.21115
      C    3   -0.36270      1.99904     4.34703    0.01663     6.36270
      C    4   -0.25864      1.99899     4.24151    0.01815     6.25864
      C    5   -0.23942      1.99904     4.22723    0.01315     6.23942
      C    6   -0.31194      1.99910     4.29539    0.01745     6.31194
      C    7   -0.25857      1.99924     4.24102    0.01831     6.25857
      N    8   -0.27437      1.99930     5.26234    0.01273     7.27437
      C    9    0.26166      1.99936     3.71256    0.02642     5.73834
      N   10   -0.39124      1.99948     5.37030    0.02146     7.39124
      C   11    0.08760      1.99898     3.89189    0.02152     5.91240
      C   12    0.11720      1.99897     3.86602    0.01780     5.88280
      C   13   -0.07813      1.99902     4.06618    0.01293     6.07813
      C   14   -0.19413      1.99916     4.18102    0.01394     6.19413
      C   15   -0.22874      1.99916     4.21573    0.01385     6.22874
      C   16   -0.07218      1.99902     4.05961    0.01355     6.07218
      H   17    0.20443      0.00000     0.79501    0.00056     0.79557
      H   18    0.20852      0.00000     0.79066    0.00082     0.79148
      H   19    0.18656      0.00000     0.81308    0.00036     0.81344
      H   20    0.19653      0.00000     0.80253    0.00094     0.80347
      H   21    0.20721      0.00000     0.79210    0.00069     0.79279
      H   22    0.21099      0.00000     0.78132    0.00768     0.78901
      H   23    0.24749      0.00000     0.75142    0.00110     0.75251
      H   24    0.25344      0.00000     0.74554    0.00102     0.74656
      H   25    0.29060      0.00000     0.70898    0.00042     0.70940
      H   26    0.26430      0.00000     0.73541    0.00029     0.73570
      H   27    0.26136      0.00000     0.73823    0.00041     0.73864
      H   28    0.26647      0.00000     0.73273    0.00080     0.73353
 =======================================================================
   * Total *    0.00000     31.98608    77.72796    0.28596   110.00000

 Normal termination of Gaussian 09 at Mon Oct  4 09:38:59 2021.
