 Gaussian 09, Revision A.02,

 -----------------------------------
 #p opt b3lyp/6-31G* scf=(xqc,tight)
 -----------------------------------

 -----------------------------------
 O=C(C(C)(C)C)Oc1cccc2c1nccc2_conf_0
 -----------------------------------
 Symbolic Z-matrix:
 Charge =  0 Multiplicity = 1

 SCF Done:  E(RB3LYP) =  -747.736731025     A.U. after   16 cycles
 SCF Done:  E(RB3LYP) =  -747.744294488     A.U. after   13 cycles
 SCF Done:  E(RB3LYP) =  -747.744915940     A.U. after   12 cycles
 SCF Done:  E(RB3LYP) =  -747.743585527     A.U. after   13 cycles
 SCF Done:  E(RB3LYP) =  -747.745249485     A.U. after   12 cycles
 SCF Done:  E(RB3LYP) =  -747.745606221     A.U. after   12 cycles
 SCF Done:  E(RB3LYP) =  -747.745927367     A.U. after   14 cycles
 SCF Done:  E(RB3LYP) =  -747.746061138     A.U. after   12 cycles
 SCF Done:  E(RB3LYP) =  -747.746111891     A.U. after   11 cycles
 SCF Done:  E(RB3LYP) =  -747.746122451     A.U. after   11 cycles
 SCF Done:  E(RB3LYP) =  -747.746123312     A.U. after   10 cycles
 SCF Done:  E(RB3LYP) =  -747.746123608     A.U. after    8 cycles
 SCF Done:  E(RB3LYP) =  -747.746123774     A.U. after    8 cycles
 SCF Done:  E(RB3LYP) =  -747.746123978     A.U. after    9 cycles
 SCF Done:  E(RB3LYP) =  -747.746124176     A.U. after    9 cycles
 SCF Done:  E(RB3LYP) =  -747.746124211     A.U. after    8 cycles
 Optimization completed.
    -- Stationary point found.
 Normal termination of Gaussian 09 at Wed Sep 29 06:27:44 2021.

 ----------------------------------------------------------------------
 #p freq b3lyp/6-31G* volume NMR pop=NPA density=current Geom=AllCheck
 Guess=Read
 ----------------------------------------------------------------------

 O=C(C(C)(C)C)Oc1cccc2c1nccc2_conf_0
 -----------------------------------
 Redundant internal coordinates taken from checkpoint file:
 C14H15NO2_9c99_conf_0.chk
 Charge =  0 Multiplicity = 1

 SCF Done:  E(RB3LYP) =  -747.746124211     A.U. after    1 cycles

  1  O    Isotropic =   -56.8257   Anisotropy =   571.5884

  2  C    Isotropic =    22.1790   Anisotropy =    78.7535

  3  C    Isotropic =   148.1378   Anisotropy =    24.5398

  4  C    Isotropic =   162.7850   Anisotropy =    35.2015

  5  C    Isotropic =   161.4213   Anisotropy =    39.5095

  6  C    Isotropic =   162.7411   Anisotropy =    32.0071

  7  O    Isotropic =   114.2124   Anisotropy =   182.4978

  8  C    Isotropic =    47.6063   Anisotropy =   105.5684

  9  C    Isotropic =    71.5930   Anisotropy =   151.7522

 10  C    Isotropic =    69.5842   Anisotropy =   161.8082

 11  C    Isotropic =    71.5995   Anisotropy =   141.3496

 12  C    Isotropic =    66.7053   Anisotropy =   192.0491

 13  C    Isotropic =    53.5249   Anisotropy =   164.2054

 14  N    Isotropic =   -49.6492   Anisotropy =   523.8949

 15  C    Isotropic =    47.0772   Anisotropy =   152.3358

 16  C    Isotropic =    75.2003   Anisotropy =   153.9341

 17  C    Isotropic =    60.9734   Anisotropy =   163.6213

 18  H    Isotropic =    30.1239   Anisotropy =     5.5761

 19  H    Isotropic =    30.7907   Anisotropy =     8.2662

 20  H    Isotropic =    31.0967   Anisotropy =     7.9213

 21  H    Isotropic =    29.6009   Anisotropy =     8.8096

 22  H    Isotropic =    31.0190   Anisotropy =     8.0091

 23  H    Isotropic =    30.8518   Anisotropy =     7.4995

 24  H    Isotropic =    30.6970   Anisotropy =     8.4671

 25  H    Isotropic =    30.5210   Anisotropy =     7.7757

 26  H    Isotropic =    31.3953   Anisotropy =     7.9007

 27  H    Isotropic =    24.6187   Anisotropy =     9.3771

 28  H    Isotropic =    24.7032   Anisotropy =     5.1140

 29  H    Isotropic =    24.7351   Anisotropy =     5.8309

 30  H    Isotropic =    23.2723   Anisotropy =     6.7227

 31  H    Isotropic =    25.0242   Anisotropy =     5.3052

 32  H    Isotropic =    24.3602   Anisotropy =     6.8053

  Exact polarizability: 198.946   8.515 186.472   6.120   2.182  84.880
 Approx polarizability: 284.735  15.927 326.243  14.114  -1.562 133.619

                     1                      2                      3
                     A                      A                      A
 Frequencies --    14.3853                38.3647                46.5556
 Red. masses --     4.3383                 4.8777                 4.3270
 Frc consts  --     0.0005                 0.0042                 0.0055
 IR Inten    --     0.3218                 0.5755                 1.1526

                     4                      5                      6
                     A                      A                      A
 Frequencies --    74.3580               146.8862               178.9570
 Red. masses --     4.6101                 4.5100                 4.1706
 Frc consts  --     0.0150                 0.0573                 0.0787
 IR Inten    --     2.8040                 0.4046                 3.2554

                     7                      8                      9
                     A                      A                      A
 Frequencies --   200.2989               209.1270               216.4069
 Red. masses --     2.0427                 3.0836                 1.3522
 Frc consts  --     0.0483                 0.0795                 0.0373
 IR Inten    --     0.5268                 0.5883                 0.4433

                    10                     11                     12
                     A                      A                      A
 Frequencies --   254.0107               269.8169               272.7704
 Red. masses --     1.8086                 1.2093                 1.4516
 Frc consts  --     0.0688                 0.0519                 0.0636
 IR Inten    --     0.7920                 0.2053                 0.9407

                    13                     14                     15
                     A                      A                      A
 Frequencies --   312.0947               320.8647               354.3250
 Red. masses --     4.0530                 3.0908                 3.1645
 Frc consts  --     0.2326                 0.1875                 0.2341
 IR Inten    --     0.1998                 5.6861                 6.3227

                    16                     17                     18
                     A                      A                      A
 Frequencies --   377.2712               430.8917               445.5319
 Red. masses --     2.3474                 4.0415                 3.5493
 Frc consts  --     0.1969                 0.4421                 0.4151
 IR Inten    --     0.3944                 0.7776                 2.9347

                    19                     20                     21
                     A                      A                      A
 Frequencies --   461.4451               479.7648               530.2744
 Red. masses --     4.6432                 3.2626                 6.7201
 Frc consts  --     0.5825                 0.4425                 1.1133
 IR Inten    --     1.7271                 0.1357                 1.0601

                    22                     23                     24
                     A                      A                      A
 Frequencies --   548.5651               573.8488               585.7207
 Red. masses --     6.2015                 4.4452                 4.5876
 Frc consts  --     1.0995                 0.8624                 0.9273
 IR Inten    --     1.0840                 6.2471                 3.0451

                    25                     26                     27
                     A                      A                      A
 Frequencies --   623.0047               651.6896               732.1910
 Red. masses --     4.9190                 3.7401                 6.5172
 Frc consts  --     1.1249                 0.9359                 2.0585
 IR Inten    --     2.4221                 1.0282                 6.2406

                    28                     29                     30
                     A                      A                      A
 Frequencies --   756.5381               769.4463               795.6769
 Red. masses --     6.2137                 1.3240                 3.7854
 Frc consts  --     2.0954                 0.4619                 1.4120
 IR Inten    --     2.8877                 9.4582                21.2221

                    31                     32                     33
                     A                      A                      A
 Frequencies --   817.1978               824.4078               841.0284
 Red. masses --     2.5158                 3.3523                 2.4303
 Frc consts  --     0.9899                 1.3424                 1.0128
 IR Inten    --    11.7731                 8.2996                18.1643

                    34                     35                     36
                     A                      A                      A
 Frequencies --   874.1670               903.0102               921.0627
 Red. masses --     3.7284                 2.3083                 2.4488
 Frc consts  --     1.6787                 1.1090                 1.2240
 IR Inten    --     8.9966                 3.9339                 6.6495

                    37                     38                     39
                     A                      A                      A
 Frequencies --   948.7410               958.4171               968.0991
 Red. masses --     1.7818                 1.6236                 1.3974
 Frc consts  --     0.9450                 0.8787                 0.7716
 IR Inten    --     1.7561                 3.4830                 0.3312

                    40                     41                     42
                     A                      A                      A
 Frequencies --   972.3561               983.4315               995.0984
 Red. masses --     1.2790                 1.1999                 1.3337
 Frc consts  --     0.7125                 0.6837                 0.7781
 IR Inten    --     0.2368                 0.0548                 0.7274

                    43                     44                     45
                     A                      A                      A
 Frequencies --  1052.3501              1059.2701              1063.0274
 Red. masses --     1.8659                 2.4287                 1.4272
 Frc consts  --     1.2175                 1.6056                 0.9502
 IR Inten    --    20.6375                16.8252                 0.6349

                    46                     47                     48
                     A                      A                      A
 Frequencies --  1083.6385              1104.8616              1150.1034
 Red. masses --     2.3269                 2.3094                 3.4588
 Frc consts  --     1.6099                 1.6610                 2.6956
 IR Inten    --     6.2277                 9.2943               674.1053

                    49                     50                     51
                     A                      A                      A
 Frequencies --  1169.3646              1205.4114              1240.7943
 Red. masses --     1.3114                 1.3588                 2.6294
 Frc consts  --     1.0566                 1.1633                 2.3851
 IR Inten    --    34.4690                70.1674                 2.4904

                    52                     53                     54
                     A                      A                      A
 Frequencies --  1249.3491              1262.8137              1275.0811
 Red. masses --     2.2880                 2.7410                 2.7609
 Frc consts  --     2.1041                 2.5754                 2.6447
 IR Inten    --     1.8013                 6.3264                78.7231

                    55                     56                     57
                     A                      A                      A
 Frequencies --  1281.9074              1311.4129              1367.5037
 Red. masses --     1.8361                 3.0777                 3.7382
 Frc consts  --     1.7777                 3.1186                 4.1188
 IR Inten    --    56.9617                33.5897                22.9956

                    58                     59                     60
                     A                      A                      A
 Frequencies --  1402.8398              1423.4723              1429.0929
 Red. masses --     5.1126                 1.2047                 1.2514
 Frc consts  --     5.9281                 1.4383                 1.5058
 IR Inten    --    31.3033                 3.6866                 5.8147

                    61                     62                     63
                     A                      A                      A
 Frequencies --  1433.2904              1458.7238              1474.1837
 Red. masses --     1.9724                 1.2212                 2.0423
 Frc consts  --     2.3874                 1.5310                 2.6150
 IR Inten    --    20.7487                15.8009                 5.3258

                    64                     65                     66
                     A                      A                      A
 Frequencies --  1507.6645              1516.4717              1517.9470
 Red. masses --     1.0487                 1.0765                 2.5955
 Frc consts  --     1.4045                 1.4585                 3.5236
 IR Inten    --     0.7962                 4.6904                45.1136

                    67                     68                     69
                     A                      A                      A
 Frequencies --  1521.8929              1529.6232              1532.6693
 Red. masses --     1.0483                 1.0498                 1.0562
 Frc consts  --     1.4305                 1.4472                 1.4618
 IR Inten    --     0.1073                 5.5311                 7.3539

                    70                     71                     72
                     A                      A                      A
 Frequencies --  1550.3652              1552.2779              1620.3578
 Red. masses --     1.7078                 1.6234                 6.9323
 Frc consts  --     2.4186                 2.3047                10.7238
 IR Inten    --    68.5571                 2.6437                 5.8806

                    73                     74                     75
                     A                      A                      A
 Frequencies --  1656.6169              1673.6517              1832.7471
 Red. masses --     5.3252                 6.4223                12.7160
 Frc consts  --     8.6105                10.5992                25.1656
 IR Inten    --    17.4587                13.4288               193.0431

                    76                     77                     78
                     A                      A                      A
 Frequencies --  3049.1183              3051.0383              3059.8418
 Red. masses --     1.0360                 1.0366                 1.0366
 Frc consts  --     5.6747                 5.6853                 5.7183
 IR Inten    --    27.6915                10.5568                34.1283

                    79                     80                     81
                     A                      A                      A
 Frequencies --  3111.0791              3114.6374              3124.7895
 Red. masses --     1.1029                 1.1025                 1.1024
 Frc consts  --     6.2893                 6.3017                 6.3421
 IR Inten    --    13.2575                22.6377                40.1085

                    82                     83                     84
                     A                      A                      A
 Frequencies --  3140.0379              3144.6439              3148.6848
 Red. masses --     1.1019                 1.1019                 1.1004
 Frc consts  --     6.4013                 6.4202                 6.4277
 IR Inten    --    22.7058                 2.8648                29.3387

                    85                     86                     87
                     A                      A                      A
 Frequencies --  3162.7605              3185.4149              3188.2423
 Red. masses --     1.0892                 1.0886                 1.0880
 Frc consts  --     6.4194                 6.5079                 6.5161
 IR Inten    --    27.8950                 1.5884                10.9598

                    88                     89                     90
                     A                      A                      A
 Frequencies --  3207.9134              3213.3751              3243.1815
 Red. masses --     1.0941                 1.0961                 1.0930
 Frc consts  --     6.6336                 6.6685                 6.7738
 IR Inten    --    25.4557                23.5209                 3.4196

 - Thermochemistry -
 -------------------
 Temperature   298.150 Kelvin.  Pressure   1.00000 Atm.
 Atom     1 has atomic number  8 and mass  15.99491

 Molecular mass:   229.11028 amu.
 Principal axes and moments of inertia in atomic units:
                           1         2         3
     Eigenvalues --  1966.712415917.644177278.13883
           X            0.99991  -0.01248   0.00423
           Y            0.01244   0.99989   0.00758
           Z           -0.00432  -0.00753   0.99996
 This molecule is an asymmetric top.
 Rotational symmetry number  1.
 Warning -- assumption of classical behavior for rotation
           may cause significant error
 Rotational temperatures (Kelvin)      0.04404     0.01464     0.01190
 Rotational constants (GHZ):           0.91764     0.30498     0.24797
 Zero-point vibrational energy     689848.3 (Joules/Mol)
                                  164.87771 (Kcal/Mol)
 Warning -- explicit consideration of  24 degrees of freedom as
           vibrations may cause significant error
 Vibrational temperatures:     20.70    55.20    66.98   106.98   211.34
          (Kelvin)            257.48   288.19   300.89   311.36   365.46
                              388.21   392.46   449.03   461.65   509.79
                              542.81   619.96   641.02   663.92   690.27
                              762.95   789.26   825.64   842.72   896.36
                              937.63  1053.46  1088.49  1107.06  1144.80
                             1175.76  1186.14  1210.05  1257.73  1299.23
                             1325.20  1365.02  1378.95  1392.88  1399.00
                             1414.94  1431.72  1514.10  1524.05  1529.46
                             1559.11  1589.65  1654.74  1682.45  1734.32
                             1785.22  1797.53  1816.90  1834.56  1844.38
                             1886.83  1967.53  2018.37  2048.06  2056.14
                             2062.18  2098.78  2121.02  2169.19  2181.86
                             2183.98  2189.66  2200.78  2205.17  2230.63
                             2233.38  2331.33  2383.50  2408.01  2636.91
                             4387.00  4389.76  4402.42  4476.14  4481.26
                             4495.87  4517.81  4524.44  4530.25  4550.50
                             4583.10  4587.16  4615.47  4623.32  4666.21

 Zero-point correction=                           0.262749 (Hartree/Particle)
 Thermal correction to Energy=                    0.278154
 Thermal correction to Enthalpy=                  0.279098
 Thermal correction to Gibbs Free Energy=         0.218728
 Sum of electronic and zero-point Energies=           -747.483375
 Sum of electronic and thermal Energies=              -747.467970
 Sum of electronic and thermal Enthalpies=            -747.467026
 Sum of electronic and thermal Free Energies=         -747.527396

                     E (Thermal)             CV                S
                      KCal/Mol        Cal/Mol-Kelvin    Cal/Mol-Kelvin
 Total                  174.544             59.687            127.060
 Electronic               0.000              0.000              0.000
 Translational            0.889              2.981             42.189
 Rotational               0.889              2.981             32.804
 Vibrational            172.767             53.726             52.066
 Vibration     1          0.593              1.986              7.289
 Vibration     2          0.594              1.982              5.342
 Vibration     3          0.595              1.979              4.959
 Vibration     4          0.599              1.966              4.035
 Vibration     5          0.617              1.906              2.712
 Vibration     6          0.629              1.868              2.339
 Vibration     7          0.638              1.839              2.130
 Vibration     8          0.642              1.827              2.051
 Vibration     9          0.645              1.816              1.989
 Vibration    10          0.665              1.756              1.703
 Vibration    11          0.674              1.729              1.597
 Vibration    12          0.676              1.724              1.579
 Vibration    13          0.700              1.651              1.351
 Vibration    14          0.706              1.634              1.306
 Vibration    15          0.730              1.566              1.147
 Vibration    16          0.748              1.519              1.050
 Vibration    17          0.792              1.403              0.856
 Vibration    18          0.805              1.371              0.809
 Vibration    19          0.819              1.336              0.762
 Vibration    20          0.836              1.295              0.711
 Vibration    21          0.885              1.183              0.587
 Vibration    22          0.904              1.143              0.547
 Vibration    23          0.930              1.088              0.497
 Vibration    24          0.943              1.062              0.475

 Optimization completed.
    -- Stationary point found.
 Normal termination of Gaussian 09 at Wed Sep 29 07:44:21 2021.
 Gaussian 09:  AM64L-G09RevA.02 11-Jun-2009

 ----------------------------------------------------------------------
 #p TD(NStates=10, Root=1) b3lyp/6-31G* volume pop=NPA density=current
 Geom=AllCheck Guess=Read
 ----------------------------------------------------------------------

 O=C(C(C)(C)C)Oc1cccc2c1nccc2_conf_0
 -----------------------------------
 Redundant internal coordinates taken from checkpoint file:
 C14H15NO2_9c99_conf_0.chk
 Charge =  0 Multiplicity = 1

                         Standard orientation:
 ---------------------------------------------------------------------
 Center     Atomic      Atomic             Coordinates (Angstroms)
 Number     Number       Type             X           Y           Z
 ---------------------------------------------------------------------
      1          8           0        1.845160    1.372775   -1.143178
      2          6           0        1.894632    0.516655   -0.294447
      3          6           0        3.100242   -0.366198    0.035562
      4          6           0        3.373553   -0.341868    1.554835
      5          6           0        2.760084   -1.808281   -0.412596
      6          6           0        4.321614    0.158629   -0.734963
      7          8           0        0.827608    0.178882    0.505432
      8          6           0       -0.424764    0.725799    0.287284
      9          6           0       -0.649388    2.083637    0.295203
     10          6           0       -1.963360    2.584058    0.139619
     11          6           0       -3.030059    1.728797   -0.014943
     12          6           0       -2.821998    0.325438   -0.026098
     13          6           0       -1.497827   -0.200727    0.120707
     14          7           0       -1.227272   -1.536297    0.105711
     15          6           0       -2.240759   -2.364462   -0.047034
     16          6           0       -3.590050   -1.956522   -0.193749
     17          6           0       -3.874834   -0.612230   -0.183417
     18          1           0        2.523788   -0.732333    2.120379
     19          1           0        3.583411    0.675297    1.906396
     20          1           0        4.250625   -0.960393    1.777672
     21          1           0        1.849317   -2.169367    0.073094
     22          1           0        3.589595   -2.477800   -0.156490
     23          1           0        2.610728   -1.855556   -1.497408
     24          1           0        4.575112    1.179792   -0.431461
     25          1           0        4.135153    0.170367   -1.812525
     26          1           0        5.187380   -0.483645   -0.538087
     27          1           0        0.184462    2.764381    0.415946
     28          1           0       -2.120535    3.658756    0.145925
     29          1           0       -4.039885    2.114058   -0.131264
     30          1           0       -1.996419   -3.426428   -0.057902
     31          1           0       -4.371661   -2.700844   -0.312643
     32          1           0       -4.894814   -0.251807   -0.295424
 ---------------------------------------------------------------------

 SCF Done:  E(RB3LYP) =  -747.746124211     A.U. after    2 cycles

 Excitation energies and oscillator strengths:

 Excited State   1:      Singlet-A      4.2238 eV  293.54 nm  f=0.0849  <S**2>=0.000
      60 -> 63         0.11403
      61 -> 62         0.68791
 This state for optimization and/or second-order correction.
 Total Energy, E(TD-HF/TD-KS) =  -747.590902800
 Copying the excited state density for this state as the 1-particle RhoCI density.

 Excited State   2:      Singlet-A      4.3038 eV  288.08 nm  f=0.0017  <S**2>=0.000
      59 -> 62         0.70068

 Excited State   3:      Singlet-A      4.5067 eV  275.11 nm  f=0.0085  <S**2>=0.000
      60 -> 62         0.53437
      61 -> 63        -0.45455

 Excited State   4:      Singlet-A      5.0419 eV  245.91 nm  f=0.0126  <S**2>=0.000
      58 -> 62         0.64897
      58 -> 64         0.14796
      60 -> 62         0.17378
      61 -> 63         0.13177

 Excited State   5:      Singlet-A      5.2555 eV  235.91 nm  f=0.0000  <S**2>=0.000
      59 -> 63         0.70299

 Excited State   6:      Singlet-A      5.5971 eV  221.51 nm  f=0.0502  <S**2>=0.000
      57 -> 62         0.11446
      58 -> 64         0.21709
      61 -> 64         0.62019

 Excited State   7:      Singlet-A      5.7426 eV  215.90 nm  f=0.0467  <S**2>=0.000
      57 -> 62        -0.10476
      58 -> 64         0.49061
      58 -> 65         0.21379
      60 -> 62        -0.11369
      60 -> 64         0.30848
      61 -> 63        -0.10700
      61 -> 64        -0.23394

 Excited State   8:      Singlet-A      5.8142 eV  213.24 nm  f=0.4676  <S**2>=0.000
      57 -> 62        -0.32752
      57 -> 63        -0.16423
      58 -> 62        -0.16450
      60 -> 62         0.31560
      60 -> 63        -0.16195
      60 -> 65         0.11625
      61 -> 63         0.39921
      61 -> 65         0.11723

 Excited State   9:      Singlet-A      5.9101 eV  209.79 nm  f=0.1687  <S**2>=0.000
      56 -> 62         0.10285
      57 -> 62         0.42481
      58 -> 62        -0.13786
      60 -> 62         0.18663
      60 -> 63         0.30570
      61 -> 63         0.23684
      61 -> 64        -0.19023
      61 -> 65        -0.18971

 Excited State  10:      Singlet-A      6.0380 eV  205.34 nm  f=0.0442  <S**2>=0.000
      56 -> 62        -0.23041
      57 -> 62        -0.23440
      58 -> 63         0.47471
      60 -> 63         0.34539
      61 -> 65        -0.13583

 The electronic state is 1-A.
 Alpha  occ. eigenvalues --  -19.19518 -19.13744 -14.33290 -10.31326 -10.25437
 Alpha  occ. eigenvalues --  -10.23118 -10.22901 -10.21347 -10.21051 -10.20880
 Alpha  occ. eigenvalues --  -10.20360 -10.20184 -10.19942 -10.19879 -10.17655
 Alpha  occ. eigenvalues --  -10.17350 -10.17048  -1.10462  -1.02195  -0.94543
 Alpha  occ. eigenvalues --   -0.85428  -0.82177  -0.80718  -0.75787  -0.74791
 Alpha  occ. eigenvalues --   -0.68529  -0.68319  -0.66474  -0.64343  -0.63875
 Alpha  occ. eigenvalues --   -0.58938  -0.55644  -0.53707  -0.51474  -0.49887
 Alpha  occ. eigenvalues --   -0.48253  -0.47148  -0.46725  -0.45406  -0.43890
 Alpha  occ. eigenvalues --   -0.43029  -0.42646  -0.41977  -0.41086  -0.40673
 Alpha  occ. eigenvalues --   -0.40004  -0.38594  -0.38181  -0.37582  -0.36285
 Alpha  occ. eigenvalues --   -0.36186  -0.35227  -0.34295  -0.33074  -0.32894
 Alpha  occ. eigenvalues --   -0.31585  -0.29778  -0.26848  -0.25726  -0.25397
 Alpha  occ. eigenvalues --   -0.22821
 Alpha virt. eigenvalues --   -0.05558  -0.01915   0.00603   0.02659   0.08865
 Alpha virt. eigenvalues --    0.08920   0.09167   0.10434   0.13275   0.13582
 Alpha virt. eigenvalues --    0.15591   0.15734   0.16051   0.16243   0.16831

 Mulliken atomic charges:
              1
     1  O   -0.453956
     2  C    0.634509
     3  C   -0.013689
     4  C   -0.455606
     5  C   -0.462432
     6  C   -0.435869
     7  O   -0.483730
     8  C    0.354986
     9  C   -0.138704
    10  C   -0.141681
    11  C   -0.155063
    12  C    0.159207
    13  C    0.216486
    14  N   -0.553571
    15  C    0.024172
    16  C   -0.144521
    17  C   -0.213850
    18  H    0.174006
    19  H    0.145885
    20  H    0.152354
    21  H    0.196582
    22  H    0.147176
    23  H    0.154849
    24  H    0.149688
    25  H    0.162392
    26  H    0.142135
    27  H    0.168225
    28  H    0.153569
    29  H    0.160583
    30  H    0.121000
    31  H    0.121629
    32  H    0.113242
 Sum of Mulliken atomic charges =  -0.00000

 Dipole moment (field-independent basis, Debye):
    X=              0.2572    Y=              2.1625    Z=              1.1457  Tot=              2.4607
 Quadrupole moment (field-independent basis, Debye-Ang):
   XX=            -86.9798   YY=            -93.1899   ZZ=           -103.3639
   XY=             -8.6955   XZ=              3.4947   YZ=              3.8100

 Summary of Natural Population Analysis:

                                       Natural Population
                Natural  -----------------------------------------------
    Atom  No    Charge         Core      Valence    Rydberg      Total
 -----------------------------------------------------------------------
      O    1   -0.56416      1.99977     6.54433    0.02006     8.56416
      C    2    0.84502      1.99926     3.10685    0.04887     5.15498
      C    3   -0.15197      1.99905     4.14065    0.01227     6.15197
      C    4   -0.67266      1.99938     4.66343    0.00985     6.67266
      C    5   -0.67369      1.99938     4.66443    0.00988     6.67369
      C    6   -0.67025      1.99939     4.65989    0.01096     6.67025
      O    7   -0.49300      1.99968     6.48133    0.01199     8.49300
      C    8    0.39768      1.99867     3.57956    0.02408     5.60232
      C    9   -0.24093      1.99903     4.22719    0.01471     6.24093
      C   10   -0.23273      1.99913     4.21848    0.01512     6.23273
      C   11   -0.09923      1.99904     4.08617    0.01401     6.09923
      C   12   -0.09589      1.99902     4.08182    0.01506     6.09589
      C   13    0.15289      1.99897     3.82644    0.02171     5.84711
      N   14   -0.53536      1.99940     5.51201    0.02395     7.53536
      C   15    0.00459      1.99925     3.97085    0.02531     5.99541
      C   16   -0.26508      1.99909     4.25116    0.01483     6.26508
      C   17   -0.29825      1.99906     4.28153    0.01766     6.29825
      H   18    0.24951      0.00000     0.74951    0.00097     0.75049
      H   19    0.23294      0.00000     0.76611    0.00094     0.76706
      H   20    0.23833      0.00000     0.76065    0.00102     0.76167
      H   21    0.26161      0.00000     0.73676    0.00162     0.73839
      H   22    0.23409      0.00000     0.76490    0.00101     0.76591
      H   23    0.23812      0.00000     0.76098    0.00090     0.76188
      H   24    0.23812      0.00000     0.76088    0.00100     0.76188
      H   25    0.24632      0.00000     0.75262    0.00106     0.75368
      H   26    0.23338      0.00000     0.76574    0.00087     0.76662
      H   27    0.26064      0.00000     0.73836    0.00101     0.73936
      H   28    0.24696      0.00000     0.75227    0.00077     0.75304
      H   29    0.24119      0.00000     0.75760    0.00121     0.75881
      H   30    0.21266      0.00000     0.78624    0.00110     0.78734
      H   31    0.23393      0.00000     0.76512    0.00095     0.76607
      H   32    0.22523      0.00000     0.77374    0.00103     0.77477
 =======================================================================
   * Total *    0.00000     33.98656    87.68763    0.32581   122.00000

 Normal termination of Gaussian 09 at Wed Sep 29 13:44:33 2021.
