 Gaussian 09, Revision A.02,

 -----------------------------------
 #p opt b3lyp/6-31G* scf=(xqc,tight)
 -----------------------------------

 -------------------------------
 Cc1ccc(cc1)n1cnc2c1cccc2_conf_0
 -------------------------------
 Symbolic Z-matrix:
 Charge =  0 Multiplicity = 1

 SCF Done:  E(RB3LYP) =  -650.229726415     A.U. after   15 cycles
 SCF Done:  E(RB3LYP) =  -650.233600358     A.U. after   13 cycles
 SCF Done:  E(RB3LYP) =  -650.234386334     A.U. after   12 cycles
 SCF Done:  E(RB3LYP) =  -650.234555498     A.U. after   12 cycles
 SCF Done:  E(RB3LYP) =  -650.234622262     A.U. after   11 cycles
 SCF Done:  E(RB3LYP) =  -650.234654531     A.U. after   11 cycles
 SCF Done:  E(RB3LYP) =  -650.234675060     A.U. after   11 cycles
 SCF Done:  E(RB3LYP) =  -650.234686683     A.U. after   11 cycles
 SCF Done:  E(RB3LYP) =  -650.234692883     A.U. after   10 cycles
 SCF Done:  E(RB3LYP) =  -650.234694721     A.U. after    8 cycles
 SCF Done:  E(RB3LYP) =  -650.234695398     A.U. after    9 cycles
 SCF Done:  E(RB3LYP) =  -650.234695602     A.U. after    8 cycles
 SCF Done:  E(RB3LYP) =  -650.234695658     A.U. after    7 cycles
 SCF Done:  E(RB3LYP) =  -650.234695674     A.U. after    7 cycles
 Optimization completed.
    -- Stationary point found.
 Normal termination of Gaussian 09 at Mon Oct  4 00:06:29 2021.

 ----------------------------------------------------------------------
 #p freq b3lyp/6-31G* volume NMR pop=NPA density=current Geom=AllCheck
 Guess=Read
 ----------------------------------------------------------------------

 Cc1ccc(cc1)n1cnc2c1cccc2_conf_0
 -------------------------------
 Redundant internal coordinates taken from checkpoint file:
 C14H12N2_a1ff_conf_0.chk
 Charge =  0 Multiplicity = 1

 SCF Done:  E(RB3LYP) =  -650.234695674     A.U. after    1 cycles

  1  C    Isotropic =   170.1058   Anisotropy =    24.8039

  2  C    Isotropic =    59.3847   Anisotropy =   170.8117

  3  C    Isotropic =    64.4050   Anisotropy =   147.3715

  4  C    Isotropic =    68.0049   Anisotropy =   166.7116

  5  C    Isotropic =    69.1541   Anisotropy =   162.8115

  6  C    Isotropic =    67.3992   Anisotropy =   153.5092

  7  C    Isotropic =    59.3040   Anisotropy =   121.1380

  8  N    Isotropic =    92.6459   Anisotropy =    89.5700

  9  C    Isotropic =    54.8617   Anisotropy =    84.8457

 10  N    Isotropic =     6.2012   Anisotropy =   356.6293

 11  C    Isotropic =    52.8490   Anisotropy =   135.7494

 12  C    Isotropic =    61.5387   Anisotropy =   134.5547

 13  C    Isotropic =    86.6983   Anisotropy =   143.7821

 14  C    Isotropic =    72.7067   Anisotropy =   158.6932

 15  C    Isotropic =    73.9277   Anisotropy =   157.1883

 16  C    Isotropic =    74.2772   Anisotropy =   149.6881

 17  H    Isotropic =    30.2508   Anisotropy =     5.4686

 18  H    Isotropic =    29.7663   Anisotropy =     8.2338

 19  H    Isotropic =    30.3334   Anisotropy =     9.0615

 20  H    Isotropic =    24.8808   Anisotropy =     6.5302

 21  H    Isotropic =    24.8768   Anisotropy =     3.8283

 22  H    Isotropic =    24.9268   Anisotropy =     4.3812

 23  H    Isotropic =    24.9774   Anisotropy =     9.6573

 24  H    Isotropic =    24.8127   Anisotropy =     6.5503

 25  H    Isotropic =    25.2802   Anisotropy =     9.6326

 26  H    Isotropic =    25.0626   Anisotropy =     5.5778

 27  H    Isotropic =    24.9801   Anisotropy =     4.3990

 28  H    Isotropic =    24.5642   Anisotropy =     4.8916

  Exact polarizability: 213.819  -1.961 145.370  -0.100  -2.284  94.105
 Approx polarizability: 317.792  -7.532 254.764   4.687 -10.785 156.100

                     1                      2                      3
                     A                      A                      A
 Frequencies --    20.7556                63.2773                77.2733
 Red. masses --     4.1736                 4.5166                 4.6046
 Frc consts  --     0.0011                 0.0107                 0.0162
 IR Inten    --     0.1970                 0.1091                 0.1458

                     4                      5                      6
                     A                      A                      A
 Frequencies --   116.2889               174.2062               205.1977
 Red. masses --     1.0435                 3.2397                 4.2936
 Frc consts  --     0.0083                 0.0579                 0.1065
 IR Inten    --     0.2791                 0.5427                 1.6285

                     7                      8                      9
                     A                      A                      A
 Frequencies --   231.6802               262.8365               304.4418
 Red. masses --     4.3202                 4.2333                 4.3944
 Frc consts  --     0.1366                 0.1723                 0.2400
 IR Inten    --     0.9743                 0.5995                 2.2537

                    10                     11                     12
                     A                      A                      A
 Frequencies --   359.8865               427.6107               435.9523
 Red. masses --     4.6585                 3.8557                 3.0401
 Frc consts  --     0.3555                 0.4154                 0.3404
 IR Inten    --     0.2604                 1.6811                 4.3469

                    13                     14                     15
                     A                      A                      A
 Frequencies --   463.0442               488.3848               543.2304
 Red. masses --     3.2381                 3.9425                 5.3727
 Frc consts  --     0.4091                 0.5540                 0.9341
 IR Inten    --     1.9814                 5.4153                 1.8599

                    16                     17                     18
                     A                      A                      A
 Frequencies --   555.2312               594.7324               598.5290
 Red. masses --     5.2007                 4.5088                 4.6449
 Frc consts  --     0.9446                 0.9396                 0.9804
 IR Inten    --     1.8548                 3.4394                 1.2373

                    19                     20                     21
                     A                      A                      A
 Frequencies --   633.8355               647.2807               703.1114
 Red. masses --     6.7952                 4.0310                 6.0330
 Frc consts  --     1.6085                 0.9951                 1.7572
 IR Inten    --     2.2682                 3.1496                 4.5543

                    22                     23                     24
                     A                      A                      A
 Frequencies --   737.0320               758.9380               776.2325
 Red. masses --     2.7101                 1.4294                 1.9778
 Frc consts  --     0.8674                 0.4851                 0.7021
 IR Inten    --    12.5948                47.6196                23.2279

                    25                     26                     27
                     A                      A                      A
 Frequencies --   777.7876               804.7623               811.1784
 Red. masses --     2.2935                 4.0309                 4.7120
 Frc consts  --     0.8175                 1.5381                 1.8268
 IR Inten    --     6.5449                16.7656                 4.5836

                    28                     29                     30
                     A                      A                      A
 Frequencies --   856.6314               871.7955               885.2461
 Red. masses --     1.3434                 1.4957                 1.3611
 Frc consts  --     0.5808                 0.6698                 0.6285
 IR Inten    --     1.7466                 4.0510                 0.1546

                    31                     32                     33
                     A                      A                      A
 Frequencies --   897.6635               934.1405               953.6152
 Red. masses --     5.3279                 1.3455                 1.3604
 Frc consts  --     2.5295                 0.6918                 0.7289
 IR Inten    --     6.9104                 1.8004                 1.6350

                    34                     35                     36
                     A                      A                      A
 Frequencies --   974.3558               989.6500               990.7849
 Red. masses --     1.2355                 1.2844                 5.2183
 Frc consts  --     0.6911                 0.7412                 3.0182
 IR Inten    --     0.0990                 0.0476                13.1362

                    37                     38                     39
                     A                      A                      A
 Frequencies --  1018.5277              1036.6706              1075.7328
 Red. masses --     1.6227                 2.0853                 1.5255
 Frc consts  --     0.9918                 1.3204                 1.0401
 IR Inten    --     0.9377                 7.9882                 4.5162

                    40                     41                     42
                     A                      A                      A
 Frequencies --  1076.7783              1128.5182              1150.5141
 Red. masses --     2.1344                 2.1623                 1.5766
 Frc consts  --     1.4581                 1.6225                 1.2296
 IR Inten    --     2.1921                 1.4718                 3.0676

                    43                     44                     45
                     A                      A                      A
 Frequencies --  1172.0836              1186.5809              1195.8818
 Red. masses --     1.5804                 1.3835                 1.1014
 Frc consts  --     1.2792                 1.1477                 0.9280
 IR Inten    --    15.4659                 2.5144                 0.5795

                    46                     47                     48
                     A                      A                      A
 Frequencies --  1227.0092              1232.3765              1265.5386
 Red. masses --     2.3925                 3.0240                 2.1193
 Frc consts  --     2.1223                 2.7060                 1.9998
 IR Inten    --    16.7187                16.8613                49.3779

                    49                     50                     51
                     A                      A                      A
 Frequencies --  1314.6305              1322.1508              1336.3092
 Red. masses --     1.5997                 2.6841                 1.8771
 Frc consts  --     1.6289                 2.7644                 1.9749
 IR Inten    --     3.2565                50.5985                10.2261

                    52                     53                     54
                     A                      A                      A
 Frequencies --  1346.0238              1394.0804              1412.7256
 Red. masses --     6.0252                 6.1278                 3.4369
 Frc consts  --     6.4317                 7.0167                 4.0414
 IR Inten    --     4.5683                 3.9384                18.8901

                    55                     56                     57
                     A                      A                      A
 Frequencies --  1447.9456              1488.7091              1500.3895
 Red. masses --     1.2399                 2.1385                 2.3739
 Frc consts  --     1.5315                 2.7924                 3.1487
 IR Inten    --     1.0347                11.9064                59.1988

                    58                     59                     60
                     A                      A                      A
 Frequencies --  1513.9436              1522.7989              1527.9696
 Red. masses --     1.0641                 1.4492                 2.2625
 Frc consts  --     1.4370                 1.9800                 3.1123
 IR Inten    --     9.1690                 9.7118                 2.7238

                    61                     62                     63
                     A                      A                      A
 Frequencies --  1544.5256              1549.1338              1633.6799
 Red. masses --     3.3374                 3.2157                 6.1486
 Frc consts  --     4.6908                 4.5468                 9.6685
 IR Inten    --     3.1750               171.1556                 0.3313

                    64                     65                     66
                     A                      A                      A
 Frequencies --  1638.4001              1660.1971              1671.5146
 Red. masses --     6.0688                 5.9702                 6.7064
 Frc consts  --     9.5982                 9.6952                11.0398
 IR Inten    --     5.9427                13.3490                11.6403

                    67                     68                     69
                     A                      A                      A
 Frequencies --  3052.3073              3109.4894              3137.0382
 Red. masses --     1.0400                 1.0963                 1.1030
 Frc consts  --     5.7088                 6.2455                 6.3954
 IR Inten    --    17.0413                11.9629                17.0644

                    70                     71                     72
                     A                      A                      A
 Frequencies --  3183.6569              3186.1385              3195.7107
 Red. masses --     1.0868                 1.0857                 1.0889
 Frc consts  --     6.4903                 6.4936                 6.5521
 IR Inten    --     6.1106                 1.7707                 8.2788

                    73                     74                     75
                     A                      A                      A
 Frequencies --  3199.2152              3206.7614              3211.2271
 Red. masses --     1.0895                 1.0930                 1.0940
 Frc consts  --     6.5701                 6.6220                 6.6470
 IR Inten    --    18.5970                25.9202                16.1785

                    76                     77                     78
                     A                      A                      A
 Frequencies --  3217.1298              3217.5439              3258.4683
 Red. masses --     1.0968                 1.0960                 1.0959
 Frc consts  --     6.6882                 6.6853                 6.8556
 IR Inten    --    18.9090                10.8043                 1.2008

 - Thermochemistry -
 -------------------
 Temperature   298.150 Kelvin.  Pressure   1.00000 Atm.
 Atom     1 has atomic number  6 and mass  12.00000

 Molecular mass:   208.10005 amu.
 Principal axes and moments of inertia in atomic units:
                           1         2         3
     Eigenvalues --  1548.293124999.725665666.40280
           X            0.99995   0.00970   0.00128
           Y           -0.00975   0.99920   0.03886
           Z           -0.00091  -0.03887   0.99924
 This molecule is an asymmetric top.
 Rotational symmetry number  1.
 Warning -- assumption of classical behavior for rotation
           may cause significant error
 Rotational temperatures (Kelvin)      0.05594     0.01732     0.01529
 Rotational constants (GHZ):           1.16563     0.36097     0.31850
 Zero-point vibrational energy     596294.3 (Joules/Mol)
                                  142.51776 (Kcal/Mol)
 Warning -- explicit consideration of  18 degrees of freedom as
           vibrations may cause significant error
 Vibrational temperatures:     29.86    91.04   111.18   167.31   250.64
          (Kelvin)            295.23   333.34   378.16   438.02   517.80
                              615.24   627.24   666.22   702.68   781.59
                              798.85   855.69   861.15   911.95   931.29
                             1011.62  1060.42  1091.94  1116.82  1119.06
                             1157.87  1167.10  1232.50  1254.32  1273.67
                             1291.54  1344.02  1372.04  1401.88  1423.88
                             1425.52  1465.43  1491.54  1547.74  1549.24
                             1623.68  1655.33  1686.36  1707.22  1720.61
                             1765.39  1773.11  1820.83  1891.46  1902.28
                             1922.65  1936.63  2005.77  2032.59  2083.27
                             2141.92  2158.72  2178.22  2190.97  2198.40
                             2222.23  2228.86  2350.50  2357.29  2388.65
                             2404.93  4391.58  4473.86  4513.49  4580.57
                             4584.14  4597.91  4602.95  4613.81  4620.23
                             4628.73  4629.32  4688.20

 Zero-point correction=                           0.227117 (Hartree/Particle)
 Thermal correction to Energy=                    0.239496
 Thermal correction to Enthalpy=                  0.240440
 Thermal correction to Gibbs Free Energy=         0.187123
 Sum of electronic and zero-point Energies=           -650.007579
 Sum of electronic and thermal Energies=              -649.995200
 Sum of electronic and thermal Enthalpies=            -649.994255
 Sum of electronic and thermal Free Energies=         -650.047572

                     E (Thermal)             CV                S
                      KCal/Mol        Cal/Mol-Kelvin    Cal/Mol-Kelvin
 Total                  150.286             49.574            112.215
 Electronic               0.000              0.000              0.000
 Translational            0.889              2.981             41.903
 Rotational               0.889              2.981             32.151
 Vibrational            148.509             43.613             38.162
 Vibration     1          0.593              1.986              6.561
 Vibration     2          0.597              1.972              4.352
 Vibration     3          0.599              1.964              3.959
 Vibration     4          0.608              1.936              3.161
 Vibration     5          0.627              1.874              2.390
 Vibration     6          0.640              1.832              2.086
 Vibration     7          0.653              1.793              1.866
 Vibration     8          0.670              1.741              1.643
 Vibration     9          0.695              1.665              1.392
 Vibration    10          0.734              1.555              1.123
 Vibration    11          0.789              1.410              0.866
 Vibration    12          0.796              1.392              0.839
 Vibration    13          0.821              1.332              0.757
 Vibration    14          0.844              1.276              0.688
 Vibration    15          0.898              1.155              0.558
 Vibration    16          0.911              1.128              0.533
 Vibration    17          0.952              1.043              0.459
 Vibration    18          0.957              1.035              0.452

 Optimization completed.
    -- Stationary point found.
 Normal termination of Gaussian 09 at Mon Oct  4 02:04:20 2021.
 Gaussian 09:  AM64L-G09RevA.02 11-Jun-2009

 ----------------------------------------------------------------------
 #p TD(NStates=10, Root=1) b3lyp/6-31G* volume pop=NPA density=current
 Geom=AllCheck Guess=Read
 ----------------------------------------------------------------------

 Cc1ccc(cc1)n1cnc2c1cccc2_conf_0
 -------------------------------
 Redundant internal coordinates taken from checkpoint file:
 C14H12N2_a1ff_conf_0.chk
 Charge =  0 Multiplicity = 1

                         Standard orientation:
 ---------------------------------------------------------------------
 Center     Atomic      Atomic             Coordinates (Angstroms)
 Number     Number       Type             X           Y           Z
 ---------------------------------------------------------------------
      1          6           0        1.746605    1.849689    1.437202
      2          6           0        2.160868    0.665093    0.596395
      3          6           0        3.467360    0.163326    0.664174
      4          6           0        3.866375   -0.946512   -0.079912
      5          6           0        2.954577   -1.587027   -0.919446
      6          6           0        1.652435   -1.101023   -1.015391
      7          6           0        1.260789    0.015162   -0.268900
      8          7           0       -0.084819    0.481155   -0.392232
      9          6           0       -0.504377    1.671585   -0.959831
     10          7           0       -1.800362    1.833738   -0.976362
     11          6           0       -2.303543    0.681220   -0.384188
     12          6           0       -1.248080   -0.186080   -0.013953
     13          6           0       -1.468814   -1.415478    0.610838
     14          6           0       -2.794996   -1.763344    0.854006
     15          6           0       -3.859841   -0.914014    0.489347
     16          6           0       -3.629968    0.310551   -0.128772
     17          1           0        0.758531    1.698782    1.883884
     18          1           0        1.693637    2.773982    0.848551
     19          1           0        2.466451    2.017313    2.243818
     20          1           0        4.179451    0.649640    1.326405
     21          1           0        4.885955   -1.313034    0.001399
     22          1           0        3.254273   -2.453731   -1.501482
     23          1           0        0.928605   -1.573681   -1.672565
     24          1           0        0.218955    2.372362   -1.357925
     25          1           0       -0.648358   -2.068160    0.893058
     26          1           0       -3.013656   -2.711739    1.337134
     27          1           0       -4.879428   -1.226063    0.698128
     28          1           0       -4.444486    0.971182   -0.409655
 ---------------------------------------------------------------------

 SCF Done:  E(RB3LYP) =  -650.234695674     A.U. after    1 cycles

 Excitation energies and oscillator strengths:

 Excited State   1:      Singlet-A      4.6797 eV  264.94 nm  f=0.0639  <S**2>=0.000
      54 -> 56        -0.11736
      55 -> 56         0.68136
 This state for optimization and/or second-order correction.
 Total Energy, E(TD-HF/TD-KS) =  -650.062721226
 Copying the excited state density for this state as the 1-particle RhoCI density.

 Excited State   2:      Singlet-A      4.8425 eV  256.03 nm  f=0.0037  <S**2>=0.000
      54 -> 56         0.67837
      54 -> 58         0.13412
      55 -> 56         0.10951

 Excited State   3:      Singlet-A      4.8993 eV  253.07 nm  f=0.0022  <S**2>=0.000
      52 -> 56         0.11634
      53 -> 56        -0.10457
      54 -> 57        -0.15781
      54 -> 58        -0.12711
      55 -> 57         0.64941

 Excited State   4:      Singlet-A      5.0594 eV  245.06 nm  f=0.0218  <S**2>=0.000
      54 -> 57        -0.37616
      54 -> 58         0.38791
      54 -> 59        -0.11436
      55 -> 58        -0.35194
      55 -> 59        -0.21037

 Excited State   5:      Singlet-A      5.0987 eV  243.17 nm  f=0.0139  <S**2>=0.000
      54 -> 57         0.56190
      54 -> 58         0.22879
      55 -> 57         0.20417
      55 -> 58        -0.20280
      55 -> 59        -0.17722

 Excited State   6:      Singlet-A      5.2794 eV  234.84 nm  f=0.1143  <S**2>=0.000
      54 -> 58         0.35358
      54 -> 59         0.14941
      55 -> 58         0.51620
      55 -> 59        -0.20465

 Excited State   7:      Singlet-A      5.4305 eV  228.31 nm  f=0.0203  <S**2>=0.000
      51 -> 57        -0.16402
      52 -> 56        -0.34109
      52 -> 57         0.22039
      53 -> 56         0.34445
      53 -> 57         0.36071
      54 -> 57        -0.11424
      55 -> 57         0.15375

 Excited State   8:      Singlet-A      5.6048 eV  221.21 nm  f=0.0045  <S**2>=0.000
      51 -> 56        -0.20172
      51 -> 58         0.23883
      52 -> 56        -0.27672
      52 -> 58         0.22751
      53 -> 56        -0.31827
      53 -> 57         0.12936
      53 -> 58         0.36978

 Excited State   9:      Singlet-A      5.9313 eV  209.03 nm  f=0.0857  <S**2>=0.000
      51 -> 58         0.16200
      52 -> 56         0.28051
      52 -> 57         0.17443
      52 -> 58         0.20509
      53 -> 56         0.37606
      53 -> 57        -0.15858
      53 -> 58         0.37019

 Excited State  10:      Singlet-A      6.0725 eV  204.17 nm  f=0.0074  <S**2>=0.000
      51 -> 56         0.32665
      51 -> 58        -0.17473
      52 -> 56         0.14498
      52 -> 58        -0.33053
      53 -> 56        -0.15611
      53 -> 57         0.20992
      53 -> 58         0.37476
      54 -> 59         0.10748

 The electronic state is 1-A.
 Alpha  occ. eigenvalues --  -14.39207 -14.31290 -10.24779 -10.24218 -10.21923
 Alpha  occ. eigenvalues --  -10.21552 -10.20557 -10.20364 -10.20291 -10.20248
 Alpha  occ. eigenvalues --  -10.20194 -10.19410 -10.19008 -10.18504 -10.18226
 Alpha  occ. eigenvalues --  -10.18070  -1.01736  -0.90323  -0.85573  -0.83663
 Alpha  occ. eigenvalues --   -0.78526  -0.75990  -0.73400  -0.73000  -0.69918
 Alpha  occ. eigenvalues --   -0.63858  -0.62502  -0.61082  -0.59300  -0.57124
 Alpha  occ. eigenvalues --   -0.53804  -0.50001  -0.49367  -0.48572  -0.47672
 Alpha  occ. eigenvalues --   -0.45239  -0.43633  -0.43400  -0.42640  -0.42505
 Alpha  occ. eigenvalues --   -0.42112  -0.40873  -0.40034  -0.36959  -0.36660
 Alpha  occ. eigenvalues --   -0.36188  -0.35935  -0.34788  -0.33277  -0.30007
 Alpha  occ. eigenvalues --   -0.27437  -0.26072  -0.25408  -0.22344  -0.21884
 Alpha virt. eigenvalues --   -0.02208  -0.01418  -0.00994   0.02624   0.05765
 Alpha virt. eigenvalues --    0.08604   0.10212   0.10775   0.12052   0.13297
 Alpha virt. eigenvalues --    0.14726   0.15037   0.16169   0.16204   0.17231

 Mulliken atomic charges:
              1
     1  C   -0.535547
     2  C    0.186453
     3  C   -0.218958
     4  C   -0.181228
     5  C   -0.148999
     6  C   -0.176607
     7  C    0.063216
     8  N   -0.525808
     9  C    0.231394
    10  N   -0.464845
    11  C    0.219455
    12  C    0.327100
    13  C   -0.098779
    14  C   -0.147531
    15  C   -0.119964
    16  C   -0.132630
    17  H    0.127198
    18  H    0.133603
    19  H    0.155196
    20  H    0.089964
    21  H    0.081383
    22  H    0.095036
    23  H    0.084866
    24  H    0.199866
    25  H    0.223342
    26  H    0.170735
    27  H    0.171814
    28  H    0.190276
 Sum of Mulliken atomic charges =  -0.00000

 Dipole moment (field-independent basis, Debye):
    X=             -8.4783    Y=             -1.2257    Z=              1.2850  Tot=              8.6623
 Quadrupole moment (field-independent basis, Debye-Ang):
   XX=            -88.0909   YY=            -89.6875   ZZ=            -93.9610
   XY=             10.3643   XZ=             -2.4293   YZ=             -1.7578

 Summary of Natural Population Analysis:

                                       Natural Population
                Natural  -----------------------------------------------
    Atom  No    Charge         Core      Valence    Rydberg      Total
 -----------------------------------------------------------------------
      C    1   -0.68273      1.99940     4.67606    0.00728     6.68273
      C    2   -0.06519      1.99898     4.05172    0.01448     6.06519
      C    3   -0.24449      1.99905     4.23101    0.01444     6.24449
      C    4   -0.36237      1.99910     4.34456    0.01871     6.36237
      C    5   -0.24178      1.99910     4.22755    0.01514     6.24178
      C    6   -0.29384      1.99904     4.27960    0.01520     6.29384
      C    7   -0.07658      1.99884     4.05585    0.02190     6.07658
      N    8   -0.25500      1.99930     5.24142    0.01428     7.25500
      C    9    0.23567      1.99936     3.73709    0.02788     5.76433
      N   10   -0.41905      1.99947     5.39791    0.02167     7.41905
      C   11    0.08003      1.99898     3.89908    0.02191     5.91997
      C   12    0.11765      1.99895     3.86616    0.01723     5.88235
      C   13   -0.09377      1.99901     4.08190    0.01285     6.09377
      C   14   -0.24226      1.99916     4.22873    0.01437     6.24226
      C   15   -0.20155      1.99915     4.18849    0.01391     6.20155
      C   16   -0.09847      1.99902     4.08563    0.01382     6.09847
      H   17    0.21743      0.00000     0.78088    0.00169     0.78257
      H   18    0.21831      0.00000     0.77888    0.00281     0.78169
      H   19    0.24079      0.00000     0.75830    0.00091     0.75921
      H   20    0.21756      0.00000     0.78146    0.00097     0.78244
      H   21    0.21568      0.00000     0.78365    0.00068     0.78432
      H   22    0.22118      0.00000     0.77803    0.00078     0.77882
      H   23    0.21362      0.00000     0.78564    0.00073     0.78638
      H   24    0.24956      0.00000     0.74968    0.00076     0.75044
      H   25    0.27819      0.00000     0.72127    0.00055     0.72181
      H   26    0.25637      0.00000     0.74309    0.00054     0.74363
      H   27    0.25437      0.00000     0.74509    0.00054     0.74563
      H   28    0.26067      0.00000     0.73823    0.00110     0.73933
 =======================================================================
   * Total *    0.00000     31.98590    77.73696    0.27714   110.00000

 Normal termination of Gaussian 09 at Mon Oct  4 09:11:16 2021.
