 Gaussian 09, Revision A.02,

 -----------------------------------
 #p opt b3lyp/6-31G* scf=(xqc,tight)
 -----------------------------------

 -------------------------------
 COc1ccc2c(c1)c1ccccc1n2C_conf_0
 -------------------------------
 Symbolic Z-matrix:
 Charge =  0 Multiplicity = 1

 SCF Done:  E(RB3LYP) =  -671.297067909     A.U. after   14 cycles
 SCF Done:  E(RB3LYP) =  -671.301894817     A.U. after   12 cycles
 SCF Done:  E(RB3LYP) =  -671.302238249     A.U. after   11 cycles
 SCF Done:  E(RB3LYP) =  -671.302337128     A.U. after   11 cycles
 SCF Done:  E(RB3LYP) =  -671.302398454     A.U. after   11 cycles
 SCF Done:  E(RB3LYP) =  -671.302423587     A.U. after   10 cycles
 SCF Done:  E(RB3LYP) =  -671.302430730     A.U. after    8 cycles
 SCF Done:  E(RB3LYP) =  -671.302433970     A.U. after    8 cycles
 SCF Done:  E(RB3LYP) =  -671.302440156     A.U. after   10 cycles
 SCF Done:  E(RB3LYP) =  -671.302459379     A.U. after   10 cycles
 SCF Done:  E(RB3LYP) =  -671.302483828     A.U. after   12 cycles
 SCF Done:  E(RB3LYP) =  -671.302472995     A.U. after   11 cycles
 SCF Done:  E(RB3LYP) =  -671.296235422     A.U. after   13 cycles
 SCF Done:  E(RB3LYP) =  -671.302525529     A.U. after   13 cycles
 SCF Done:  E(RB3LYP) =  -671.302551660     A.U. after   10 cycles
 SCF Done:  E(RB3LYP) =  -671.302536854     A.U. after   10 cycles
 SCF Done:  E(RB3LYP) =  -671.302559792     A.U. after   10 cycles
 SCF Done:  E(RB3LYP) =  -671.302569066     A.U. after   10 cycles
 Optimization completed.
    -- Stationary point found.
 Normal termination of Gaussian 09 at Tue Sep 28 18:05:49 2021.

 ----------------------------------------------------------------------
 #p freq b3lyp/6-31G* volume NMR pop=NPA density=current Geom=AllCheck
 Guess=Read
 ----------------------------------------------------------------------

 COc1ccc2c(c1)c1ccccc1n2C_conf_0
 -------------------------------
 Redundant internal coordinates taken from checkpoint file:
 C14H13NO_5f00_conf_0.chk
 Charge =  0 Multiplicity = 1

 SCF Done:  E(RB3LYP) =  -671.302569066     A.U. after    1 cycles

  1  C    Isotropic =   137.2269   Anisotropy =    65.2099

  2  O    Isotropic =   245.1848   Anisotropy =    63.8793

  3  C    Isotropic =    44.0077   Anisotropy =   115.6655

  4  C    Isotropic =    79.1593   Anisotropy =   133.1717

  5  C    Isotropic =    86.5970   Anisotropy =   139.9470

  6  C    Isotropic =    61.7170   Anisotropy =   122.6377

  7  C    Isotropic =    71.7177   Anisotropy =   143.4202

  8  C    Isotropic =    94.4168   Anisotropy =   134.6422

  9  C    Isotropic =    72.3130   Anisotropy =   145.5800

 10  C    Isotropic =    75.6392   Anisotropy =   156.6496

 11  C    Isotropic =    77.2368   Anisotropy =   151.3120

 12  C    Isotropic =    70.9360   Anisotropy =   161.0860

 13  C    Isotropic =    87.9307   Anisotropy =   139.9118

 14  C    Isotropic =    56.4189   Anisotropy =   131.4992

 15  N    Isotropic =   148.7798   Anisotropy =    45.0028

 16  C    Isotropic =   161.5088   Anisotropy =    41.3148

 17  H    Isotropic =    28.2256   Anisotropy =     8.4729

 18  H    Isotropic =    28.4928   Anisotropy =     8.1022

 19  H    Isotropic =    28.4868   Anisotropy =     8.1069

 20  H    Isotropic =    25.2955   Anisotropy =     6.3367

 21  H    Isotropic =    25.1825   Anisotropy =     7.5066

 22  H    Isotropic =    25.1303   Anisotropy =     9.9557

 23  H    Isotropic =    24.3551   Anisotropy =     7.7435

 24  H    Isotropic =    25.1141   Anisotropy =     4.9155

 25  H    Isotropic =    24.8973   Anisotropy =     5.1324

 26  H    Isotropic =    25.1810   Anisotropy =     7.7551

 27  H    Isotropic =    28.4597   Anisotropy =     8.9610

 28  H    Isotropic =    28.8857   Anisotropy =    11.3051

 29  H    Isotropic =    28.5146   Anisotropy =     8.9501

  Exact polarizability: 241.026 -13.139 179.771   0.479   0.769  62.133
 Approx polarizability: 370.588 -27.935 306.698   0.430   0.461  96.135

                     1                      2                      3
                     A                      A                      A
 Frequencies --    66.1639                80.2100                98.7194
 Red. masses --     3.1325                 1.0983                 4.5455
 Frc consts  --     0.0081                 0.0042                 0.0261
 IR Inten    --     4.5570                 0.0254                 0.0392

                     4                      5                      6
                     A                      A                      A
 Frequencies --   110.8755               143.1013               147.8200
 Red. masses --     2.9296                 4.0651                 4.0668
 Frc consts  --     0.0212                 0.0490                 0.0524
 IR Inten    --     0.5074                 3.1336                 1.0035

                     7                      8                      9
                     A                      A                      A
 Frequencies --   216.1090               264.8354               273.4962
 Red. masses --     2.1889                 3.5850                 2.4969
 Frc consts  --     0.0602                 0.1481                 0.1100
 IR Inten    --     1.1990                 2.6478                 0.6931

                    10                     11                     12
                     A                      A                      A
 Frequencies --   277.6117               300.6215               389.5577
 Red. masses --     1.5274                 4.8683                 6.4902
 Frc consts  --     0.0694                 0.2592                 0.5803
 IR Inten    --     1.0619                 0.2112                 0.8581

                    13                     14                     15
                     A                      A                      A
 Frequencies --   395.6911               435.2988               457.3446
 Red. masses --     6.3367                 3.2181                 2.9688
 Frc consts  --     0.5846                 0.3593                 0.3659
 IR Inten    --     0.4420                 2.4676                 0.0437

                    16                     17                     18
                     A                      A                      A
 Frequencies --   486.3094               513.6349               563.0277
 Red. masses --     4.1558                 5.9128                 5.0529
 Frc consts  --     0.5791                 0.9191                 0.9437
 IR Inten    --     0.9243                 1.6803                11.5907

                    19                     20                     21
                     A                      A                      A
 Frequencies --   573.8338               608.6158               620.7991
 Red. masses --     3.9813                 4.8371                 3.4452
 Frc consts  --     0.7724                 1.0556                 0.7823
 IR Inten    --     1.3515                 0.4267                 2.6583

                    22                     23                     24
                     A                      A                      A
 Frequencies --   647.7244               708.9430               731.2016
 Red. masses --     5.9408                 5.5142                 3.3359
 Frc consts  --     1.4685                 1.6329                 1.0508
 IR Inten    --     5.7687                14.8104                 6.0018

                    25                     26                     27
                     A                      A                      A
 Frequencies --   748.0492               757.1725               778.5092
 Red. masses --     5.7712                 1.5456                 2.9371
 Frc consts  --     1.9027                 0.5221                 1.0488
 IR Inten    --     0.7229                42.0259                 1.3621

                    28                     29                     30
                     A                      A                      A
 Frequencies --   816.7967               852.9045               859.1468
 Red. masses --     1.5994                 1.3931                 1.6785
 Frc consts  --     0.6287                 0.5971                 0.7300
 IR Inten    --    35.3878                 5.9913                 9.5246

                    31                     32                     33
                     A                      A                      A
 Frequencies --   869.1056               898.5008               921.9133
 Red. masses --     3.9701                 5.1299                 1.3488
 Frc consts  --     1.7668                 2.4400                 0.6754
 IR Inten    --    26.2431                12.1902                 0.6226

                    34                     35                     36
                     A                      A                      A
 Frequencies --   927.7119               963.7542              1033.3638
 Red. masses --     1.2650                 1.2297                 3.2074
 Frc consts  --     0.6415                 0.6730                 2.0179
 IR Inten    --     0.5696                 0.0099                 0.0979

                    37                     38                     39
                     A                      A                      A
 Frequencies --  1051.3461              1071.6192              1091.0628
 Red. masses --     1.9884                 5.5576                 4.4026
 Frc consts  --     1.2949                 3.7603                 3.0879
 IR Inten    --     6.0976                 8.7929                46.8810

                    40                     41                     42
                     A                      A                      A
 Frequencies --  1152.0482              1156.1299              1160.0799
 Red. masses --     1.5221                 1.3027                 1.5332
 Frc consts  --     1.1902                 1.0259                 1.2157
 IR Inten    --    10.7071                15.1666                 8.3983

                    43                     44                     45
                     A                      A                      A
 Frequencies --  1168.7204              1187.3187              1190.0495
 Red. masses --     1.4465                 1.2711                 1.1521
 Frc consts  --     1.1641                 1.0557                 0.9613
 IR Inten    --    13.1658                 0.7938                16.6796

                    46                     47                     48
                     A                      A                      A
 Frequencies --  1214.1820              1243.4237              1267.7872
 Red. masses --     1.4893                 2.3270                 2.3058
 Frc consts  --     1.2936                 2.1198                 2.1836
 IR Inten    --    30.1701               124.4868               107.2242

                    49                     50                     51
                     A                      A                      A
 Frequencies --  1296.8940              1330.7115              1368.3735
 Red. masses --     2.2490                 2.0374                 2.5755
 Frc consts  --     2.2287                 2.1256                 2.8413
 IR Inten    --    48.1820                81.0454                42.8150

                    52                     53                     54
                     A                      A                      A
 Frequencies --  1381.7519              1405.5943              1411.4350
 Red. masses --     4.3952                 5.5451                 4.0071
 Frc consts  --     4.9441                 6.4548                 4.7033
 IR Inten    --    19.2473                 5.6239                 1.9377

                    55                     56                     57
                     A                      A                      A
 Frequencies --  1476.7829              1488.0672              1498.3613
 Red. masses --     1.6893                 1.8319                 1.4208
 Frc consts  --     2.1707                 2.3899                 1.8794
 IR Inten    --    54.0449                 5.4173                56.5214

                    58                     59                     60
                     A                      A                      A
 Frequencies --  1513.3959              1519.4886              1523.3252
 Red. masses --     1.5919                 1.0482                 1.4268
 Frc consts  --     2.1482                 1.4258                 1.9507
 IR Inten    --    85.5384                 5.0495                 7.4143

                    61                     62                     63
                     A                      A                      A
 Frequencies --  1533.1750              1533.9060              1539.6847
 Red. masses --     1.8274                 1.7379                 1.1787
 Frc consts  --     2.5308                 2.4092                 1.6464
 IR Inten    --    96.1116                19.1329                20.0751

                    64                     65                     66
                     A                      A                      A
 Frequencies --  1545.0516              1628.7352              1631.8208
 Red. masses --     1.6991                 5.8801                 7.0547
 Frc consts  --     2.3898                 9.1904                11.0681
 IR Inten    --    83.2308                 5.2916                10.7727

                    67                     68                     69
                     A                      A                      A
 Frequencies --  1659.2158              1681.7658              3017.5575
 Red. masses --     6.3716                 6.5189                 1.0352
 Frc consts  --    10.3349                10.8631                 5.5538
 IR Inten    --    18.9282                25.3839                56.2051

                    70                     71                     72
                     A                      A                      A
 Frequencies --  3033.7938              3072.6897              3108.6865
 Red. masses --     1.0459                 1.1062                 1.0903
 Frc consts  --     5.6716                 6.1538                 6.2078
 IR Inten    --    75.3685                49.0035                23.2861

                    73                     74                     75
                     A                      A                      A
 Frequencies --  3144.2623              3152.0696              3180.9871
 Red. masses --     1.1036                 1.0990                 1.0853
 Frc consts  --     6.4284                 6.4331                 6.4703
 IR Inten    --     9.1010                34.7399                 1.3549

                    76                     77                     78
                     A                      A                      A
 Frequencies --  3188.4959              3198.8927              3201.4554
 Red. masses --     1.0886                 1.0877                 1.0925
 Frc consts  --     6.5206                 6.5579                 6.5973
 IR Inten    --     6.8337                 9.1832                34.7609

                    79                     80                     81
                     A                      A                      A
 Frequencies --  3210.6688              3218.1795              3223.4392
 Red. masses --     1.0967                 1.0939                 1.0895
 Frc consts  --     6.6606                 6.6747                 6.6699
 IR Inten    --    31.8403                10.8295                 9.4094

 - Thermochemistry -
 -------------------
 Temperature   298.150 Kelvin.  Pressure   1.00000 Atm.
 Atom     1 has atomic number  6 and mass  12.00000

 Molecular mass:   211.09971 amu.
 Principal axes and moments of inertia in atomic units:
                           1         2         3
     Eigenvalues --  1771.521834918.700646666.96981
           X            0.99973   0.02332   0.00014
           Y           -0.02332   0.99973   0.00041
           Z           -0.00013  -0.00042   1.00000
 This molecule is an asymmetric top.
 Rotational symmetry number  1.
 Warning -- assumption of classical behavior for rotation
           may cause significant error
 Rotational temperatures (Kelvin)      0.04889     0.01761     0.01299
 Rotational constants (GHZ):           1.01875     0.36691     0.27070
 Zero-point vibrational energy     624516.2 (Joules/Mol)
                                  149.26295 (Kcal/Mol)
 Warning -- explicit consideration of  20 degrees of freedom as
           vibrations may cause significant error
 Vibrational temperatures:     95.19   115.40   142.03   159.52   205.89
          (Kelvin)            212.68   310.93   381.04   393.50   399.42
                              432.53   560.49   569.31   626.30   658.02
                              699.69   739.01   810.07   825.62   875.66
                              893.19   931.93  1020.01  1052.03  1076.27
                             1089.40  1120.10  1175.19  1227.14  1236.12
                             1250.45  1292.74  1326.43  1334.77  1386.63
                             1486.78  1512.65  1541.82  1569.79  1657.54
                             1663.41  1669.09  1681.53  1708.28  1712.21
                             1746.93  1789.01  1824.06  1865.94  1914.59
                             1968.78  1988.03  2022.33  2030.74  2124.76
                             2140.99  2155.80  2177.44  2186.20  2191.72
                             2205.89  2206.95  2215.26  2222.98  2343.38
                             2347.82  2387.24  2419.68  4341.59  4364.95
                             4420.91  4472.70  4523.89  4535.12  4576.73
                             4587.53  4602.49  4606.17  4619.43  4630.24
                             4637.80

 Zero-point correction=                           0.237866 (Hartree/Particle)
 Thermal correction to Energy=                    0.251083
 Thermal correction to Enthalpy=                  0.252027
 Thermal correction to Gibbs Free Energy=         0.198124
 Sum of electronic and zero-point Energies=           -671.064703
 Sum of electronic and thermal Energies=              -671.051487
 Sum of electronic and thermal Enthalpies=            -671.050542
 Sum of electronic and thermal Free Energies=         -671.104446

                     E (Thermal)             CV                S
                      KCal/Mol        Cal/Mol-Kelvin    Cal/Mol-Kelvin
 Total                  157.557             52.247            113.449
 Electronic               0.000              0.000              0.000
 Translational            0.889              2.981             41.945
 Rotational               0.889              2.981             32.430
 Vibrational            155.779             46.286             39.074
 Vibration     1          0.598              1.970              4.264
 Vibration     2          0.600              1.963              3.886
 Vibration     3          0.604              1.950              3.479
 Vibration     4          0.607              1.940              3.254
 Vibration     5          0.616              1.910              2.762
 Vibration     6          0.617              1.905              2.700
 Vibration     7          0.645              1.816              1.991
 Vibration     8          0.671              1.737              1.630
 Vibration     9          0.676              1.722              1.574
 Vibration    10          0.679              1.715              1.548
 Vibration    11          0.693              1.673              1.413
 Vibration    12          0.757              1.492              1.002
 Vibration    13          0.762              1.479              0.979
 Vibration    14          0.796              1.393              0.842
 Vibration    15          0.815              1.345              0.774
 Vibration    16          0.842              1.280              0.693
 Vibration    17          0.869              1.220              0.625
 Vibration    18          0.919              1.111              0.518
 Vibration    19          0.930              1.088              0.497
 Vibration    20          0.967              1.014              0.435

 Normal termination of Gaussian 09 at Tue Sep 28 19:20:37 2021.
 Gaussian 09:  AM64L-G09RevA.02 11-Jun-2009

 ----------------------------------------------------------------------
 #p TD(NStates=10, Root=1) b3lyp/6-31G* volume pop=NPA density=current
 Geom=AllCheck Guess=Read
 ----------------------------------------------------------------------

 COc1ccc2c(c1)c1ccccc1n2C_conf_0
 -------------------------------
 Redundant internal coordinates taken from checkpoint file:
 C14H13NO_5f00_conf_0.chk
 Charge =  0 Multiplicity = 1

                         Standard orientation:
 ---------------------------------------------------------------------
 Center     Atomic      Atomic             Coordinates (Angstroms)
 Number     Number       Type             X           Y           Z
 ---------------------------------------------------------------------
      1          6           0       -4.231276   -1.732458    0.008146
      2          8           0       -3.975256   -0.340477    0.005418
      3          6           0       -2.666784    0.071575   -0.000039
      4          6           0       -2.486862    1.471579    0.003970
      5          6           0       -1.219211    2.037711   -0.000639
      6          6           0       -0.112942    1.181014   -0.013511
      7          6           0       -0.279726   -0.224495   -0.009002
      8          6           0       -1.566687   -0.784466   -0.005503
      9          6           0        1.049031   -0.797176   -0.007647
     10          6           0        1.540914   -2.107598   -0.002995
     11          6           0        2.916741   -2.318163    0.005184
     12          6           0        3.806446   -1.229356    0.010401
     13          6           0        3.345793    0.085319    0.005149
     14          6           0        1.962486    0.293425   -0.011044
     15          7           0        1.247672    1.482909   -0.035714
     16          6           0        1.811884    2.812383    0.023162
     17          1           0       -5.317909   -1.839600    0.013822
     18          1           0       -3.814956   -2.220215    0.900591
     19          1           0       -3.824213   -2.221937   -0.887656
     20          1           0       -3.373730    2.097155    0.014910
     21          1           0       -1.105468    3.117572    0.011840
     22          1           0       -1.688478   -1.861677   -0.004285
     23          1           0        0.855617   -2.951639   -0.002571
     24          1           0        3.308942   -3.331168    0.010651
     25          1           0        4.877298   -1.414318    0.023011
     26          1           0        4.045766    0.915520    0.019824
     27          1           0        2.791961    2.816211   -0.461092
     28          1           0        1.926814    3.172630    1.054863
     29          1           0        1.167854    3.509168   -0.521041
 ---------------------------------------------------------------------

 SCF Done:  E(RB3LYP) =  -671.302569066     A.U. after    2 cycles

 Excitation energies and oscillator strengths:

 Excited State   1:      Singlet-A      3.8190 eV  324.65 nm  f=0.0434  <S**2>=0.000
      55 -> 58        -0.12364
      56 -> 57         0.68449
 This state for optimization and/or second-order correction.
 Total Energy, E(TD-HF/TD-KS) =  -671.162224001
 Copying the excited state density for this state as the 1-particle RhoCI density.

 Excited State   2:      Singlet-A      4.4288 eV  279.95 nm  f=0.0908  <S**2>=0.000
      55 -> 57         0.58983
      56 -> 58         0.35560

 Excited State   3:      Singlet-A      5.0411 eV  245.95 nm  f=0.4368  <S**2>=0.000
      54 -> 57         0.17554
      55 -> 57        -0.26979
      55 -> 59        -0.16380
      56 -> 58         0.56545
      56 -> 60        -0.15954

 Excited State   4:      Singlet-A      5.2395 eV  236.63 nm  f=0.0491  <S**2>=0.000
      54 -> 57         0.51940
      55 -> 57         0.15779
      55 -> 58        -0.34182
      56 -> 59        -0.20989
      56 -> 60         0.10980

 Excited State   5:      Singlet-A      5.3853 eV  230.23 nm  f=0.0785  <S**2>=0.000
      54 -> 57         0.36417
      55 -> 58         0.38748
      56 -> 59         0.40125
      56 -> 60         0.13024

 Excited State   6:      Singlet-A      5.6888 eV  217.94 nm  f=0.2674  <S**2>=0.000
      53 -> 57        -0.21145
      55 -> 57        -0.13436
      55 -> 58        -0.31762
      55 -> 59         0.20342
      56 -> 58         0.12970
      56 -> 59         0.36859
      56 -> 60         0.33064

 Excited State   7:      Singlet-A      5.8885 eV  210.55 nm  f=0.4193  <S**2>=0.000
      53 -> 57         0.22677
      55 -> 57        -0.12280
      55 -> 58         0.16671
      56 -> 58         0.11175
      56 -> 59        -0.29790
      56 -> 60         0.52345

 Excited State   8:      Singlet-A      6.1802 eV  200.62 nm  f=0.0584  <S**2>=0.000
      52 -> 57         0.12743
      53 -> 57        -0.24639
      53 -> 58         0.11955
      54 -> 57         0.16647
      54 -> 60         0.12531
      55 -> 58         0.16241
      55 -> 59         0.52813
      55 -> 60         0.13416
      56 -> 59        -0.14666
      56 -> 60        -0.10363

 Excited State   9:      Singlet-A      6.2592 eV  198.08 nm  f=0.0674  <S**2>=0.000
      52 -> 57        -0.20593
      53 -> 57         0.10982
      54 -> 58        -0.45341
      55 -> 58         0.10445
      55 -> 60         0.45665

 Excited State  10:      Singlet-A      6.2961 eV  196.92 nm  f=0.0830  <S**2>=0.000
      53 -> 57         0.45385
      53 -> 58         0.11240
      54 -> 58        -0.19648
      54 -> 60        -0.15740
      55 -> 59         0.29953
      55 -> 60        -0.24828
      56 -> 59         0.10169
      56 -> 60        -0.14722

 The electronic state is 1-A.
 Alpha  occ. eigenvalues --  -19.16797 -14.37301 -10.23607 -10.23476 -10.22997
 Alpha  occ. eigenvalues --  -10.21763 -10.21415 -10.18886 -10.18493 -10.18447
 Alpha  occ. eigenvalues --  -10.18388 -10.18346 -10.18222 -10.18162 -10.18113
 Alpha  occ. eigenvalues --  -10.17644  -1.05336  -0.98024  -0.84331  -0.83792
 Alpha  occ. eigenvalues --   -0.78218  -0.74687  -0.74231  -0.72295  -0.70034
 Alpha  occ. eigenvalues --   -0.67195  -0.62660  -0.59284  -0.57570  -0.57412
 Alpha  occ. eigenvalues --   -0.52527  -0.51505  -0.50605  -0.46981  -0.46563
 Alpha  occ. eigenvalues --   -0.46488  -0.46001  -0.44729  -0.43717  -0.42418
 Alpha  occ. eigenvalues --   -0.41261  -0.40835  -0.40046  -0.39660  -0.38445
 Alpha  occ. eigenvalues --   -0.36146  -0.35935  -0.34589  -0.33742  -0.32754
 Alpha  occ. eigenvalues --   -0.31811  -0.29124  -0.27065  -0.23682  -0.20501
 Alpha  occ. eigenvalues --   -0.18411
 Alpha virt. eigenvalues --   -0.02301   0.01641   0.03890   0.04959   0.08601
 Alpha virt. eigenvalues --    0.10134   0.10856   0.11707   0.13283   0.13485
 Alpha virt. eigenvalues --    0.14553   0.15389   0.15782   0.16490   0.17173

 Mulliken atomic charges:
              1
     1  C   -0.219507
     2  O   -0.482390
     3  C    0.380294
     4  C   -0.213986
     5  C   -0.184489
     6  C    0.311971
     7  C    0.062757
     8  C   -0.284164
     9  C    0.067813
    10  C   -0.231532
    11  C   -0.125212
    12  C   -0.169109
    13  C   -0.196538
    14  C    0.309624
    15  N   -0.581101
    16  C   -0.333563
    17  H    0.173410
    18  H    0.162694
    19  H    0.162687
    20  H    0.125628
    21  H    0.122849
    22  H    0.132478
    23  H    0.109179
    24  H    0.117901
    25  H    0.108160
    26  H    0.110229
    27  H    0.189090
    28  H    0.189629
    29  H    0.185200
 Sum of Mulliken atomic charges =  -0.00000

 Dipole moment (field-independent basis, Debye):
    X=             -0.9219    Y=              1.4844    Z=              0.0582  Tot=              1.7483
 Quadrupole moment (field-independent basis, Debye-Ang):
   XX=            -87.1486   YY=            -76.9615   ZZ=            -97.4634
   XY=             14.6749   XZ=              0.0492   YZ=              0.0601

 Summary of Natural Population Analysis:

                                       Natural Population
                Natural  -----------------------------------------------
    Atom  No    Charge         Core      Valence    Rydberg      Total
 -----------------------------------------------------------------------
      C    1   -0.32136      1.99943     4.30773    0.01420     6.32136
      O    2   -0.47685      1.99975     6.46544    0.01166     8.47685
      C    3    0.35784      1.99880     3.62106    0.02230     5.64216
      C    4   -0.33774      1.99907     4.32131    0.01735     6.33774
      C    5   -0.27078      1.99903     4.25699    0.01476     6.27078
      C    6    0.16634      1.99897     3.81613    0.01856     5.83366
      C    7   -0.05849      1.99901     4.04265    0.01683     6.05849
      C    8   -0.32777      1.99897     4.31485    0.01395     6.32777
      C    9   -0.09116      1.99901     4.07623    0.01592     6.09116
      C   10   -0.27591      1.99904     4.26124    0.01563     6.27591
      C   11   -0.20336      1.99912     4.19016    0.01407     6.20336
      C   12   -0.29280      1.99914     4.27733    0.01633     6.29280
      C   13   -0.29881      1.99902     4.28501    0.01479     6.29881
      C   14    0.16448      1.99899     3.81775    0.01877     5.83552
      N   15   -0.27618      1.99923     5.26605    0.01089     7.27618
      C   16   -0.47072      1.99946     4.45954    0.01172     6.47072
      H   17    0.22986      0.00000     0.76961    0.00053     0.77014
      H   18    0.21000      0.00000     0.78821    0.00179     0.79000
      H   19    0.21000      0.00000     0.78821    0.00179     0.79000
      H   20    0.24315      0.00000     0.75576    0.00109     0.75685
      H   21    0.23362      0.00000     0.76549    0.00089     0.76638
      H   22    0.23794      0.00000     0.76113    0.00093     0.76206
      H   23    0.22643      0.00000     0.77262    0.00095     0.77357
      H   24    0.23035      0.00000     0.76884    0.00081     0.76965
      H   25    0.22850      0.00000     0.77072    0.00078     0.77150
      H   26    0.22564      0.00000     0.77342    0.00094     0.77436
      H   27    0.24777      0.00000     0.75116    0.00107     0.75223
      H   28    0.24505      0.00000     0.75355    0.00140     0.75495
      H   29    0.24495      0.00000     0.75393    0.00112     0.75505
 =======================================================================
   * Total *    0.00000     31.98605    79.75214    0.26182   112.00000

 Normal termination of Gaussian 09 at Tue Sep 28 23:38:59 2021.
