 Gaussian 09, Revision A.02,

 -----------------------------------
 #p opt b3lyp/6-31G* scf=(xqc,tight)
 -----------------------------------

 -----------------------------------
 O=C(C(C)(C)C)Oc1cccc2c1cccn2_conf_0
 -----------------------------------
 Symbolic Z-matrix:
 Charge =  0 Multiplicity = 1

 SCF Done:  E(RB3LYP) =  -747.736009310     A.U. after   16 cycles
 SCF Done:  E(RB3LYP) =  -747.744601625     A.U. after   14 cycles
 SCF Done:  E(RB3LYP) =  -747.744682446     A.U. after   14 cycles
 SCF Done:  E(RB3LYP) =  -747.745826846     A.U. after   12 cycles
 SCF Done:  E(RB3LYP) =  -747.746845326     A.U. after   13 cycles
 SCF Done:  E(RB3LYP) =  -747.747243808     A.U. after   12 cycles
 SCF Done:  E(RB3LYP) =  -747.747374361     A.U. after   12 cycles
 SCF Done:  E(RB3LYP) =  -747.747500701     A.U. after   12 cycles
 SCF Done:  E(RB3LYP) =  -747.747570070     A.U. after   12 cycles
 SCF Done:  E(RB3LYP) =  -747.747666375     A.U. after   13 cycles
 SCF Done:  E(RB3LYP) =  -747.747688783     A.U. after   10 cycles
 SCF Done:  E(RB3LYP) =  -747.747700513     A.U. after   11 cycles
 SCF Done:  E(RB3LYP) =  -747.747723051     A.U. after   15 cycles
 SCF Done:  E(RB3LYP) =  -747.747756866     A.U. after   14 cycles
 SCF Done:  E(RB3LYP) =  -747.747759567     A.U. after   11 cycles
 SCF Done:  E(RB3LYP) =  -747.747757511     A.U. after   11 cycles
 SCF Done:  E(RB3LYP) =  -747.747759847     A.U. after   10 cycles
 SCF Done:  E(RB3LYP) =  -747.747760141     A.U. after    8 cycles
 Optimization completed.
    -- Stationary point found.
 Normal termination of Gaussian 09 at Wed Sep 29 08:00:28 2021.

 ----------------------------------------------------------------------
 #p freq b3lyp/6-31G* volume NMR pop=NPA density=current Geom=AllCheck
 Guess=Read
 ----------------------------------------------------------------------

 O=C(C(C)(C)C)Oc1cccc2c1cccn2_conf_0
 -----------------------------------
 Redundant internal coordinates taken from checkpoint file:
 C14H15NO2_6d9b_conf_0.chk
 Charge =  0 Multiplicity = 1

 SCF Done:  E(RB3LYP) =  -747.747760141     A.U. after    1 cycles

  1  O    Isotropic =   -64.6059   Anisotropy =   577.8398

  2  C    Isotropic =    22.5034   Anisotropy =    78.4348

  3  C    Isotropic =   148.2230   Anisotropy =    25.0291

  4  C    Isotropic =   162.2926   Anisotropy =    37.6306

  5  C    Isotropic =   161.6871   Anisotropy =    38.0076

  6  C    Isotropic =   162.6637   Anisotropy =    31.6858

  7  O    Isotropic =   114.0461   Anisotropy =   179.7649

  8  C    Isotropic =    49.3142   Anisotropy =    99.4236

  9  C    Isotropic =    75.5788   Anisotropy =   148.6593

 10  C    Isotropic =    67.7797   Anisotropy =   164.7263

 11  C    Isotropic =    67.8851   Anisotropy =   145.0883

 12  C    Isotropic =    47.1124   Anisotropy =   178.9111

 13  C    Isotropic =    73.6687   Anisotropy =   176.0215

 14  C    Isotropic =    66.0668   Anisotropy =   178.2977

 15  C    Isotropic =    75.7920   Anisotropy =   154.0011

 16  C    Isotropic =    46.7196   Anisotropy =   154.6029

 17  N    Isotropic =   -58.7727   Anisotropy =   506.5263

 18  H    Isotropic =    30.1525   Anisotropy =     7.5120

 19  H    Isotropic =    30.6894   Anisotropy =     7.8394

 20  H    Isotropic =    30.9758   Anisotropy =     7.9911

 21  H    Isotropic =    30.3532   Anisotropy =     5.5247

 22  H    Isotropic =    30.9623   Anisotropy =     7.9501

 23  H    Isotropic =    30.7232   Anisotropy =     8.3478

 24  H    Isotropic =    30.6430   Anisotropy =     7.8502

 25  H    Isotropic =    30.5128   Anisotropy =     8.3294

 26  H    Isotropic =    31.4120   Anisotropy =     7.9557

 27  H    Isotropic =    24.8784   Anisotropy =     9.4520

 28  H    Isotropic =    24.5414   Anisotropy =     5.3403

 29  H    Isotropic =    24.3252   Anisotropy =     5.3637

 30  H    Isotropic =    23.9678   Anisotropy =    10.1589

 31  H    Isotropic =    25.0144   Anisotropy =     6.7586

 32  H    Isotropic =    23.2817   Anisotropy =     6.0496

  Exact polarizability: 199.525 -10.620 184.808  -3.993   2.591  84.971
 Approx polarizability: 289.735 -21.279 321.240  -9.979  -0.459 133.567

                     1                      2                      3
                     A                      A                      A
 Frequencies --    17.0241                43.0430                44.4282
 Red. masses --     3.5019                 4.4689                 5.9540
 Frc consts  --     0.0006                 0.0049                 0.0069
 IR Inten    --     0.2621                 0.0140                 0.7559

                     4                      5                      6
                     A                      A                      A
 Frequencies --    80.4626               146.7009               184.2383
 Red. masses --     4.8215                 4.3876                 4.0232
 Frc consts  --     0.0184                 0.0556                 0.0805
 IR Inten    --     0.2333                 2.9049                 1.2720

                     7                      8                      9
                     A                      A                      A
 Frequencies --   198.2943               202.5261               224.5618
 Red. masses --     2.0282                 2.6778                 1.5007
 Frc consts  --     0.0470                 0.0647                 0.0446
 IR Inten    --     1.0059                 0.7988                 0.2148

                    10                     11                     12
                     A                      A                      A
 Frequencies --   247.7341               269.0403               278.3453
 Red. masses --     1.9962                 1.2153                 1.3285
 Frc consts  --     0.0722                 0.0518                 0.0606
 IR Inten    --     1.4118                 0.3699                 0.4318

                    13                     14                     15
                     A                      A                      A
 Frequencies --   309.3331               324.7898               356.6835
 Red. masses --     3.7269                 3.1687                 3.1835
 Frc consts  --     0.2101                 0.1969                 0.2386
 IR Inten    --     1.3136                 9.3902                 5.8088

                    16                     17                     18
                     A                      A                      A
 Frequencies --   379.5842               428.8559               442.4319
 Red. masses --     2.3632                 3.9828                 3.6193
 Frc consts  --     0.2006                 0.4316                 0.4174
 IR Inten    --     1.1395                 2.6439                 3.9567

                    19                     20                     21
                     A                      A                      A
 Frequencies --   470.6618               480.3941               531.7094
 Red. masses --     4.8219                 3.3374                 6.7176
 Frc consts  --     0.6293                 0.4538                 1.1190
 IR Inten    --     0.4527                 0.5369                 1.9336

                    22                     23                     24
                     A                      A                      A
 Frequencies --   543.9778               572.4694               582.7853
 Red. masses --     6.2578                 3.9286                 4.3472
 Frc consts  --     1.0910                 0.7586                 0.8699
 IR Inten    --     0.2284                 3.2406                 2.1887

                    25                     26                     27
                     A                      A                      A
 Frequencies --   621.5383               662.6818               730.5257
 Red. masses --     5.1058                 4.4825                 6.7926
 Frc consts  --     1.1621                 1.1598                 2.1358
 IR Inten    --     5.1288                 1.6180                 0.4178

                    28                     29                     30
                     A                      A                      A
 Frequencies --   756.2625               760.9418               807.8586
 Red. masses --     4.5438                 1.6350                 4.4986
 Frc consts  --     1.5311                 0.5578                 1.7298
 IR Inten    --     2.6808                 3.2729                 3.0909

                    31                     32                     33
                     A                      A                      A
 Frequencies --   820.3229               822.7901               842.3294
 Red. masses --     1.3591                 4.4789                 3.1531
 Frc consts  --     0.5388                 1.7865                 1.3181
 IR Inten    --    52.0518                 7.6400                 1.1443

                    34                     35                     36
                     A                      A                      A
 Frequencies --   876.4308               907.7748               921.9830
 Red. masses --     4.0760                 2.3330                 2.1790
 Frc consts  --     1.8447                 1.1327                 1.0913
 IR Inten    --     9.7970                 3.0284                 5.0975

                    37                     38                     39
                     A                      A                      A
 Frequencies --   949.2176               956.2202               970.8622
 Red. masses --     1.7557                 1.6367                 1.3899
 Frc consts  --     0.9320                 0.8817                 0.7719
 IR Inten    --     1.2288                 4.2017                 0.0526

                    40                     41                     42
                     A                      A                      A
 Frequencies --   982.6151               985.9284               995.2078
 Red. masses --     1.1978                 1.2835                 1.3264
 Frc consts  --     0.6814                 0.7351                 0.7740
 IR Inten    --     0.0171                 0.4461                 0.5103

                    43                     44                     45
                     A                      A                      A
 Frequencies --  1037.8374              1058.5671              1059.7551
 Red. masses --     3.5158                 1.6841                 1.4627
 Frc consts  --     2.2311                 1.1119                 0.9679
 IR Inten    --     0.6008                38.6913                 1.0086

                    46                     47                     48
                     A                      A                      A
 Frequencies --  1076.4450              1096.5742              1140.3746
 Red. masses --     2.2727                 1.9785                 4.0120
 Frc consts  --     1.5516                 1.4017                 3.0740
 IR Inten    --    26.4345                 4.9243               724.2460

                    49                     50                     51
                     A                      A                      A
 Frequencies --  1171.8178              1191.9713              1242.0911
 Red. masses --     1.2596                 1.3803                 2.6482
 Frc consts  --     1.0191                 1.1554                 2.4072
 IR Inten    --    11.3065                55.5465                 1.8941

                    52                     53                     54
                     A                      A                      A
 Frequencies --  1248.4154              1259.6973              1269.2151
 Red. masses --     2.3949                 2.5015                 2.3431
 Frc consts  --     2.1991                 2.3387                 2.2239
 IR Inten    --     9.7533                24.9524                71.1447

                    55                     56                     57
                     A                      A                      A
 Frequencies --  1278.5690              1307.0975              1371.6424
 Red. masses --     2.1801                 3.0577                 3.4849
 Frc consts  --     2.0998                 3.0780                 3.8630
 IR Inten    --    18.9017                32.3037                 7.1815

                    58                     59                     60
                     A                      A                      A
 Frequencies --  1402.3853              1422.6009              1430.1032
 Red. masses --     5.4723                 1.2075                 1.2455
 Frc consts  --     6.3409                 1.4398                 1.5008
 IR Inten    --     4.8767                 3.7802                 6.6876

                    61                     62                     63
                     A                      A                      A
 Frequencies --  1436.8765              1457.9182              1459.7896
 Red. masses --     1.8703                 1.7937                 1.4440
 Frc consts  --     2.2751                 2.2463                 1.8130
 IR Inten    --    40.7177                 9.2326                 6.5817

                    64                     65                     66
                     A                      A                      A
 Frequencies --  1508.2702              1516.1023              1517.9753
 Red. masses --     1.0488                 1.0469                 2.5593
 Frc consts  --     1.4058                 1.4178                 3.4745
 IR Inten    --     0.0124                 0.3004                21.8582

                    67                     68                     69
                     A                      A                      A
 Frequencies --  1520.1360              1530.2775              1532.6986
 Red. masses --     1.0621                 1.0494                 1.0530
 Frc consts  --     1.4460                 1.4479                 1.4575
 IR Inten    --     1.7790                 6.3027                 7.2182

                    70                     71                     72
                     A                      A                      A
 Frequencies --  1550.3585              1551.8545              1619.8324
 Red. masses --     1.1104                 3.3126                 6.9352
 Frc consts  --     1.5726                 4.7003                10.7213
 IR Inten    --    28.0418                10.3542                47.0173

                    73                     74                     75
                     A                      A                      A
 Frequencies --  1653.6702              1676.2963              1836.9400
 Red. masses --     5.5087                 6.6563                12.7449
 Frc consts  --     8.8756                11.0200                25.3382
 IR Inten    --    28.2572                19.9748               191.0438

                    76                     77                     78
                     A                      A                      A
 Frequencies --  3050.7044              3053.0326              3062.5106
 Red. masses --     1.0353                 1.0359                 1.0364
 Frc consts  --     5.6768                 5.6889                 5.7273
 IR Inten    --    25.5069                10.8936                24.4609

                    79                     80                     81
                     A                      A                      A
 Frequencies --  3114.9681              3117.1126              3130.3055
 Red. masses --     1.1031                 1.1024                 1.1019
 Frc consts  --     6.3061                 6.3112                 6.3616
 IR Inten    --    13.0193                21.6338                37.2036

                    82                     83                     84
                     A                      A                      A
 Frequencies --  3136.8763              3141.2403              3141.4727
 Red. masses --     1.1021                 1.1025                 1.1014
 Frc consts  --     6.3897                 6.4097                 6.4042
 IR Inten    --     5.2022                21.9797                44.4030

                    85                     86                     87
                     A                      A                      A
 Frequencies --  3162.4182              3200.6001              3206.2501
 Red. masses --     1.0893                 1.0882                 1.0899
 Frc consts  --     6.4183                 6.5678                 6.6016
 IR Inten    --    34.5562                10.1636                12.9223

                    88                     89                     90
                     A                      A                      A
 Frequencies --  3225.7862              3228.1948              3242.9475
 Red. masses --     1.0940                 1.0946                 1.0932
 Frc consts  --     6.7074                 6.7211                 6.7735
 IR Inten    --     9.9916                 9.9389                 3.9352

 - Thermochemistry -
 -------------------
 Temperature   298.150 Kelvin.  Pressure   1.00000 Atm.
 Atom     1 has atomic number  8 and mass  15.99491

 Molecular mass:   229.11028 amu.
 Principal axes and moments of inertia in atomic units:
                           1         2         3
     Eigenvalues --  1899.447886237.047087526.99265
           X            0.99994   0.00996  -0.00404
           Y           -0.00993   0.99992   0.00748
           Z            0.00411  -0.00744   0.99996
 This molecule is an asymmetric top.
 Rotational symmetry number  1.
 Warning -- assumption of classical behavior for rotation
           may cause significant error
 Rotational temperatures (Kelvin)      0.04560     0.01389     0.01151
 Rotational constants (GHZ):           0.95014     0.28936     0.23977
 Zero-point vibrational energy     690126.5 (Joules/Mol)
                                  164.94419 (Kcal/Mol)
 Warning -- explicit consideration of  24 degrees of freedom as
           vibrations may cause significant error
 Vibrational temperatures:     24.49    61.93    63.92   115.77   211.07
          (Kelvin)            265.08   285.30   291.39   323.09   356.43
                              387.09   400.48   445.06   467.30   513.19
                              546.14   617.03   636.56   677.18   691.18
                              765.01   782.66   823.65   838.50   894.25
                              953.45  1051.06  1088.09  1094.82  1162.33
                             1180.26  1183.81  1211.92  1260.99  1306.08
                             1326.53  1365.71  1375.79  1396.85  1413.76
                             1418.53  1431.88  1493.21  1523.04  1524.75
                             1548.76  1577.72  1640.74  1685.98  1714.98
                             1787.09  1796.19  1812.42  1826.12  1839.57
                             1880.62  1973.49  2017.72  2046.80  2057.60
                             2067.34  2097.62  2100.31  2170.06  2181.33
                             2184.03  2187.13  2201.73  2205.21  2230.62
                             2232.77  2330.57  2379.26  2411.81  2642.94
                             4389.28  4392.63  4406.26  4481.74  4484.82
                             4503.81  4513.26  4519.54  4519.87  4550.01
                             4604.94  4613.07  4641.18  4644.65  4665.87

 Zero-point correction=                           0.262855 (Hartree/Particle)
 Thermal correction to Energy=                    0.278224
 Thermal correction to Enthalpy=                  0.279168
 Thermal correction to Gibbs Free Energy=         0.219098
 Sum of electronic and zero-point Energies=           -747.484905
 Sum of electronic and thermal Energies=              -747.469536
 Sum of electronic and thermal Enthalpies=            -747.468592
 Sum of electronic and thermal Free Energies=         -747.528662

                     E (Thermal)             CV                S
                      KCal/Mol        Cal/Mol-Kelvin    Cal/Mol-Kelvin
 Total                  174.588             59.676            126.428
 Electronic               0.000              0.000              0.000
 Translational            0.889              2.981             42.189
 Rotational               0.889              2.981             32.855
 Vibrational            172.811             53.714             51.383
 Vibration     1          0.593              1.986              6.954
 Vibration     2          0.595              1.980              5.114
 Vibration     3          0.595              1.980              5.051
 Vibration     4          0.600              1.962              3.880
 Vibration     5          0.617              1.906              2.715
 Vibration     6          0.631              1.861              2.285
 Vibration     7          0.637              1.842              2.149
 Vibration     8          0.639              1.836              2.110
 Vibration     9          0.649              1.804              1.922
 Vibration    10          0.661              1.767              1.747
 Vibration    11          0.673              1.730              1.602
 Vibration    12          0.679              1.714              1.544
 Vibration    13          0.699              1.656              1.366
 Vibration    14          0.709              1.626              1.286
 Vibration    15          0.732              1.562              1.137
 Vibration    16          0.750              1.514              1.041
 Vibration    17          0.790              1.407              0.862
 Vibration    18          0.802              1.378              0.819
 Vibration    19          0.828              1.315              0.736
 Vibration    20          0.837              1.294              0.709
 Vibration    21          0.887              1.180              0.583
 Vibration    22          0.899              1.153              0.557
 Vibration    23          0.929              1.091              0.500
 Vibration    24          0.940              1.069              0.480

 Normal termination of Gaussian 09 at Wed Sep 29 09:23:54 2021.
 Gaussian 09:  AM64L-G09RevA.02 11-Jun-2009

 ----------------------------------------------------------------------
 #p TD(NStates=10, Root=1) b3lyp/6-31G* volume pop=NPA density=current
 Geom=AllCheck Guess=Read
 ----------------------------------------------------------------------

 O=C(C(C)(C)C)Oc1cccc2c1cccn2_conf_0
 -----------------------------------
 Redundant internal coordinates taken from checkpoint file:
 C14H15NO2_6d9b_conf_0.chk
 Charge =  0 Multiplicity = 1

                         Standard orientation:
 ---------------------------------------------------------------------
 Center     Atomic      Atomic             Coordinates (Angstroms)
 Number     Number       Type             X           Y           Z
 ---------------------------------------------------------------------
      1          8           0       -1.857195    1.243184   -1.231608
      2          6           0       -1.912112    0.405638   -0.366470
      3          6           0       -3.163025   -0.369598    0.059296
      4          6           0       -2.899428   -1.888053   -0.043496
      5          6           0       -3.497367    0.003769    1.522010
      6          6           0       -4.321649    0.030336   -0.868196
      7          8           0       -0.825771    0.028911    0.394815
      8          6           0        0.412679    0.648798    0.225841
      9          6           0        0.562720    2.015208    0.267487
     10          6           0        1.856995    2.578710    0.168352
     11          6           0        2.971316    1.781997    0.037890
     12          6           0        2.837357    0.370021   -0.002451
     13          6           0        1.532874   -0.216073    0.089193
     14          6           0        1.438731   -1.629764    0.041188
     15          6           0        2.588825   -2.370867   -0.090531
     16          6           0        3.832330   -1.695139   -0.170633
     17          7           0        3.967987   -0.385590   -0.130025
     18          1           0       -2.106674   -2.204395    0.640272
     19          1           0       -2.614962   -2.175364   -1.062354
     20          1           0       -3.812002   -2.436534    0.216291
     21          1           0       -2.683120   -0.267818    2.199875
     22          1           0       -4.401925   -0.527831    1.838841
     23          1           0       -3.687156    1.078544    1.623385
     24          1           0       -4.099383   -0.216916   -1.910812
     25          1           0       -4.516639    1.105511   -0.818343
     26          1           0       -5.232308   -0.502411   -0.572598
     27          1           0       -0.305634    2.654571    0.368414
     28          1           0        1.959684    3.659614    0.198893
     29          1           0        3.970845    2.197247   -0.036610
     30          1           0        0.465721   -2.104467    0.108090
     31          1           0        2.558400   -3.455507   -0.132928
     32          1           0        4.751490   -2.271772   -0.272788
 ---------------------------------------------------------------------

 SCF Done:  E(RB3LYP) =  -747.747760141     A.U. after    3 cycles

 Excitation energies and oscillator strengths:

 Excited State   1:      Singlet-A      4.2348 eV  292.77 nm  f=0.0781  <S**2>=0.000
      59 -> 62         0.20953
      60 -> 63         0.11065
      61 -> 62         0.65588
 This state for optimization and/or second-order correction.
 Total Energy, E(TD-HF/TD-KS) =  -747.592133152
 Copying the excited state density for this state as the 1-particle RhoCI density.

 Excited State   2:      Singlet-A      4.3081 eV  287.79 nm  f=0.0113  <S**2>=0.000
      59 -> 62         0.64063
      60 -> 62        -0.18240
      61 -> 62        -0.20899

 Excited State   3:      Singlet-A      4.5097 eV  274.93 nm  f=0.0091  <S**2>=0.000
      59 -> 62         0.15306
      60 -> 62         0.51525
      61 -> 63        -0.45406

 Excited State   4:      Singlet-A      5.2515 eV  236.09 nm  f=0.0137  <S**2>=0.000
      58 -> 62         0.56963
      58 -> 64         0.25954
      59 -> 63         0.25379
      60 -> 62        -0.10221
      60 -> 64        -0.10330
      61 -> 63        -0.10173

 Excited State   5:      Singlet-A      5.2525 eV  236.05 nm  f=0.0060  <S**2>=0.000
      58 -> 62        -0.21810
      58 -> 64        -0.10107
      59 -> 63         0.63076
      60 -> 63        -0.16607

 Excited State   6:      Singlet-A      5.3735 eV  230.73 nm  f=0.0539  <S**2>=0.000
      61 -> 64         0.69524

 Excited State   7:      Singlet-A      5.7613 eV  215.20 nm  f=0.0331  <S**2>=0.000
      58 -> 62        -0.26776
      58 -> 64         0.50821
      58 -> 65         0.14257
      60 -> 62         0.11536
      60 -> 64        -0.32595
      61 -> 63         0.11202

 Excited State   8:      Singlet-A      5.8656 eV  211.37 nm  f=0.6304  <S**2>=0.000
      57 -> 63         0.16279
      58 -> 62         0.21223
      59 -> 62         0.10073
      60 -> 62         0.37406
      60 -> 65         0.16097
      61 -> 63         0.47207

 Excited State   9:      Singlet-A      5.9345 eV  208.92 nm  f=0.0433  <S**2>=0.000
      57 -> 62         0.48293
      59 -> 63        -0.10194
      60 -> 63        -0.37721
      61 -> 65         0.31535

 Excited State  10:      Singlet-A      6.1684 eV  201.00 nm  f=0.0124  <S**2>=0.000
      58 -> 64         0.11036
      59 -> 64         0.54906
      59 -> 65        -0.18340
      60 -> 64         0.35601

 The electronic state is 1-A.
 Alpha  occ. eigenvalues --  -19.20713 -19.14759 -14.32953 -10.32348 -10.25963
 Alpha  occ. eigenvalues --  -10.22802 -10.22658 -10.22089 -10.21111 -10.20968
 Alpha  occ. eigenvalues --  -10.20150 -10.20038 -10.19908 -10.19055 -10.18951
 Alpha  occ. eigenvalues --  -10.18878 -10.17969  -1.11300  -1.03144  -0.94323
 Alpha  occ. eigenvalues --   -0.85432  -0.82870  -0.80908  -0.75610  -0.74856
 Alpha  occ. eigenvalues --   -0.69864  -0.69347  -0.66941  -0.64339  -0.63752
 Alpha  occ. eigenvalues --   -0.59335  -0.56105  -0.52805  -0.51647  -0.50353
 Alpha  occ. eigenvalues --   -0.49368  -0.47908  -0.47003  -0.45582  -0.44377
 Alpha  occ. eigenvalues --   -0.43989  -0.43390  -0.41900  -0.41602  -0.40827
 Alpha  occ. eigenvalues --   -0.40600  -0.39554  -0.38985  -0.37701  -0.37488
 Alpha  occ. eigenvalues --   -0.36346  -0.36013  -0.34513  -0.34052  -0.33826
 Alpha  occ. eigenvalues --   -0.32264  -0.30109  -0.27797  -0.25576  -0.25293
 Alpha  occ. eigenvalues --   -0.22743
 Alpha virt. eigenvalues --   -0.05447  -0.01764  -0.00271   0.02775   0.07110
 Alpha virt. eigenvalues --    0.08990   0.09665   0.10227   0.12133   0.13620
 Alpha virt. eigenvalues --    0.14312   0.14426   0.14845   0.15627   0.16840

 Mulliken atomic charges:
              1
     1  O   -0.448865
     2  C    0.632422
     3  C   -0.014786
     4  C   -0.456831
     5  C   -0.455334
     6  C   -0.435347
     7  O   -0.507397
     8  C    0.287879
     9  C   -0.129006
    10  C   -0.151024
    11  C   -0.109533
    12  C    0.234819
    13  C    0.132421
    14  C   -0.199287
    15  C   -0.152199
    16  C    0.028986
    17  N   -0.536360
    18  H    0.170795
    19  H    0.157113
    20  H    0.153074
    21  H    0.165929
    22  H    0.156132
    23  H    0.153004
    24  H    0.159219
    25  H    0.158568
    26  H    0.142221
    27  H    0.163106
    28  H    0.151799
    29  H    0.166247
    30  H    0.129445
    31  H    0.124623
    32  H    0.128171
 Sum of Mulliken atomic charges =  -0.00000

 Dipole moment (field-independent basis, Debye):
    X=             -3.4367    Y=              0.5291    Z=              1.5582  Tot=              3.8104
 Quadrupole moment (field-independent basis, Debye-Ang):
   XX=           -101.5881   YY=            -90.0180   ZZ=           -103.6540
   XY=              6.7018   XZ=             -2.6818   YZ=              3.5845

 Summary of Natural Population Analysis:

                                       Natural Population
                Natural  -----------------------------------------------
    Atom  No    Charge         Core      Valence    Rydberg      Total
 -----------------------------------------------------------------------
      O    1   -0.56067      1.99977     6.54070    0.02019     8.56067
      C    2    0.83869      1.99927     3.11322    0.04882     5.16131
      C    3   -0.15257      1.99905     4.14127    0.01225     6.15257
      C    4   -0.67172      1.99938     4.66233    0.01002     6.67172
      C    5   -0.67078      1.99938     4.66169    0.00971     6.67078
      C    6   -0.67085      1.99940     4.66033    0.01113     6.67085
      O    7   -0.51520      1.99969     6.50438    0.01112     8.51520
      C    8    0.39056      1.99865     3.58827    0.02252     5.60944
      C    9   -0.24728      1.99901     4.23372    0.01456     6.24728
      C   10   -0.23178      1.99913     4.21784    0.01480     6.23178
      C   11   -0.12934      1.99903     4.11437    0.01593     6.12934
      C   12    0.16109      1.99903     3.81802    0.02185     5.83891
      C   13   -0.10733      1.99893     4.09367    0.01473     6.10733
      C   14   -0.29388      1.99907     4.27682    0.01800     6.29388
      C   15   -0.26548      1.99908     4.25144    0.01495     6.26548
      C   16   -0.00100      1.99925     3.97725    0.02451     6.00100
      N   17   -0.48260      1.99936     5.46029    0.02295     7.48260
      H   18    0.24327      0.00000     0.75569    0.00104     0.75673
      H   19    0.23960      0.00000     0.75950    0.00090     0.76040
      H   20    0.23845      0.00000     0.76055    0.00101     0.76155
      H   21    0.24412      0.00000     0.75484    0.00103     0.75588
      H   22    0.23964      0.00000     0.75933    0.00103     0.76036
      H   23    0.23667      0.00000     0.76240    0.00093     0.76333
      H   24    0.24428      0.00000     0.75474    0.00098     0.75572
      H   25    0.24420      0.00000     0.75477    0.00103     0.75580
      H   26    0.23314      0.00000     0.76599    0.00087     0.76686
      H   27    0.25816      0.00000     0.74087    0.00098     0.74184
      H   28    0.24656      0.00000     0.75269    0.00076     0.75344
      H   29    0.25351      0.00000     0.74492    0.00156     0.74649
      H   30    0.23471      0.00000     0.76426    0.00103     0.76529
      H   31    0.23580      0.00000     0.76326    0.00094     0.76420
      H   32    0.21803      0.00000     0.78089    0.00107     0.78197
 =======================================================================
   * Total *   -0.00000     33.98649    87.69030    0.32322   122.00000

 Normal termination of Gaussian 09 at Wed Sep 29 15:22:49 2021.
