 Gaussian 09, Revision A.02,

 -----------------------------------
 #p opt b3lyp/6-31G* scf=(xqc,tight)
 -----------------------------------

 -------------------------------------
 COc1ccc(cc1)C(=O)N(C(C)C)C(C)C_conf_0
 -------------------------------------
 Symbolic Z-matrix:
 Charge =  0 Multiplicity = 1

 SCF Done:  E(RB3LYP) =  -751.334004075     A.U. after   15 cycles
 SCF Done:  E(RB3LYP) =  -751.339883747     A.U. after   12 cycles
 SCF Done:  E(RB3LYP) =  -751.342235055     A.U. after   13 cycles
 SCF Done:  E(RB3LYP) =  -751.342864759     A.U. after   12 cycles
 SCF Done:  E(RB3LYP) =  -751.342935432     A.U. after   12 cycles
 SCF Done:  E(RB3LYP) =  -751.343416058     A.U. after   12 cycles
 SCF Done:  E(RB3LYP) =  -751.343644592     A.U. after   11 cycles
 SCF Done:  E(RB3LYP) =  -751.343670990     A.U. after   11 cycles
 SCF Done:  E(RB3LYP) =  -751.343695020     A.U. after   10 cycles
 SCF Done:  E(RB3LYP) =  -751.343708714     A.U. after   11 cycles
 SCF Done:  E(RB3LYP) =  -751.343710467     A.U. after    8 cycles
 SCF Done:  E(RB3LYP) =  -751.343711241     A.U. after    8 cycles
 SCF Done:  E(RB3LYP) =  -751.343711526     A.U. after    8 cycles
 Optimization completed.
    -- Stationary point found.
 Normal termination of Gaussian 09 at Thu Sep 30 09:56:15 2021.

 ----------------------------------------------------------------------
 #p freq b3lyp/6-31G* volume NMR pop=NPA density=current Geom=AllCheck
 Guess=Read
 ----------------------------------------------------------------------

 COc1ccc(cc1)C(=O)N(C(C)C)C(C)C_conf_0
 -------------------------------------
 Redundant internal coordinates taken from checkpoint file:
 C14H21NO2_f1fa_conf_0.chk
 Charge =  0 Multiplicity = 1

 SCF Done:  E(RB3LYP) =  -751.343711526     A.U. after    1 cycles

  1  C    Isotropic =   137.3827   Anisotropy =    65.4735

  2  O    Isotropic =   233.9715   Anisotropy =    84.7068

  3  C    Isotropic =    38.1365   Anisotropy =   128.5454

  4  C    Isotropic =    85.8705   Anisotropy =   144.0259

  5  C    Isotropic =    62.7757   Anisotropy =   167.7285

  6  C    Isotropic =    65.0885   Anisotropy =   150.9500

  7  C    Isotropic =    69.2873   Anisotropy =   157.8912

  8  C    Isotropic =    80.6684   Anisotropy =   131.7183

  9  C    Isotropic =    27.5099   Anisotropy =    91.5755

 10  O    Isotropic =   -85.2774   Anisotropy =   588.0436

 11  N    Isotropic =   119.2078   Anisotropy =    67.5952

 12  C    Isotropic =   140.7122   Anisotropy =    32.2888

 13  C    Isotropic =   168.5946   Anisotropy =    30.3664

 14  C    Isotropic =   169.9451   Anisotropy =    31.7265

 15  C    Isotropic =   138.7857   Anisotropy =    40.6316

 16  C    Isotropic =   167.8656   Anisotropy =    29.2791

 17  C    Isotropic =   168.0687   Anisotropy =    31.0739

 18  H    Isotropic =    28.2786   Anisotropy =     8.2262

 19  H    Isotropic =    28.6098   Anisotropy =     8.0035

 20  H    Isotropic =    28.5952   Anisotropy =     8.1721

 21  H    Isotropic =    25.7516   Anisotropy =     7.2072

 22  H    Isotropic =    24.6078   Anisotropy =     8.1565

 23  H    Isotropic =    25.0814   Anisotropy =     8.4102

 24  H    Isotropic =    25.6250   Anisotropy =     6.2180

 25  H    Isotropic =    28.8664   Anisotropy =     3.6766

 26  H    Isotropic =    29.3423   Anisotropy =     6.7654

 27  H    Isotropic =    31.0683   Anisotropy =     6.2361

 28  H    Isotropic =    31.3280   Anisotropy =     9.5783

 29  H    Isotropic =    29.6453   Anisotropy =     5.6790

 30  H    Isotropic =    31.3148   Anisotropy =     9.5292

 31  H    Isotropic =    31.1798   Anisotropy =     7.5282

 32  H    Isotropic =    28.1322   Anisotropy =    10.2713

 33  H    Isotropic =    31.0721   Anisotropy =     7.4363

 34  H    Isotropic =    31.3856   Anisotropy =     9.5145

 35  H    Isotropic =    30.8584   Anisotropy =     5.4622

 36  H    Isotropic =    30.7456   Anisotropy =     5.3348

 37  H    Isotropic =    31.2617   Anisotropy =     9.5220

 38  H    Isotropic =    30.8206   Anisotropy =     7.3025

  Exact polarizability: 224.207  -2.983 142.762  -4.929 -15.013 120.662
 Approx polarizability: 289.452  -8.971 233.197  -6.537 -36.097 183.707

                     1                      2                      3
                     A                      A                      A
 Frequencies --    32.9409                43.5041                66.6482
 Red. masses --     3.8306                 3.5878                 3.7062
 Frc consts  --     0.0024                 0.0040                 0.0097
 IR Inten    --     1.6362                 0.4388                 1.0922

                     4                      5                      6
                     A                      A                      A
 Frequencies --    89.4709                97.2787               100.8935
 Red. masses --     2.9707                 3.4864                 2.7677
 Frc consts  --     0.0140                 0.0194                 0.0166
 IR Inten    --     0.0865                 1.9228                 2.4584

                     7                      8                      9
                     A                      A                      A
 Frequencies --   152.0840               164.2867               185.4033
 Red. masses --     2.4866                 4.0819                 3.2589
 Frc consts  --     0.0339                 0.0649                 0.0660
 IR Inten    --     1.2343                 1.7287                 0.1292

                    10                     11                     12
                     A                      A                      A
 Frequencies --   200.6224               211.4873               222.6079
 Red. masses --     3.1094                 1.1224                 1.2307
 Frc consts  --     0.0737                 0.0296                 0.0359
 IR Inten    --     2.1629                 0.1329                 0.3653

                    13                     14                     15
                     A                      A                      A
 Frequencies --   234.4632               238.3333               246.0188
 Red. masses --     1.2509                 1.2543                 2.0121
 Frc consts  --     0.0405                 0.0420                 0.0718
 IR Inten    --     0.0582                 0.7749                 1.5098

                    16                     17                     18
                     A                      A                      A
 Frequencies --   268.0225               294.2565               313.2121
 Red. masses --     1.1379                 3.0559                 3.8249
 Frc consts  --     0.0482                 0.1559                 0.2211
 IR Inten    --     0.3043                 3.5978                 2.9203

                    19                     20                     21
                     A                      A                      A
 Frequencies --   338.7235               347.5149               379.7027
 Red. masses --     3.1474                 3.4255                 2.5681
 Frc consts  --     0.2128                 0.2437                 0.2181
 IR Inten    --     1.4852                 2.6136                 1.1298

                    22                     23                     24
                     A                      A                      A
 Frequencies --   426.7125               446.1651               469.2894
 Red. masses --     3.1507                 3.4784                 3.5406
 Frc consts  --     0.3380                 0.4080                 0.4594
 IR Inten    --     0.0447                 2.9080                 2.6857

                    25                     26                     27
                     A                      A                      A
 Frequencies --   497.7241               517.8010               522.9076
 Red. masses --     2.9915                 3.3929                 3.8935
 Frc consts  --     0.4366                 0.5360                 0.6273
 IR Inten    --     4.0563                 6.4667                 9.2238

                    28                     29                     30
                     A                      A                      A
 Frequencies --   577.8728               602.6110               644.9306
 Red. masses --     2.8833                 3.9093                 3.9432
 Frc consts  --     0.5673                 0.8364                 0.9663
 IR Inten    --     4.1325                35.7676                 4.0530

                    31                     32                     33
                     A                      A                      A
 Frequencies --   647.2539               718.6373               771.1435
 Red. masses --     5.9698                 5.0083                 5.5140
 Frc consts  --     1.4735                 1.5239                 1.9319
 IR Inten    --     3.5517                 5.7793                24.9734

                    34                     35                     36
                     A                      A                      A
 Frequencies --   805.4750               831.2577               849.4420
 Red. masses --     4.1876                 1.2724                 2.5976
 Frc consts  --     1.6007                 0.5180                 1.1043
 IR Inten    --     7.4019                 2.8566                24.8961

                    37                     38                     39
                     A                      A                      A
 Frequencies --   856.6098               883.6795               929.7305
 Red. masses --     2.0515                 2.6806                 2.4249
 Frc consts  --     0.8869                 1.2333                 1.2350
 IR Inten    --    23.4502                 5.6828                 7.8057

                    40                     41                     42
                     A                      A                      A
 Frequencies --   937.6243               940.8062               952.7497
 Red. masses --     1.2419                 1.2832                 1.3206
 Frc consts  --     0.6433                 0.6692                 0.7063
 IR Inten    --     1.7632                 1.0955                 0.1499

                    43                     44                     45
                     A                      A                      A
 Frequencies --   958.7533               959.0274               968.9196
 Red. masses --     1.3976                 1.4850                 1.2752
 Frc consts  --     0.7569                 0.8047                 0.7053
 IR Inten    --     1.7520                 1.2077                 0.3034

                    46                     47                     48
                     A                      A                      A
 Frequencies --  1030.6672              1061.4203              1077.1393
 Red. masses --     2.8802                 1.9641                 5.7978
 Frc consts  --     1.8027                 1.3037                 3.9633
 IR Inten    --     4.8236                55.9094                44.1977

                    49                     50                     51
                     A                      A                      A
 Frequencies --  1121.1791              1143.1009              1147.3681
 Red. masses --     2.1584                 1.4994                 1.8170
 Frc consts  --     1.5986                 1.1543                 1.4093
 IR Inten    --    22.8370                 8.0333                 0.4526

                    52                     53                     54
                     A                      A                      A
 Frequencies --  1161.4783              1185.2592              1185.6244
 Red. masses --     2.2174                 1.2724                 2.0831
 Frc consts  --     1.7624                 1.0532                 1.7252
 IR Inten    --    11.3778                 1.0358                33.5153

                    55                     56                     57
                     A                      A                      A
 Frequencies --  1194.8219              1209.1804              1217.0285
 Red. masses --     2.0225                 1.3354                 1.7170
 Frc consts  --     1.7012                 1.1504                 1.4984
 IR Inten    --    74.8275                27.0246                 5.0104

                    58                     59                     60
                     A                      A                      A
 Frequencies --  1220.1122              1246.8043              1302.5832
 Red. masses --     1.6785                 2.7023                 4.7042
 Frc consts  --     1.4722                 2.4750                 4.7027
 IR Inten    --    24.9258                22.6688               372.2567

                    61                     62                     63
                     A                      A                      A
 Frequencies --  1340.8902              1352.8065              1362.5082
 Red. masses --     1.4090                 3.8455                 2.8489
 Frc consts  --     1.4927                 4.1464                 3.1160
 IR Inten    --    19.0533                14.0831               309.1422

                    64                     65                     66
                     A                      A                      A
 Frequencies --  1365.6842              1374.9209              1415.6662
 Red. masses --     1.4496                 1.3308                 1.2635
 Frc consts  --     1.5929                 1.4822                 1.4919
 IR Inten    --    74.6415                19.7748                 8.6699

                    67                     68                     69
                     A                      A                      A
 Frequencies --  1422.1004              1429.0645              1433.2697
 Red. masses --     1.2346                 1.2500                 1.2529
 Frc consts  --     1.4711                 1.5041                 1.5165
 IR Inten    --     6.7627                13.8104                40.6862

                    70                     71                     72
                     A                      A                      A
 Frequencies --  1444.7975              1459.4892              1473.0991
 Red. masses --     1.2763                 2.9725                 1.5809
 Frc consts  --     1.5697                 3.7305                 2.0212
 IR Inten    --     3.7689                 1.0851               109.6138

                    73                     74                     75
                     A                      A                      A
 Frequencies --  1500.3922              1507.6121              1514.6978
 Red. masses --     1.2057                 1.0438                 1.0463
 Frc consts  --     1.5991                 1.3978                 1.4144
 IR Inten    --     9.0150                 0.4122                 1.6320

                    76                     77                     78
                     A                      A                      A
 Frequencies --  1520.7717              1520.9423              1522.7668
 Red. masses --     1.0514                 1.0480                 1.0612
 Frc consts  --     1.4326                 1.4284                 1.4498
 IR Inten    --     1.0430                 5.7444                12.8066

                    79                     80                     81
                     A                      A                      A
 Frequencies --  1530.2718              1534.6137              1535.4400
 Red. masses --     1.0466                 1.0626                 1.0495
 Frc consts  --     1.4439                 1.4744                 1.4578
 IR Inten    --     3.6917                40.7527                 0.7243

                    82                     83                     84
                     A                      A                      A
 Frequencies --  1539.1092              1553.3895              1563.3492
 Red. masses --     1.0564                 1.0615                 2.4260
 Frc consts  --     1.4745                 1.5091                 3.4934
 IR Inten    --     3.4934                10.5369                37.1500

                    85                     86                     87
                     A                      A                      A
 Frequencies --  1624.5389              1667.8760              1712.9767
 Red. masses --     6.7597                 5.6797                10.1941
 Frc consts  --    10.5109                 9.3090                17.6239
 IR Inten    --     5.4072               146.3090               230.9225

                    88                     89                     90
                     A                      A                      A
 Frequencies --  3028.2011              3050.9094              3053.4722
 Red. masses --     1.0346                 1.0354                 1.0394
 Frc consts  --     5.5898                 5.6785                 5.7097
 IR Inten    --    59.6995                 9.1415                33.3041

                    91                     92                     93
                     A                      A                      A
 Frequencies --  3055.6338              3057.8754              3075.9381
 Red. masses --     1.0380                 1.0423                 1.0794
 Frc consts  --     5.7101                 5.7421                 6.0171
 IR Inten    --    14.0943                29.9048                34.5474

                    94                     95                     96
                     A                      A                      A
 Frequencies --  3088.2492              3113.7174              3114.1897
 Red. masses --     1.1068                 1.1018                 1.0969
 Frc consts  --     6.2194                 6.2938                 6.2676
 IR Inten    --    40.9434                10.5009                23.8329

                    97                     98                     99
                     A                      A                      A
 Frequencies --  3115.9001              3119.3200              3126.8946
 Red. masses --     1.1016                 1.0999                 1.1026
 Frc consts  --     6.3016                 6.3056                 6.3520
 IR Inten    --    32.7317                36.5062                31.6853

                   100                    101                    102
                     A                      A                      A
 Frequencies --  3129.3873              3147.2448              3159.3296
 Red. masses --     1.1019                 1.0897                 1.1000
 Frc consts  --     6.3579                 6.3596                 6.4690
 IR Inten    --    27.0517                36.0465                27.2402

                   103                    104                    105
                     A                      A                      A
 Frequencies --  3164.6453              3175.5967              3198.3163
 Red. masses --     1.0994                 1.0987                 1.0873
 Frc consts  --     6.4875                 6.5282                 6.5532
 IR Inten    --     7.7060                10.0448                 9.3613

                   106                    107                    108
                     A                      A                      A
 Frequencies --  3211.6090              3217.4762              3228.9324
 Red. masses --     1.0881                 1.0940                 1.0930
 Frc consts  --     6.6123                 6.6724                 6.7138
 IR Inten    --     3.8422                 8.2983                11.4087

 - Thermochemistry -
 -------------------
 Temperature   298.150 Kelvin.  Pressure   1.00000 Atm.
 Atom     1 has atomic number  6 and mass  12.00000

 Molecular mass:   235.15723 amu.
 Principal axes and moments of inertia in atomic units:
                           1         2         3
     Eigenvalues --  1883.137147788.987148452.33699
           X            0.99996   0.00807  -0.00444
           Y           -0.00812   0.99990  -0.01178
           Z            0.00434   0.01182   0.99992
 This molecule is an asymmetric top.
 Rotational symmetry number  1.
 Warning -- assumption of classical behavior for rotation
           may cause significant error
 Rotational temperatures (Kelvin)      0.04599     0.01112     0.01025
 Rotational constants (GHZ):           0.95837     0.23170     0.21352
 Zero-point vibrational energy     869112.4 (Joules/Mol)
                                  207.72285 (Kcal/Mol)
 Warning -- explicit consideration of  29 degrees of freedom as
           vibrations may cause significant error
 Vibrational temperatures:     47.39    62.59    95.89   128.73   139.96
          (Kelvin)            145.16   218.81   236.37   266.75   288.65
                              304.28   320.28   337.34   342.91   353.97
                              385.62   423.37   450.64   487.35   500.00
                              546.31   613.94   641.93   675.20   716.11
                              745.00   752.35   831.43   867.02   927.91
                              931.25  1033.96  1109.50  1158.90  1195.99
                             1222.16  1232.47  1271.42  1337.67  1349.03
                             1353.61  1370.79  1379.43  1379.82  1394.06
                             1482.90  1527.15  1549.76  1613.12  1644.67
                             1650.80  1671.11  1705.32  1705.85  1719.08
                             1739.74  1751.03  1755.47  1793.87  1874.12
                             1929.24  1946.38  1960.34  1964.91  1978.20
                             2036.83  2046.08  2056.10  2062.15  2078.74
                             2099.88  2119.46  2158.73  2169.11  2179.31
                             2188.05  2188.29  2190.92  2201.72  2207.96
                             2209.15  2214.43  2234.98  2249.31  2337.35
                             2399.70  2464.59  4356.90  4389.57  4393.26
                             4396.37  4399.60  4425.58  4443.30  4479.94
                             4480.62  4483.08  4488.00  4498.90  4502.48
                             4528.18  4545.56  4553.21  4568.97  4601.66
                             4620.78  4629.22  4645.71

 Zero-point correction=                           0.331027 (Hartree/Particle)
 Thermal correction to Energy=                    0.349276
 Thermal correction to Enthalpy=                  0.350221
 Thermal correction to Gibbs Free Energy=         0.285079
 Sum of electronic and zero-point Energies=           -751.012684
 Sum of electronic and thermal Energies=              -750.994435
 Sum of electronic and thermal Enthalpies=            -750.993491
 Sum of electronic and thermal Free Energies=         -751.058633

                     E (Thermal)             CV                S
                      KCal/Mol        Cal/Mol-Kelvin    Cal/Mol-Kelvin
 Total                  219.174             68.831            137.102
 Electronic               0.000              0.000              0.000
 Translational            0.889              2.981             42.267
 Rotational               0.889              2.981             33.183
 Vibrational            217.397             62.870             61.652
 Vibration     1          0.594              1.983              5.644
 Vibration     2          0.595              1.980              5.093
 Vibration     3          0.598              1.970              4.250
 Vibration     4          0.602              1.957              3.672
 Vibration     5          0.603              1.951              3.508
 Vibration     6          0.604              1.948              3.437
 Vibration     7          0.619              1.900              2.646
 Vibration     8          0.623              1.886              2.500
 Vibration     9          0.631              1.860              2.273
 Vibration    10          0.638              1.839              2.127
 Vibration    11          0.643              1.823              2.031
 Vibration    12          0.648              1.807              1.938
 Vibration    13          0.654              1.788              1.845
 Vibration    14          0.656              1.782              1.815
 Vibration    15          0.660              1.769              1.759
 Vibration    16          0.673              1.732              1.609
 Vibration    17          0.689              1.684              1.449
 Vibration    18          0.701              1.648              1.345
 Vibration    19          0.719              1.598              1.218
 Vibration    20          0.725              1.580              1.177
 Vibration    21          0.750              1.513              1.040
 Vibration    22          0.788              1.412              0.869
 Vibration    23          0.805              1.369              0.807
 Vibration    24          0.826              1.318              0.740
 Vibration    25          0.853              1.255              0.664
 Vibration    26          0.873              1.211              0.615
 Vibration    27          0.878              1.199              0.603
 Vibration    28          0.934              1.079              0.489
 Vibration    29          0.961              1.026              0.445

 Normal termination of Gaussian 09 at Thu Sep 30 11:22:45 2021.
 Gaussian 09:  AM64L-G09RevA.02 11-Jun-2009

 ----------------------------------------------------------------------
 #p TD(NStates=10, Root=1) b3lyp/6-31G* volume pop=NPA density=current
 Geom=AllCheck Guess=Read
 ----------------------------------------------------------------------

 COc1ccc(cc1)C(=O)N(C(C)C)C(C)C_conf_0
 -------------------------------------
 Redundant internal coordinates taken from checkpoint file:
 C14H21NO2_f1fa_conf_0.chk
 Charge =  0 Multiplicity = 1

                         Standard orientation:
 ---------------------------------------------------------------------
 Center     Atomic      Atomic             Coordinates (Angstroms)
 Number     Number       Type             X           Y           Z
 ---------------------------------------------------------------------
      1          6           0       -5.613657   -0.222438    0.446621
      2          8           0       -4.654360    0.495064   -0.314859
      3          6           0       -3.343032    0.138605   -0.205459
      4          6           0       -2.860589   -0.888553    0.616162
      5          6           0       -1.494355   -1.166734    0.639139
      6          6           0       -0.582894   -0.419841   -0.114093
      7          6           0       -1.085271    0.596602   -0.944060
      8          6           0       -2.445249    0.872435   -0.995040
      9          6           0        0.858525   -0.865394   -0.106367
     10          8           0        1.093323   -2.072154   -0.204890
     11          7           0        1.866667    0.070134   -0.019385
     12          6           0        3.273701   -0.381725   -0.195618
     13          6           0        3.753583   -1.342478    0.905132
     14          6           0        3.514825   -0.947662   -1.602923
     15          6           0        1.651263    1.455105    0.456903
     16          6           0        2.295203    1.704853    1.831478
     17          6           0        2.099939    2.502059   -0.574782
     18          1           0       -6.580305    0.223109    0.205042
     19          1           0       -5.428574   -0.124486    1.524430
     20          1           0       -5.627674   -1.286873    0.178376
     21          1           0       -3.534267   -1.480129    1.225451
     22          1           0       -1.121694   -1.986736    1.245033
     23          1           0       -0.408899    1.163632   -1.577181
     24          1           0       -2.839578    1.647545   -1.644716
     25          1           0        3.870465    0.531949   -0.113092
     26          1           0        3.220033   -2.291859    0.846419
     27          1           0        3.596396   -0.913770    1.900419
     28          1           0        4.827629   -1.529401    0.784523
     29          1           0        2.946817   -1.867326   -1.754556
     30          1           0        4.580487   -1.168959   -1.734383
     31          1           0        3.221132   -0.221766   -2.369345
     32          1           0        0.574930    1.561388    0.590980
     33          1           0        1.935608    0.978854    2.567725
     34          1           0        2.032235    2.708521    2.184977
     35          1           0        3.388418    1.644905    1.795102
     36          1           0        3.183920    2.483121   -0.734916
     37          1           0        1.837609    3.507524   -0.226611
     38          1           0        1.614984    2.337524   -1.542556
 ---------------------------------------------------------------------

 SCF Done:  E(RB3LYP) =  -751.343711526     A.U. after    1 cycles

 Excitation energies and oscillator strengths:

 Excited State   1:      Singlet-A      4.6798 eV  264.93 nm  f=0.0557  <S**2>=0.000
      62 -> 65         0.41260
      62 -> 67         0.12507
      63 -> 65        -0.12428
      64 -> 65         0.51980
      64 -> 67         0.12399
 This state for optimization and/or second-order correction.
 Total Energy, E(TD-HF/TD-KS) =  -751.171731876
 Copying the excited state density for this state as the 1-particle RhoCI density.

 Excited State   2:      Singlet-A      4.9623 eV  249.85 nm  f=0.0126  <S**2>=0.000
      61 -> 65        -0.30630
      64 -> 66         0.62111

 Excited State   3:      Singlet-A      5.2720 eV  235.17 nm  f=0.2080  <S**2>=0.000
      63 -> 65         0.65018
      64 -> 65         0.22919

 Excited State   4:      Singlet-A      5.3889 eV  230.07 nm  f=0.0071  <S**2>=0.000
      61 -> 65        -0.15437
      62 -> 65         0.13414
      62 -> 66        -0.13559
      63 -> 66         0.65149

 Excited State   5:      Singlet-A      5.4781 eV  226.33 nm  f=0.0955  <S**2>=0.000
      61 -> 65        -0.12582
      61 -> 66        -0.11009
      62 -> 65         0.47485
      62 -> 66        -0.17645
      63 -> 65         0.20276
      63 -> 66        -0.22919
      64 -> 65        -0.32718

 Excited State   6:      Singlet-A      5.6286 eV  220.27 nm  f=0.0368  <S**2>=0.000
      61 -> 65         0.17221
      61 -> 66        -0.13290
      62 -> 65         0.18986
      62 -> 66         0.61042
      63 -> 66         0.11763
      64 -> 66         0.10929

 Excited State   7:      Singlet-A      6.2911 eV  197.08 nm  f=0.0466  <S**2>=0.000
      61 -> 65        -0.23391
      61 -> 66        -0.13606
      61 -> 67        -0.10859
      62 -> 65        -0.14331
      62 -> 66         0.13401
      62 -> 67         0.22794
      63 -> 67        -0.13941
      64 -> 66        -0.12987
      64 -> 67         0.51617

 Excited State   8:      Singlet-A      6.3519 eV  195.19 nm  f=0.0981  <S**2>=0.000
      60 -> 66        -0.10187
      61 -> 65         0.50315
      61 -> 67         0.11940
      62 -> 66        -0.20841
      62 -> 67         0.12989
      63 -> 67        -0.11843
      64 -> 66         0.23278
      64 -> 67         0.26552

 Excited State   9:      Singlet-A      6.7330 eV  184.14 nm  f=0.4325  <S**2>=0.000
      61 -> 66         0.53948
      62 -> 67         0.25645
      63 -> 67        -0.32444
      64 -> 65        -0.10240

 Excited State  10:      Singlet-A      7.1101 eV  174.38 nm  f=0.0572  <S**2>=0.000
      61 -> 66        -0.12408
      63 -> 67        -0.14028
      64 -> 67        -0.12919
      64 -> 68         0.63139
      64 -> 69         0.16421

 The electronic state is 1-A.
 Alpha  occ. eigenvalues --  -19.18202 -19.09714 -14.35108 -10.27487 -10.25153
 Alpha  occ. eigenvalues --  -10.24434 -10.22836 -10.21949 -10.19571 -10.19198
 Alpha  occ. eigenvalues --  -10.19083 -10.18985 -10.18744 -10.18334 -10.18185
 Alpha  occ. eigenvalues --  -10.16415 -10.16244  -1.06785  -1.01691  -0.92052
 Alpha  occ. eigenvalues --   -0.85306  -0.78835  -0.76867  -0.75385  -0.74564
 Alpha  occ. eigenvalues --   -0.70244  -0.69443  -0.67465  -0.63019  -0.61143
 Alpha  occ. eigenvalues --   -0.60589  -0.59090  -0.54179  -0.52223  -0.50627
 Alpha  occ. eigenvalues --   -0.48451  -0.47164  -0.46316  -0.45245  -0.44855
 Alpha  occ. eigenvalues --   -0.44051  -0.42924  -0.42334  -0.41601  -0.41450
 Alpha  occ. eigenvalues --   -0.40516  -0.39815  -0.38932  -0.38491  -0.38272
 Alpha  occ. eigenvalues --   -0.37785  -0.36628  -0.35960  -0.35599  -0.34529
 Alpha  occ. eigenvalues --   -0.33796  -0.33263  -0.32977  -0.32724  -0.31443
 Alpha  occ. eigenvalues --   -0.25359  -0.24083  -0.22822  -0.21496
 Alpha virt. eigenvalues --   -0.01132  -0.00280   0.05696   0.07151   0.09253
 Alpha virt. eigenvalues --    0.10291   0.11704   0.12030   0.12727   0.13176
 Alpha virt. eigenvalues --    0.13889   0.14716   0.15162   0.15650   0.16064

 Mulliken atomic charges:
              1
     1  C   -0.209762
     2  O   -0.506379
     3  C    0.346173
     4  C   -0.196852
     5  C   -0.191636
     6  C    0.040137
     7  C   -0.183772
     8  C   -0.172911
     9  C    0.476615
    10  O   -0.355295
    11  N   -0.425914
    12  C    0.017249
    13  C   -0.452282
    14  C   -0.452197
    15  C    0.016564
    16  C   -0.445690
    17  C   -0.450755
    18  H    0.163755
    19  H    0.147134
    20  H    0.148388
    21  H    0.122719
    22  H    0.128851
    23  H    0.124200
    24  H    0.130659
    25  H    0.140495
    26  H    0.174897
    27  H    0.152918
    28  H    0.144388
    29  H    0.177509
    30  H    0.143835
    31  H    0.151914
    32  H    0.178703
    33  H    0.159720
    34  H    0.150084
    35  H    0.145491
    36  H    0.146478
    37  H    0.152908
    38  H    0.161660
 Sum of Mulliken atomic charges =  -0.00000

 Dipole moment (field-independent basis, Debye):
    X=              2.0231    Y=              1.3360    Z=              1.2105  Tot=              2.7098
 Quadrupole moment (field-independent basis, Debye-Ang):
   XX=            -87.9911   YY=           -103.9171   ZZ=           -102.9001
   XY=              5.9000   XZ=             -4.5299   YZ=             -2.1468

 Summary of Natural Population Analysis:

                                       Natural Population
                Natural  -----------------------------------------------
    Atom  No    Charge         Core      Valence    Rydberg      Total
 -----------------------------------------------------------------------
      C    1   -0.31482      1.99943     4.30146    0.01392     6.31482
      O    2   -0.51795      1.99974     6.50629    0.01191     8.51795
      C    3    0.27023      1.99880     3.70801    0.02297     5.72977
      C    4   -0.31347      1.99903     4.30192    0.01252     6.31347
      C    5   -0.22264      1.99905     4.20812    0.01547     6.22264
      C    6   -0.19424      1.99888     4.17788    0.01747     6.19424
      C    7   -0.24812      1.99903     4.23407    0.01502     6.24812
      C    8   -0.25789      1.99902     4.24386    0.01500     6.25789
      C    9    0.53511      1.99927     3.42751    0.03811     5.46489
      O   10   -0.32642      1.99981     6.30929    0.01732     8.32642
      N   11   -0.46952      1.99929     5.45652    0.01371     7.46952
      C   12   -0.05888      1.99924     4.04253    0.01710     6.05888
      C   13   -0.68719      1.99940     4.67922    0.00856     6.68719
      C   14   -0.68472      1.99941     4.67671    0.00861     6.68472
      C   15   -0.05346      1.99919     4.03839    0.01588     6.05346
      C   16   -0.68644      1.99941     4.67845    0.00858     6.68644
      C   17   -0.68345      1.99941     4.67534    0.00870     6.68345
      H   18    0.22467      0.00000     0.77477    0.00056     0.77533
      H   19    0.19928      0.00000     0.79851    0.00221     0.80072
      H   20    0.19986      0.00000     0.79784    0.00230     0.80014
      H   21    0.23423      0.00000     0.76488    0.00090     0.76577
      H   22    0.23706      0.00000     0.76201    0.00093     0.76294
      H   23    0.23047      0.00000     0.76848    0.00105     0.76953
      H   24    0.24305      0.00000     0.75564    0.00131     0.75695
      H   25    0.23922      0.00000     0.75881    0.00197     0.76078
      H   26    0.24316      0.00000     0.75500    0.00184     0.75684
      H   27    0.23512      0.00000     0.76401    0.00087     0.76488
      H   28    0.23479      0.00000     0.76417    0.00104     0.76521
      H   29    0.24417      0.00000     0.75444    0.00140     0.75583
      H   30    0.23430      0.00000     0.76489    0.00081     0.76570
      H   31    0.23700      0.00000     0.76205    0.00095     0.76300
      H   32    0.27161      0.00000     0.72639    0.00200     0.72839
      H   33    0.24066      0.00000     0.75829    0.00105     0.75934
      H   34    0.23927      0.00000     0.75973    0.00099     0.76073
      H   35    0.22361      0.00000     0.77546    0.00093     0.77639
      H   36    0.22443      0.00000     0.77465    0.00092     0.77557
      H   37    0.24044      0.00000     0.75878    0.00078     0.75956
      H   38    0.23746      0.00000     0.76162    0.00092     0.76254
 =======================================================================
   * Total *    0.00000     33.98741    93.72598    0.28661   128.00000

 Normal termination of Gaussian 09 at Thu Sep 30 17:46:58 2021.
