 Gaussian 09, Revision A.02,

 -----------------------------------
 #p opt b3lyp/6-31G* scf=(xqc,tight)
 -----------------------------------

 --------------------------
 CCCCOc1cccc2c1cccc2_conf_0
 --------------------------
 Symbolic Z-matrix:
 Charge =  0 Multiplicity = 1

 SCF Done:  E(RB3LYP) =  -618.357857529     A.U. after   14 cycles
 SCF Done:  E(RB3LYP) =  -618.362033793     A.U. after   12 cycles
 SCF Done:  E(RB3LYP) =  -618.362264752     A.U. after   11 cycles
 SCF Done:  E(RB3LYP) =  -618.362279049     A.U. after   10 cycles
 SCF Done:  E(RB3LYP) =  -618.362282262     A.U. after    8 cycles
 SCF Done:  E(RB3LYP) =  -618.362282459     A.U. after    7 cycles
 Optimization completed.
    -- Stationary point found.
 Normal termination of Gaussian 09 at Thu Sep 30 18:31:43 2021.

 ----------------------------------------------------------------------
 #p freq b3lyp/6-31G* volume NMR pop=NPA density=current Geom=AllCheck
 Guess=Read
 ----------------------------------------------------------------------

 CCCCOc1cccc2c1cccc2_conf_0
 --------------------------
 Redundant internal coordinates taken from checkpoint file:
 C14H16O_b3ed_conf_0.chk
 Charge =  0 Multiplicity = 1

 SCF Done:  E(RB3LYP) =  -618.362282459     A.U. after    1 cycles

  1  C    Isotropic =   173.7330   Anisotropy =    23.8316

  2  C    Isotropic =   168.3967   Anisotropy =    13.0972

  3  C    Isotropic =   156.8179   Anisotropy =    31.3387

  4  C    Isotropic =   123.4152   Anisotropy =    57.7467

  5  O    Isotropic =   217.5489   Anisotropy =    75.8870

  6  C    Isotropic =    41.8572   Anisotropy =   117.8543

  7  C    Isotropic =    91.1962   Anisotropy =   133.9682

  8  C    Isotropic =    70.0930   Anisotropy =   158.2441

  9  C    Isotropic =    75.5328   Anisotropy =   133.3774

 10  C    Isotropic =    62.3727   Anisotropy =   195.1612

 11  C    Isotropic =    70.9187   Anisotropy =   174.6950

 12  C    Isotropic =    72.1838   Anisotropy =   167.1438

 13  C    Isotropic =    71.8535   Anisotropy =   159.6960

 14  C    Isotropic =    70.0682   Anisotropy =   162.5164

 15  C    Isotropic =    68.5298   Anisotropy =   143.9759

 16  H    Isotropic =    30.9348   Anisotropy =    10.0028

 17  H    Isotropic =    31.0750   Anisotropy =     7.9545

 18  H    Isotropic =    31.0751   Anisotropy =     7.9558

 19  H    Isotropic =    30.6839   Anisotropy =     6.9118

 20  H    Isotropic =    30.6846   Anisotropy =     6.9104

 21  H    Isotropic =    30.0718   Anisotropy =     4.6004

 22  H    Isotropic =    30.0712   Anisotropy =     4.6035

 23  H    Isotropic =    28.2263   Anisotropy =     5.4712

 24  H    Isotropic =    28.2275   Anisotropy =     5.4695

 25  H    Isotropic =    25.8067   Anisotropy =     8.7133

 26  H    Isotropic =    24.9628   Anisotropy =     5.3734

 27  H    Isotropic =    25.0474   Anisotropy =     6.0693

 28  H    Isotropic =    23.9078   Anisotropy =    10.6328

 29  H    Isotropic =    24.8270   Anisotropy =     5.8221

 30  H    Isotropic =    24.8140   Anisotropy =     4.9538

 31  H    Isotropic =    24.6843   Anisotropy =     6.6976

  Exact polarizability: 203.698  12.254 178.278  -0.038   0.012  71.391
 Approx polarizability: 286.334  21.261 308.711  -0.082   0.033 110.105

                     1                      2                      3
                     A                      A                      A
 Frequencies --    33.1634                49.9834                64.9318
 Red. masses --     4.3416                 1.6249                 3.9827
 Frc consts  --     0.0028                 0.0024                 0.0099
 IR Inten    --     0.1561                 0.3358                 0.0254

                     4                      5                      6
                     A                      A                      A
 Frequencies --   106.3909               144.9492               153.3113
 Red. masses --     2.8582                 2.0724                 4.1616
 Frc consts  --     0.0191                 0.0257                 0.0576
 IR Inten    --     0.2847                 2.3195                 1.5740

                     7                      8                      9
                     A                      A                      A
 Frequencies --   189.5619               193.5985               236.4713
 Red. masses --     3.5213                 3.7567                 4.3592
 Frc consts  --     0.0746                 0.0830                 0.1436
 IR Inten    --     0.0386                 0.5178                 0.6297

                    10                     11                     12
                     A                      A                      A
 Frequencies --   255.8120               273.6116               356.4934
 Red. masses --     1.1327                 4.2592                 3.9607
 Frc consts  --     0.0437                 0.1879                 0.2966
 IR Inten    --     0.0671                 0.0268                 1.8181

                    13                     14                     15
                     A                      A                      A
 Frequencies --   429.9613               431.4697               479.8821
 Red. masses --     3.1932                 3.2454                 5.0998
 Frc consts  --     0.3478                 0.3560                 0.6920
 IR Inten    --     0.0664                 2.2584                 1.9197

                    16                     17                     18
                     A                      A                      A
 Frequencies --   481.4689               518.1977               549.8588
 Red. masses --     3.4867                 6.6741                 5.9786
 Frc consts  --     0.4762                 1.0559                 1.0650
 IR Inten    --     0.1164                 1.2907                 0.7703

                    19                     20                     21
                     A                      A                      A
 Frequencies --   584.8837               631.9575               650.3506
 Red. masses --     3.3928                 6.3070                 3.4755
 Frc consts  --     0.6838                 1.4840                 0.8661
 IR Inten    --     4.7189                 3.9148                 1.9349

                    22                     23                     24
                     A                      A                      A
 Frequencies --   745.4774               748.6752               754.4819
 Red. masses --     1.3299                 6.0577                 1.0918
 Frc consts  --     0.4354                 2.0005                 0.3662
 IR Inten    --     1.4465                15.0165                 4.1537

                    25                     26                     27
                     A                      A                      A
 Frequencies --   788.6408               802.6756               806.5166
 Red. masses --     1.6238                 5.2526                 1.9130
 Frc consts  --     0.5951                 1.9939                 0.7331
 IR Inten    --    42.5504                 1.7747                37.2220

                    28                     29                     30
                     A                      A                      A
 Frequencies --   829.3192               866.2435               880.6406
 Red. masses --     1.1528                 1.4700                 4.4476
 Frc consts  --     0.4672                 0.6499                 2.0322
 IR Inten    --     5.0012                 1.5835                 1.5907

                    31                     32                     33
                     A                      A                      A
 Frequencies --   888.0324               923.1345               955.5023
 Red. masses --     1.5991                 1.9143                 1.2961
 Frc consts  --     0.7430                 0.9612                 0.6972
 IR Inten    --     1.0412                 8.7427                 0.1532

                    34                     35                     36
                     A                      A                      A
 Frequencies --   964.1147               969.9499               990.2205
 Red. masses --     1.2932                 1.1464                 1.2668
 Frc consts  --     0.7082                 0.6355                 0.7318
 IR Inten    --     1.3300                 0.1396                 0.0219

                    37                     38                     39
                     A                      A                      A
 Frequencies --  1018.0221              1043.8302              1054.5148
 Red. masses --     4.6977                 3.4009                 2.4267
 Frc consts  --     2.8685                 2.1832                 1.5899
 IR Inten    --     8.3821                 1.2520                13.5458

                    40                     41                     42
                     A                      A                      A
 Frequencies --  1077.5845              1103.7452              1133.7047
 Red. masses --     2.1775                 2.3704                 2.5781
 Frc consts  --     1.4898                 1.7014                 1.9523
 IR Inten    --     3.8817                33.3974                98.3769

                    43                     44                     45
                     A                      A                      A
 Frequencies --  1152.7676              1179.7709              1190.8163
 Red. masses --     2.5532                 1.3479                 1.1442
 Frc consts  --     1.9990                 1.1053                 0.9560
 IR Inten    --    19.3371                 5.3520                11.8294

                    46                     47                     48
                     A                      A                      A
 Frequencies --  1203.3055              1214.7482              1248.8867
 Red. masses --     1.6259                 1.4256                 2.1879
 Frc consts  --     1.3871                 1.2394                 2.0106
 IR Inten    --     2.0616                15.9126                 6.3012

                    49                     50                     51
                     A                      A                      A
 Frequencies --  1265.6081              1277.4358              1306.7953
 Red. masses --     1.2949                 1.7676                 1.9914
 Frc consts  --     1.2221                 1.6995                 2.0037
 IR Inten    --     0.5468                92.9769               151.6606

                    52                     53                     54
                     A                      A                      A
 Frequencies --  1311.4185              1331.5452              1341.2175
 Red. masses --     1.5370                 1.1284                 1.0780
 Frc consts  --     1.5574                 1.1788                 1.1426
 IR Inten    --    32.4274                 0.0476                 0.1440

                    55                     56                     57
                     A                      A                      A
 Frequencies --  1392.4749              1405.4735              1418.4181
 Red. masses --     3.1822                 1.5090                 4.8452
 Frc consts  --     3.6354                 1.7562                 5.7434
 IR Inten    --     1.9745                 4.0891                 1.0607

                    58                     59                     60
                     A                      A                      A
 Frequencies --  1437.0567              1443.7783              1455.1926
 Red. masses --     1.9974                 1.2725                 1.7221
 Frc consts  --     2.4304                 1.5628                 2.1486
 IR Inten    --   144.6015                 3.9099                 3.8029

                    61                     62                     63
                     A                      A                      A
 Frequencies --  1492.0831              1509.2964              1518.4570
 Red. masses --     2.0878                 2.4243                 1.0651
 Frc consts  --     2.7386                 3.2538                 1.4470
 IR Inten    --    13.8228                33.3190                 0.5661

                    64                     65                     66
                     A                      A                      A
 Frequencies --  1525.9212              1531.3926              1538.8925
 Red. masses --     1.0790                 1.0404                 1.0849
 Frc consts  --     1.4803                 1.4376                 1.5138
 IR Inten    --     0.3626                 6.3282                 4.5798

                    67                     68                     69
                     A                      A                      A
 Frequencies --  1551.6137              1566.9714              1634.0103
 Red. masses --     1.1743                 2.9582                 6.6417
 Frc consts  --     1.6657                 4.2796                10.4481
 IR Inten    --    16.5915                16.6176                78.8304

                    70                     71                     72
                     A                      A                      A
 Frequencies --  1655.6824              1683.6590              3007.0771
 Red. masses --     5.0391                 6.2119                 1.0548
 Frc consts  --     8.1387                10.3749                 5.6198
 IR Inten    --    20.4797                 7.5414                23.8036

                    73                     74                     75
                     A                      A                      A
 Frequencies --  3026.5003              3043.7599              3043.8740
 Red. masses --     1.0594                 1.1075                 1.0436
 Frc consts  --     5.7172                 6.0451                 5.6970
 IR Inten    --    23.7843                23.9389                17.7331

                    76                     77                     78
                     A                      A                      A
 Frequencies --  3048.1892              3052.8535              3091.2253
 Red. masses --     1.0511                 1.1029                 1.1063
 Frc consts  --     5.7540                 6.0560                 6.2284
 IR Inten    --    47.5225                 5.2828                34.7302

                    79                     80                     81
                     A                      A                      A
 Frequencies --  3111.3964              3116.3232              3177.2000
 Red. masses --     1.1031                 1.1020                 1.0859
 Frc consts  --     6.2921                 6.3057                 6.4582
 IR Inten    --    68.5607                40.3867                 1.3643

                    82                     83                     84
                     A                      A                      A
 Frequencies --  3182.7971              3189.6446              3200.3225
 Red. masses --     1.0859                 1.0899                 1.0946
 Frc consts  --     6.4813                 6.5333                 6.6052
 IR Inten    --     1.9658                16.4397                38.5973

                    85                     86                     87
                     A                      A                      A
 Frequencies --  3203.9304              3229.4966              3230.6075
 Red. masses --     1.0952                 1.0915                 1.0925
 Frc consts  --     6.6240                 6.7069                 6.7180
 IR Inten    --    35.4003                15.8357                 7.0600

 - Thermochemistry -
 -------------------
 Temperature   298.150 Kelvin.  Pressure   1.00000 Atm.
 Atom     1 has atomic number  6 and mass  12.00000

 Molecular mass:   200.12012 amu.
 Principal axes and moments of inertia in atomic units:
                           1         2         3
     Eigenvalues --  1402.185346512.194447869.46379
           X            0.99999  -0.00469   0.00001
           Y            0.00469   0.99999  -0.00000
           Z           -0.00001   0.00000   1.00000
 This molecule is an asymmetric top.
 Rotational symmetry number  1.
 Warning -- assumption of classical behavior for rotation
           may cause significant error
 Rotational temperatures (Kelvin)      0.06177     0.01330     0.01101
 Rotational constants (GHZ):           1.28709     0.27713     0.22933
 Zero-point vibrational energy     699224.6 (Joules/Mol)
                                  167.11869 (Kcal/Mol)
 Warning -- explicit consideration of  19 degrees of freedom as
           vibrations may cause significant error
 Vibrational temperatures:     47.71    71.91    93.42   153.07   208.55
          (Kelvin)            220.58   272.74   278.54   340.23   368.06
                              393.67   512.91   618.62   620.79   690.44
                              692.73   745.57   791.12   841.52   909.24
                              935.71  1072.57  1077.18  1085.53  1134.68
                             1154.87  1160.40  1193.20  1246.33  1267.04
                             1277.68  1328.18  1374.75  1387.14  1395.54
                             1424.70  1464.70  1501.84  1517.21  1550.40
                             1588.04  1631.15  1658.57  1697.43  1713.32
                             1731.29  1747.75  1796.87  1820.93  1837.94
                             1880.18  1886.84  1915.79  1929.71  2003.46
                             2022.16  2040.78  2067.60  2077.27  2093.69
                             2146.77  2171.54  2184.72  2195.46  2203.33
                             2214.12  2232.42  2254.52  2350.97  2382.15
                             2422.41  4326.51  4354.45  4379.29  4379.45
                             4385.66  4392.37  4447.58  4476.60  4483.69
                             4571.28  4579.33  4589.18  4604.54  4609.74
                             4646.52  4648.12

 Zero-point correction=                           0.266321 (Hartree/Particle)
 Thermal correction to Energy=                    0.279901
 Thermal correction to Enthalpy=                  0.280845
 Thermal correction to Gibbs Free Energy=         0.224933
 Sum of electronic and zero-point Energies=           -618.095962
 Sum of electronic and thermal Energies=              -618.082382
 Sum of electronic and thermal Enthalpies=            -618.081437
 Sum of electronic and thermal Free Energies=         -618.137349

                     E (Thermal)             CV                S
                      KCal/Mol        Cal/Mol-Kelvin    Cal/Mol-Kelvin
 Total                  175.640             52.558            117.676
 Electronic               0.000              0.000              0.000
 Translational            0.889              2.981             41.786
 Rotational               0.889              2.981             32.641
 Vibrational            173.863             46.596             43.249
 Vibration     1          0.594              1.983              5.631
 Vibration     2          0.595              1.978              4.818
 Vibration     3          0.597              1.971              4.301
 Vibration     4          0.605              1.944              3.334
 Vibration     5          0.616              1.908              2.737
 Vibration     6          0.619              1.899              2.631
 Vibration     7          0.633              1.854              2.232
 Vibration     8          0.635              1.849              2.193
 Vibration     9          0.655              1.785              1.829
 Vibration    10          0.666              1.753              1.690
 Vibration    11          0.676              1.722              1.573
 Vibration    12          0.732              1.562              1.137
 Vibration    13          0.791              1.405              0.859
 Vibration    14          0.793              1.402              0.854
 Vibration    15          0.836              1.295              0.710
 Vibration    16          0.838              1.291              0.706
 Vibration    17          0.873              1.210              0.614
 Vibration    18          0.905              1.140              0.544
 Vibration    19          0.942              1.064              0.476

 Normal termination of Gaussian 09 at Thu Sep 30 19:27:28 2021.
 Gaussian 09:  AM64L-G09RevA.02 11-Jun-2009

 ----------------------------------------------------------------------
 #p TD(NStates=10, Root=1) b3lyp/6-31G* volume pop=NPA density=current
 Geom=AllCheck Guess=Read
 ----------------------------------------------------------------------

 CCCCOc1cccc2c1cccc2_conf_0
 --------------------------
 Redundant internal coordinates taken from checkpoint file:
 C14H16O_b3ed_conf_0.chk
 Charge =  0 Multiplicity = 1

                         Standard orientation:
 ---------------------------------------------------------------------
 Center     Atomic      Atomic             Coordinates (Angstroms)
 Number     Number       Type             X           Y           Z
 ---------------------------------------------------------------------
      1          6           0        5.811027   -0.848557    0.001555
      2          6           0        4.672327    0.176156    0.000062
      3          6           0        3.284079   -0.476836   -0.000092
      4          6           0        2.158374    0.548049   -0.000782
      5          8           0        0.920079   -0.159034   -0.001587
      6          6           0       -0.243841    0.552793   -0.000774
      7          6           0       -0.317509    1.932626   -0.000481
      8          6           0       -1.581055    2.574133    0.000324
      9          6           0       -2.747464    1.849389    0.000776
     10          6           0       -2.704508    0.427480    0.000439
     11          6           0       -1.438676   -0.240310   -0.000333
     12          6           0       -1.400672   -1.658221   -0.000639
     13          6           0       -2.567854   -2.391296   -0.000217
     14          6           0       -3.822085   -1.737306    0.000534
     15          6           0       -3.885577   -0.361602    0.000860
     16          1           0        6.789408   -0.355403    0.001062
     17          1           0        5.762774   -1.495862   -0.882439
     18          1           0        5.762498   -1.493573    0.887200
     19          1           0        4.769863    0.828725   -0.879066
     20          1           0        4.768969    0.830248    0.878165
     21          1           0        3.171914   -1.122367    0.880732
     22          1           0        3.172424   -1.122993   -0.880520
     23          1           0        2.217948    1.193906   -0.889323
     24          1           0        2.216822    1.193869    0.887847
     25          1           0        0.581088    2.538103   -0.000923
     26          1           0       -1.613583    3.660505    0.000560
     27          1           0       -3.712882    2.348595    0.001385
     28          1           0       -0.436179   -2.153415   -0.001219
     29          1           0       -2.526424   -3.477253   -0.000457
     30          1           0       -4.736627   -2.324646    0.000860
     31          1           0       -4.848038    0.144845    0.001446
 ---------------------------------------------------------------------

 SCF Done:  E(RB3LYP) =  -618.362282459     A.U. after    1 cycles

 Excitation energies and oscillator strengths:

 Excited State   1:      Singlet-A      4.2416 eV  292.31 nm  f=0.1038  <S**2>=0.000
      53 -> 56        -0.12753
      54 -> 55         0.68777
 This state for optimization and/or second-order correction.
 Total Energy, E(TD-HF/TD-KS) =  -618.206407955
 Copying the excited state density for this state as the 1-particle RhoCI density.

 Excited State   2:      Singlet-A      4.4437 eV  279.01 nm  f=0.0177  <S**2>=0.000
      53 -> 55         0.41921
      54 -> 56         0.56652

 Excited State   3:      Singlet-A      5.5710 eV  222.55 nm  f=0.0208  <S**2>=0.000
      52 -> 55         0.58597
      53 -> 55        -0.10757
      53 -> 56         0.16092
      54 -> 57         0.31986

 Excited State   4:      Singlet-A      5.7458 eV  215.78 nm  f=0.4738  <S**2>=0.000
      52 -> 56        -0.34579
      53 -> 55         0.44952
      53 -> 57         0.12767
      54 -> 56        -0.34970
      54 -> 57         0.13230

 Excited State   5:      Singlet-A      6.2034 eV  199.87 nm  f=0.2074  <S**2>=0.000
      52 -> 55        -0.25819
      52 -> 56         0.39336
      53 -> 55         0.17366
      53 -> 57        -0.17451
      54 -> 56        -0.10696
      54 -> 57         0.43968

 Excited State   6:      Singlet-A      6.2727 eV  197.66 nm  f=0.2670  <S**2>=0.000
      52 -> 55        -0.13511
      52 -> 57         0.16816
      53 -> 56         0.65140
      54 -> 55         0.12129

 Excited State   7:      Singlet-A      6.3480 eV  195.31 nm  f=0.3776  <S**2>=0.000
      51 -> 55         0.15813
      52 -> 55        -0.21979
      52 -> 56        -0.34697
      53 -> 55        -0.26426
      53 -> 57         0.17310
      54 -> 56         0.19329
      54 -> 57         0.39225

 Excited State   8:      Singlet-A      6.8626 eV  180.67 nm  f=0.0001  <S**2>=0.000
      46 -> 55         0.15863
      50 -> 55         0.68036

 Excited State   9:      Singlet-A      7.0286 eV  176.40 nm  f=0.0017  <S**2>=0.000
      54 -> 58         0.61163
      54 -> 59        -0.32970

 Excited State  10:      Singlet-A      7.0587 eV  175.65 nm  f=0.0034  <S**2>=0.000
      51 -> 55         0.50073
      52 -> 56        -0.10089
      53 -> 57        -0.46102

 The electronic state is 1-A.
 Alpha  occ. eigenvalues --  -19.17561 -10.24469 -10.24159 -10.19129 -10.19025
 Alpha  occ. eigenvalues --  -10.18960 -10.18754 -10.18612 -10.18427 -10.18286
 Alpha  occ. eigenvalues --  -10.18239 -10.18126 -10.18121 -10.17926 -10.17731
 Alpha  occ. eigenvalues --   -1.06225  -0.86270  -0.81312  -0.80270  -0.76445
 Alpha  occ. eigenvalues --   -0.73611  -0.72813  -0.70232  -0.64847  -0.61369
 Alpha  occ. eigenvalues --   -0.60679  -0.58672  -0.57673  -0.52448  -0.50900
 Alpha  occ. eigenvalues --   -0.49418  -0.49355  -0.46781  -0.45090  -0.44756
 Alpha  occ. eigenvalues --   -0.42624  -0.42088  -0.41414  -0.39976  -0.39753
 Alpha  occ. eigenvalues --   -0.39553  -0.37106  -0.37010  -0.35891  -0.34328
 Alpha  occ. eigenvalues --   -0.33994  -0.33842  -0.32958  -0.32933  -0.31633
 Alpha  occ. eigenvalues --   -0.30807  -0.25507  -0.23643  -0.19602
 Alpha virt. eigenvalues --   -0.02487  -0.00156   0.04835   0.08496   0.10052
 Alpha virt. eigenvalues --    0.10894   0.10948   0.11432   0.12334   0.12852
 Alpha virt. eigenvalues --    0.13874   0.14520   0.16443   0.17498   0.17634

 Mulliken atomic charges:
              1
     1  C   -0.441606
     2  C   -0.261070
     3  C   -0.274122
     4  C   -0.043889
     5  O   -0.477813
     6  C    0.314861
     7  C   -0.184995
     8  C   -0.144399
     9  C   -0.173494
    10  C    0.141988
    11  C    0.078370
    12  C   -0.222222
    13  C   -0.135842
    14  C   -0.131047
    15  C   -0.248226
    16  H    0.148603
    17  H    0.148360
    18  H    0.148362
    19  H    0.137128
    20  H    0.137112
    21  H    0.154955
    22  H    0.154968
    23  H    0.152012
    24  H    0.152027
    25  H    0.141750
    26  H    0.135175
    27  H    0.142578
    28  H    0.120828
    29  H    0.113833
    30  H    0.111514
    31  H    0.104302
 Sum of Mulliken atomic charges =  -0.00000

 Dipole moment (field-independent basis, Debye):
    X=              3.7875    Y=              2.4614    Z=              0.0006  Tot=              4.5170
 Quadrupole moment (field-independent basis, Debye-Ang):
   XX=            -82.7501   YY=            -83.8412   ZZ=            -92.9447
   XY=             -2.8878   XZ=             -0.0044   YZ=              0.0011

 Summary of Natural Population Analysis:

                                       Natural Population
                Natural  -----------------------------------------------
    Atom  No    Charge         Core      Valence    Rydberg      Total
 -----------------------------------------------------------------------
      C    1   -0.67296      1.99947     4.66580    0.00769     6.67296
      C    2   -0.45915      1.99935     4.44986    0.00994     6.45915
      C    3   -0.47832      1.99932     4.46615    0.01286     6.47832
      C    4   -0.10570      1.99924     4.09016    0.01631     6.10570
      O    5   -0.46785      1.99973     6.45574    0.01238     8.46785
      C    6    0.36977      1.99875     3.60925    0.02222     5.63023
      C    7   -0.28910      1.99904     4.27695    0.01311     6.28910
      C    8   -0.23624      1.99913     4.22127    0.01584     6.23624
      C    9   -0.15279      1.99904     4.13901    0.01474     6.15279
      C   10   -0.06060      1.99904     4.04620    0.01537     6.06060
      C   11   -0.07325      1.99898     4.05895    0.01531     6.07325
      C   12   -0.29987      1.99907     4.28276    0.01804     6.29987
      C   13   -0.22237      1.99911     4.20756    0.01571     6.22237
      C   14   -0.24394      1.99911     4.22910    0.01574     6.24394
      C   15   -0.29448      1.99906     4.27834    0.01708     6.29448
      H   16    0.23553      0.00000     0.76369    0.00078     0.76447
      H   17    0.22807      0.00000     0.77090    0.00103     0.77193
      H   18    0.22807      0.00000     0.77090    0.00103     0.77193
      H   19    0.22906      0.00000     0.76929    0.00165     0.77094
      H   20    0.22905      0.00000     0.76930    0.00165     0.77095
      H   21    0.24118      0.00000     0.75689    0.00193     0.75882
      H   22    0.24120      0.00000     0.75688    0.00193     0.75880
      H   23    0.21542      0.00000     0.78227    0.00231     0.78458
      H   24    0.21542      0.00000     0.78227    0.00232     0.78458
      H   25    0.23787      0.00000     0.76125    0.00088     0.76213
      H   26    0.23813      0.00000     0.76104    0.00083     0.76187
      H   27    0.23601      0.00000     0.76286    0.00113     0.76399
      H   28    0.23515      0.00000     0.76369    0.00116     0.76485
      H   29    0.22762      0.00000     0.77151    0.00088     0.77238
      H   30    0.22796      0.00000     0.77120    0.00084     0.77204
      H   31    0.22113      0.00000     0.77775    0.00112     0.77887
 =======================================================================
   * Total *   -0.00000     29.98744    77.76879    0.24378   108.00000

 Normal termination of Gaussian 09 at Fri Oct  1 00:12:56 2021.
