 Gaussian 09, Revision A.02,

 -----------------------------------
 #p opt b3lyp/6-31G* scf=(xqc,tight)
 -----------------------------------

 --------------------------------------
 CC(=O)Oc1ccc2c(c1)ccc(c2)C(=O)C_conf_0
 --------------------------------------
 Symbolic Z-matrix:
 Charge =  0 Multiplicity = 1

 SCF Done:  E(RB3LYP) =  -766.407346707     A.U. after   15 cycles
 SCF Done:  E(RB3LYP) =  -766.414141699     A.U. after   13 cycles
 SCF Done:  E(RB3LYP) =  -766.415199138     A.U. after   13 cycles
 SCF Done:  E(RB3LYP) =  -766.415679932     A.U. after   13 cycles
 SCF Done:  E(RB3LYP) =  -766.416094406     A.U. after   13 cycles
 SCF Done:  E(RB3LYP) =  -766.416097739     A.U. after   14 cycles
 SCF Done:  E(RB3LYP) =  -766.416733797     A.U. after   13 cycles
 SCF Done:  E(RB3LYP) =  -766.416782780     A.U. after   12 cycles
 SCF Done:  E(RB3LYP) =  -766.416704934     A.U. after   12 cycles
 SCF Done:  E(RB3LYP) =  -766.416829936     A.U. after   11 cycles
 SCF Done:  E(RB3LYP) =  -766.416972975     A.U. after   12 cycles
 SCF Done:  E(RB3LYP) =  -766.416977051     A.U. after   11 cycles
 SCF Done:  E(RB3LYP) =  -766.416977126     A.U. after    9 cycles
 SCF Done:  E(RB3LYP) =  -766.416976153     A.U. after   16 cycles
 SCF Done:  E(RB3LYP) =  -766.416976650     A.U. after   16 cycles
 SCF Done:  E(RB3LYP) =  -766.416977894     A.U. after   10 cycles
 SCF Done:  E(RB3LYP) =  -766.416977921     A.U. after    7 cycles
 SCF Done:  E(RB3LYP) =  -766.416977957     A.U. after   15 cycles
 Optimization completed.
    -- Stationary point found.
 Normal termination of Gaussian 09 at Wed Sep 29 07:15:55 2021.

 ----------------------------------------------------------------------
 #p freq b3lyp/6-31G* volume NMR pop=NPA density=current Geom=AllCheck
 Guess=Read
 ----------------------------------------------------------------------

 CC(=O)Oc1ccc2c(c1)ccc(c2)C(=O)C_conf_0
 --------------------------------------
 Redundant internal coordinates taken from checkpoint file:
 C14H12O3_d929_conf_0.chk
 Charge =  0 Multiplicity = 1

 SCF Done:  E(RB3LYP) =  -766.416977957     A.U. after    1 cycles

  1  C    Isotropic =   167.8022   Anisotropy =    41.7060

  2  C    Isotropic =    29.4275   Anisotropy =    76.0800

  3  O    Isotropic =   -93.8567   Anisotropy =   559.5205

  4  O    Isotropic =   106.4158   Anisotropy =   179.3015

  5  C    Isotropic =    43.0713   Anisotropy =   107.8561

  6  C    Isotropic =    76.1783   Anisotropy =   135.3913

  7  C    Isotropic =    64.0873   Anisotropy =   148.4254

  8  C    Isotropic =    66.5693   Anisotropy =   192.3132

  9  C    Isotropic =    59.9938   Anisotropy =   196.8549

 10  C    Isotropic =    78.5372   Anisotropy =   130.9504

 11  C    Isotropic =    67.1102   Anisotropy =   142.9565

 12  C    Isotropic =    69.8316   Anisotropy =   159.1689

 13  C    Isotropic =    63.8234   Anisotropy =   154.3618

 14  C    Isotropic =    65.0542   Anisotropy =   162.4943

 15  C    Isotropic =     3.6362   Anisotropy =   150.5062

 16  O    Isotropic =  -260.9644   Anisotropy =   925.6667

 17  C    Isotropic =   163.1203   Anisotropy =    39.4750

 18  H    Isotropic =    30.4715   Anisotropy =     7.5284

 19  H    Isotropic =    29.8913   Anisotropy =     5.8078

 20  H    Isotropic =    29.8912   Anisotropy =     5.8074

 21  H    Isotropic =    25.1848   Anisotropy =     6.5010

 22  H    Isotropic =    24.3806   Anisotropy =     7.0585

 23  H    Isotropic =    23.2861   Anisotropy =    11.4252

 24  H    Isotropic =    24.5643   Anisotropy =     7.8739

 25  H    Isotropic =    24.4483   Anisotropy =     8.5217

 26  H    Isotropic =    23.5799   Anisotropy =     8.4551

 27  H    Isotropic =    29.5717   Anisotropy =     4.4119

 28  H    Isotropic =    29.5717   Anisotropy =     4.4118

 29  H    Isotropic =    30.1857   Anisotropy =     6.5843

  Exact polarizability: 273.487 -11.565 157.261  -0.002  -0.003  63.713
 Approx polarizability: 385.874 -16.132 293.851  -0.006  -0.004  98.897

                     1                      2                      3
                     A                      A                      A
 Frequencies --    16.0929                40.8600                58.6814
 Red. masses --     6.5019                 3.4755                 3.9378
 Frc consts  --     0.0010                 0.0034                 0.0080
 IR Inten    --     3.7263                 1.3751                 2.5456

                     4                      5                      6
                     A                      A                      A
 Frequencies --    78.5313                97.8136               105.3294
 Red. masses --     1.4040                 2.9554                 5.0575
 Frc consts  --     0.0051                 0.0167                 0.0331
 IR Inten    --     0.7371                 1.6502                 3.1609

                     7                      8                      9
                     A                      A                      A
 Frequencies --   174.9448               176.3284               189.5525
 Red. masses --     6.5295                 1.1990                 2.8548
 Frc consts  --     0.1177                 0.0220                 0.0604
 IR Inten    --     1.0531                 0.4145                 0.0057

                    10                     11                     12
                     A                      A                      A
 Frequencies --   200.8946               259.4637               294.1012
 Red. masses --     4.8101                 4.0724                 5.3744
 Frc consts  --     0.1144                 0.1615                 0.2739
 IR Inten    --     0.1111                 0.8399                 7.5571

                    13                     14                     15
                     A                      A                      A
 Frequencies --   342.1268               367.0545               409.7965
 Red. masses --     5.6115                 4.1856                 5.2051
 Frc consts  --     0.3870                 0.3323                 0.5150
 IR Inten    --     0.4270                 4.1366                 0.6595

                    16                     17                     18
                     A                      A                      A
 Frequencies --   412.6443               490.4310               492.7363
 Red. masses --     3.4095                 2.7299                 3.8150
 Frc consts  --     0.3421                 0.3869                 0.5457
 IR Inten    --     0.0102                 8.7131                 4.8641

                    19                     20                     21
                     A                      A                      A
 Frequencies --   522.9947               527.1413               543.1459
 Red. masses --     5.8518                 3.4642                 5.9007
 Frc consts  --     0.9431                 0.5672                 1.0256
 IR Inten    --     0.1701                 0.7013                 2.8096

                    22                     23                     24
                     A                      A                      A
 Frequencies --   585.9214               594.8273               615.4606
 Red. masses --     2.8570                 4.4127                 2.6528
 Frc consts  --     0.5779                 0.9199                 0.5921
 IR Inten    --     3.2312                35.9539                 2.7979

                    25                     26                     27
                     A                      A                      A
 Frequencies --   670.2434               680.1849               683.0998
 Red. masses --     6.0128                 5.6444                 3.4727
 Frc consts  --     1.5915                 1.5386                 0.9548
 IR Inten    --    21.4417                 2.4282                 3.6861

                    28                     29                     30
                     A                      A                      A
 Frequencies --   760.3728               773.9395               823.2545
 Red. masses --     6.2131                 3.3411                 4.5966
 Frc consts  --     2.1165                 1.1791                 1.8355
 IR Inten    --     4.1604                 0.4401                 1.1295

                    31                     32                     33
                     A                      A                      A
 Frequencies --   829.9105               833.5916               909.8732
 Red. masses --     1.3430                 1.5807                 5.8017
 Frc consts  --     0.5450                 0.6472                 2.8299
 IR Inten    --    22.7621                 9.1677                12.5280

                    34                     35                     36
                     A                      A                      A
 Frequencies --   921.8924               940.1303               949.2014
 Red. masses --     1.4412                 5.3061                 1.3585
 Frc consts  --     0.7217                 2.7632                 0.7212
 IR Inten    --    24.2513                29.0143                18.3715

                    37                     38                     39
                     A                      A                      A
 Frequencies --   972.4973               973.6203               983.4306
 Red. masses --     1.3274                 1.3162                 3.2574
 Frc consts  --     0.7396                 0.7351                 1.8561
 IR Inten    --     2.9580                 0.5735                 1.0217

                    40                     41                     42
                     A                      A                      A
 Frequencies --   995.7002              1040.3158              1056.8297
 Red. masses --     2.0643                 1.7832                 1.8662
 Frc consts  --     1.2058                 1.1370                 1.2281
 IR Inten    --    29.9161               103.1739                 1.3846

                    43                     44                     45
                     A                      A                      A
 Frequencies --  1073.1008              1095.6799              1156.6145
 Red. masses --     1.7210                 2.0372                 1.6325
 Frc consts  --     1.1676                 1.4410                 1.2867
 IR Inten    --     7.0592                 0.8769                35.4164

                    46                     47                     48
                     A                      A                      A
 Frequencies --  1181.9716              1194.3146              1224.4423
 Red. masses --     1.5790                 1.2681                 2.3450
 Frc consts  --     1.2997                 1.0657                 2.0714
 IR Inten    --    76.4751                60.5425               347.3108

                    49                     50                     51
                     A                      A                      A
 Frequencies --  1247.5420              1274.7092              1295.8853
 Red. masses --     3.9326                 3.9434                 1.8156
 Frc consts  --     3.6061                 3.7752                 1.7964
 IR Inten    --   592.9389                63.8964                11.4881

                    52                     53                     54
                     A                      A                      A
 Frequencies --  1299.5768              1378.7605              1410.6860
 Red. masses --     2.0309                 1.9123                 1.4190
 Frc consts  --     2.0209                 2.1418                 1.6638
 IR Inten    --   269.4330                 2.4499                38.4366

                    55                     56                     57
                     A                      A                      A
 Frequencies --  1421.4814              1424.0385              1426.9442
 Red. masses --     3.0547                 1.5950                 4.0194
 Frc consts  --     3.6367                 1.9057                 4.8220
 IR Inten    --    27.0482                17.8444                77.3906

                    58                     59                     60
                     A                      A                      A
 Frequencies --  1455.2998              1499.1507              1499.5912
 Red. masses --     4.4753                 1.0492                 1.0643
 Frc consts  --     5.5844                 1.3893                 1.4102
 IR Inten    --     3.9030                13.3644                 7.8809

                    61                     62                     63
                     A                      A                      A
 Frequencies --  1503.6755              1508.6022              1521.1404
 Red. masses --     1.0461                 1.0483                 2.3377
 Frc consts  --     1.3936                 1.4057                 3.1869
 IR Inten    --     8.4993                 9.3302               136.2229

                    64                     65                     66
                     A                      A                      A
 Frequencies --  1555.6316              1622.9610              1652.9328
 Red. masses --     3.6366                 7.4679                 5.7294
 Frc consts  --     5.1851                11.5896                 9.2229
 IR Inten    --    15.2604                20.0885                 1.4418

                    67                     68                     69
                     A                      A                      A
 Frequencies --  1676.6243              1777.4028              1839.4062
 Red. masses --     6.3775                10.5410                11.3357
 Frc consts  --    10.5626                19.6203                22.5971
 IR Inten    --   141.2033               168.7885               179.9101

                    70                     71                     72
                     A                      A                      A
 Frequencies --  3052.7392              3072.7734              3111.8516
 Red. masses --     1.0384                 1.0371                 1.0999
 Frc consts  --     5.7013                 5.7694                 6.2752
 IR Inten    --     2.7315                 1.3309                 9.9243

                    73                     74                     75
                     A                      A                      A
 Frequencies --  3135.4184              3169.8203              3185.6814
 Red. masses --     1.1007                 1.1012                 1.1034
 Frc consts  --     6.3756                 6.5190                 6.5975
 IR Inten    --     4.7688                15.4510                 7.3488

                    76                     77                     78
                     A                      A                      A
 Frequencies --  3190.0338              3195.8454              3211.1671
 Red. masses --     1.0881                 1.0887                 1.0898
 Frc consts  --     6.5237                 6.5513                 6.6211
 IR Inten    --     5.9172                 5.2794                 1.6318

                    79                     80                     81
                     A                      A                      A
 Frequencies --  3215.0540              3222.1453              3282.9247
 Red. masses --     1.0929                 1.0943                 1.0912
 Frc consts  --     6.6560                 6.6940                 6.9292
 IR Inten    --    14.9805                 7.4713                 3.2995

 - Thermochemistry -
 -------------------
 Temperature   298.150 Kelvin.  Pressure   1.00000 Atm.
 Atom     1 has atomic number  6 and mass  12.00000

 Molecular mass:   228.07864 amu.
 Principal axes and moments of inertia in atomic units:
                           1         2         3
     Eigenvalues --  1111.324579251.41827**********
           X            0.99992  -0.01266  -0.00000
           Y            0.01266   0.99992  -0.00001
           Z            0.00000   0.00001   1.00000
 This molecule is an asymmetric top.
 Rotational symmetry number  1.
 Warning -- assumption of classical behavior for rotation
           may cause significant error
 Rotational temperatures (Kelvin)      0.07794     0.00936     0.00838
 Rotational constants (GHZ):           1.62396     0.19508     0.17453
 Zero-point vibrational energy     596090.7 (Joules/Mol)
                                  142.46910 (Kcal/Mol)
 Warning -- explicit consideration of  24 degrees of freedom as
           vibrations may cause significant error
 Vibrational temperatures:     23.15    58.79    84.43   112.99   140.73
          (Kelvin)            151.55   251.71   253.70   272.72   289.04
                              373.31   423.15   492.24   528.11   589.61
                              593.70   705.62   708.94   752.47   758.44
                              781.46   843.01   855.82   885.51   964.33
                              978.63   982.83  1094.01  1113.52  1184.48
                             1194.05  1199.35  1309.10  1326.40  1352.64
                             1365.69  1399.20  1400.82  1414.94  1432.59
                             1496.78  1520.54  1543.95  1576.44  1664.11
                             1700.59  1718.35  1761.70  1794.93  1834.02
                             1864.49  1869.80  1983.73  2029.66  2045.19
                             2048.87  2053.05  2093.85  2156.94  2157.57
                             2163.45  2170.54  2188.58  2238.20  2335.08
                             2378.20  2412.29  2557.28  2646.49  4392.21
                             4421.03  4477.25  4511.16  4560.66  4583.48
                             4589.74  4598.10  4620.15  4625.74  4635.94
                             4723.39

 Zero-point correction=                           0.227039 (Hartree/Particle)
 Thermal correction to Energy=                    0.242206
 Thermal correction to Enthalpy=                  0.243150
 Thermal correction to Gibbs Free Energy=         0.182667
 Sum of electronic and zero-point Energies=           -766.189939
 Sum of electronic and thermal Energies=              -766.174772
 Sum of electronic and thermal Enthalpies=            -766.173828
 Sum of electronic and thermal Free Energies=         -766.234311

                     E (Thermal)             CV                S
                      KCal/Mol        Cal/Mol-Kelvin    Cal/Mol-Kelvin
 Total                  151.986             57.048            127.298
 Electronic               0.000              0.000              0.000
 Translational            0.889              2.981             42.176
 Rotational               0.889              2.981             33.030
 Vibrational            150.209             51.087             52.092
 Vibration     1          0.593              1.986              7.066
 Vibration     2          0.594              1.981              5.217
 Vibration     3          0.596              1.974              4.501
 Vibration     4          0.600              1.964              3.927
 Vibration     5          0.603              1.951              3.497
 Vibration     6          0.605              1.945              3.353
 Vibration     7          0.627              1.873              2.382
 Vibration     8          0.628              1.872              2.367
 Vibration     9          0.633              1.854              2.232
 Vibration    10          0.638              1.839              2.125
 Vibration    11          0.668              1.747              1.665
 Vibration    12          0.689              1.685              1.450
 Vibration    13          0.721              1.591              1.202
 Vibration    14          0.740              1.540              1.092
 Vibration    15          0.774              1.449              0.927
 Vibration    16          0.776              1.443              0.917
 Vibration    17          0.846              1.271              0.682
 Vibration    18          0.848              1.266              0.677
 Vibration    19          0.878              1.199              0.603
 Vibration    20          0.882              1.190              0.594
 Vibration    21          0.898              1.155              0.559
 Vibration    22          0.943              1.062              0.475
 Vibration    23          0.953              1.043              0.459
 Vibration    24          0.975              0.999              0.424

 Optimization completed.
    -- Stationary point found.
 Normal termination of Gaussian 09 at Wed Sep 29 08:33:00 2021.
 Gaussian 09:  AM64L-G09RevA.02 11-Jun-2009

 ----------------------------------------------------------------------
 #p TD(NStates=10, Root=1) b3lyp/6-31G* volume pop=NPA density=current
 Geom=AllCheck Guess=Read
 ----------------------------------------------------------------------

 CC(=O)Oc1ccc2c(c1)ccc(c2)C(=O)C_conf_0
 --------------------------------------
 Redundant internal coordinates taken from checkpoint file:
 C14H12O3_d929_conf_0.chk
 Charge =  0 Multiplicity = 1

                         Standard orientation:
 ---------------------------------------------------------------------
 Center     Atomic      Atomic             Coordinates (Angstroms)
 Number     Number       Type             X           Y           Z
 ---------------------------------------------------------------------
      1          6           0       -5.769547   -0.067638    0.000081
      2          6           0       -4.331153   -0.526439   -0.000122
      3          8           0       -3.961858   -1.675755   -0.000497
      4          8           0       -3.511341    0.568334    0.000202
      5          6           0       -2.119694    0.534184    0.000104
      6          6           0       -1.550272    1.834876    0.000003
      7          6           0       -0.187802    1.989653   -0.000051
      8          6           0        0.673925    0.857278   -0.000001
      9          6           0        0.085435   -0.449074    0.000111
     10          6           0       -1.328389   -0.594362    0.000165
     11          6           0        0.946615   -1.579747    0.000168
     12          6           0        2.313572   -1.428995    0.000115
     13          6           0        2.904148   -0.134448    0.000003
     14          6           0        2.081342    0.980137   -0.000054
     15          6           0        4.387551    0.080366   -0.000062
     16          8           0        4.857031    1.208953   -0.000164
     17          6           0        5.302129   -1.134264    0.000010
     18          1           0       -6.424550   -0.939260   -0.000274
     19          1           0       -5.968920    0.549716   -0.881956
     20          1           0       -5.968897    0.548963    0.882652
     21          1           0       -2.219377    2.689190   -0.000030
     22          1           0        0.249495    2.984540   -0.000131
     23          1           0       -1.768951   -1.580222    0.000237
     24          1           0        0.504765   -2.572881    0.000251
     25          1           0        2.944534   -2.312205    0.000159
     26          1           0        2.542742    1.963516   -0.000139
     27          1           0        5.126491   -1.760448   -0.883086
     28          1           0        5.126526   -1.760318    0.883205
     29          1           0        6.338316   -0.791998   -0.000038
 ---------------------------------------------------------------------

 SCF Done:  E(RB3LYP) =  -766.416977957     A.U. after    1 cycles

 Excitation energies and oscillator strengths:

 Excited State   1:      Singlet-A      3.6635 eV  338.43 nm  f=0.0000  <S**2>=0.000
      59 -> 61         0.66081
      59 -> 62         0.17853
      59 -> 63         0.13087
 This state for optimization and/or second-order correction.
 Total Energy, E(TD-HF/TD-KS) =  -766.282345651
 Copying the excited state density for this state as the 1-particle RhoCI density.

 Excited State   2:      Singlet-A      3.9110 eV  317.02 nm  f=0.0953  <S**2>=0.000
      58 -> 61        -0.22156
      58 -> 62         0.14027
      60 -> 61         0.63457
      60 -> 62         0.15471

 Excited State   3:      Singlet-A      4.1913 eV  295.82 nm  f=0.0718  <S**2>=0.000
      58 -> 61         0.47160
      60 -> 61         0.26949
      60 -> 62        -0.44246

 Excited State   4:      Singlet-A      4.9077 eV  252.63 nm  f=0.0000  <S**2>=0.000
      59 -> 61        -0.20364
      59 -> 62         0.66775

 Excited State   5:      Singlet-A      5.0609 eV  244.99 nm  f=0.7167  <S**2>=0.000
      58 -> 61         0.44092
      58 -> 62         0.10854
      60 -> 62         0.49428
      60 -> 63         0.13458

 Excited State   6:      Singlet-A      5.1651 eV  240.04 nm  f=0.0003  <S**2>=0.000
      57 -> 61         0.62530
      57 -> 63        -0.31826

 Excited State   7:      Singlet-A      5.1737 eV  239.65 nm  f=0.0753  <S**2>=0.000
      56 -> 61         0.11509
      58 -> 61        -0.11356
      58 -> 62        -0.21499
      60 -> 63         0.64209

 Excited State   8:      Singlet-A      5.4447 eV  227.72 nm  f=0.3712  <S**2>=0.000
      56 -> 61         0.19410
      56 -> 62         0.10051
      58 -> 62         0.54657
      58 -> 63         0.18317
      60 -> 61        -0.10892
      60 -> 62        -0.12457
      60 -> 63         0.17006
      60 -> 64         0.10082
      60 -> 65         0.19825

 Excited State   9:      Singlet-A      5.5877 eV  221.89 nm  f=0.0039  <S**2>=0.000
      55 -> 61         0.11622
      56 -> 61         0.57532
      58 -> 62        -0.17282
      60 -> 63        -0.16818
      60 -> 64        -0.28086

 Excited State  10:      Singlet-A      5.8297 eV  212.68 nm  f=0.0001  <S**2>=0.000
      59 -> 61        -0.13940
      59 -> 62        -0.10787
      59 -> 63         0.64093
      59 -> 64        -0.15564
      59 -> 65        -0.17216

 The electronic state is 1-A.
 Alpha  occ. eigenvalues --  -19.21585 -19.15381 -19.13192 -10.33629 -10.27394
 Alpha  occ. eigenvalues --  -10.26731 -10.21109 -10.20717 -10.20642 -10.20488
 Alpha  occ. eigenvalues --  -10.20328 -10.20222 -10.20042 -10.19967 -10.19867
 Alpha  occ. eigenvalues --  -10.19640 -10.18818  -1.12005  -1.03911  -1.03138
 Alpha  occ. eigenvalues --   -0.88360  -0.83654  -0.78636  -0.78055  -0.75425
 Alpha  occ. eigenvalues --   -0.73499  -0.72572  -0.66948  -0.63096  -0.61012
 Alpha  occ. eigenvalues --   -0.59610  -0.54769  -0.52378  -0.50719  -0.50433
 Alpha  occ. eigenvalues --   -0.48680  -0.48043  -0.46404  -0.45471  -0.45196
 Alpha  occ. eigenvalues --   -0.44144  -0.43212  -0.42714  -0.42205  -0.41784
 Alpha  occ. eigenvalues --   -0.41209  -0.40246  -0.39342  -0.38208  -0.37982
 Alpha  occ. eigenvalues --   -0.36610  -0.35794  -0.35289  -0.34122  -0.31635
 Alpha  occ. eigenvalues --   -0.29017  -0.28337  -0.24713  -0.24593  -0.22266
 Alpha virt. eigenvalues --   -0.06320  -0.03536  -0.00958   0.02551   0.03264
 Alpha virt. eigenvalues --    0.08792   0.10114   0.10401   0.11207   0.12145
 Alpha virt. eigenvalues --    0.13714   0.14834   0.15432   0.16323   0.16940

 Mulliken atomic charges:
              1
     1  C   -0.524251
     2  C    0.597332
     3  O   -0.449399
     4  O   -0.512746
     5  C    0.321523
     6  C   -0.176850
     7  C   -0.200750
     8  C    0.155901
     9  C    0.125486
    10  C   -0.248962
    11  C   -0.199759
    12  C   -0.194853
    13  C    0.102090
    14  C   -0.289343
    15  C    0.328425
    16  O   -0.296103
    17  C   -0.517861
    18  H    0.182313
    19  H    0.183604
    20  H    0.183607
    21  H    0.136133
    22  H    0.127883
    23  H    0.181945
    24  H    0.134237
    25  H    0.117599
    26  H    0.134668
    27  H    0.204635
    28  H    0.204635
    29  H    0.188859
 Sum of Mulliken atomic charges =  -0.00000

 Dipole moment (field-independent basis, Debye):
    X=              2.3328    Y=             -0.2705    Z=              0.0007  Tot=              2.3485
 Quadrupole moment (field-independent basis, Debye-Ang):
   XX=            -68.9397   YY=            -94.7719   ZZ=            -99.4982
   XY=            -16.2664   XZ=             -0.0022   YZ=             -0.0026

 Summary of Natural Population Analysis:

                                       Natural Population
                Natural  -----------------------------------------------
    Atom  No    Charge         Core      Valence    Rydberg      Total
 -----------------------------------------------------------------------
      C    1   -0.77371      1.99934     4.76781    0.00656     6.77371
      C    2    0.83062      1.99945     3.12759    0.04234     5.16938
      O    3   -0.58907      1.99977     6.56926    0.02004     8.58907
      O    4   -0.54026      1.99969     6.52939    0.01118     8.54026
      C    5    0.27883      1.99873     3.70144    0.02099     5.72117
      C    6   -0.25188      1.99904     4.23876    0.01408     6.25188
      C    7   -0.21515      1.99906     4.20294    0.01316     6.21515
      C    8   -0.05813      1.99902     4.04478    0.01432     6.05813
      C    9   -0.05425      1.99902     4.04097    0.01427     6.05425
      C   10   -0.26683      1.99898     4.25505    0.01279     6.26683
      C   11   -0.21450      1.99906     4.20159    0.01386     6.21450
      C   12   -0.22006      1.99905     4.20842    0.01260     6.22006
      C   13   -0.17173      1.99889     4.15802    0.01483     6.17173
      C   14   -0.22044      1.99901     4.20738    0.01405     6.22044
      C   15    0.40407      1.99928     3.56441    0.03224     5.59593
      O   16   -0.24430      1.99981     6.22643    0.01805     8.24430
      C   17   -0.71102      1.99932     4.70494    0.00676     6.71102
      H   18    0.25606      0.00000     0.74300    0.00095     0.74394
      H   19    0.25753      0.00000     0.74164    0.00083     0.74247
      H   20    0.25753      0.00000     0.74164    0.00083     0.74247
      H   21    0.24576      0.00000     0.75311    0.00113     0.75424
      H   22    0.23505      0.00000     0.76396    0.00099     0.76495
      H   23    0.26799      0.00000     0.73043    0.00157     0.73201
      H   24    0.23933      0.00000     0.75970    0.00098     0.76067
      H   25    0.22991      0.00000     0.76911    0.00098     0.77009
      H   26    0.23475      0.00000     0.76436    0.00089     0.76525
      H   27    0.26683      0.00000     0.73232    0.00085     0.73317
      H   28    0.26683      0.00000     0.73232    0.00085     0.73317
      H   29    0.26023      0.00000     0.73867    0.00110     0.73977
 =======================================================================
   * Total *    0.00000     33.98652    85.71944    0.29404   120.00000

 Normal termination of Gaussian 09 at Wed Sep 29 13:39:12 2021.
