 Gaussian 09, Revision A.02,

 -----------------------------------
 #p opt b3lyp/6-31G* scf=(xqc,tight)
 -----------------------------------

 --------------------------------------
 COc1ccc2c(c1)ccc(c2)[Si](C)(C)C_conf_0
 --------------------------------------
 Symbolic Z-matrix:
 Charge =  0 Multiplicity = 1

 SCF Done:  E(RB3LYP) =  -909.087965348     A.U. after   14 cycles
 SCF Done:  E(RB3LYP) =  -909.092544426     A.U. after   12 cycles
 SCF Done:  E(RB3LYP) =  -909.092816881     A.U. after   15 cycles
 SCF Done:  E(RB3LYP) =  -909.092835957     A.U. after    8 cycles
 SCF Done:  E(RB3LYP) =  -909.092840521     A.U. after    8 cycles
 SCF Done:  E(RB3LYP) =  -909.092843038     A.U. after    7 cycles
 SCF Done:  E(RB3LYP) =  -909.092845889     A.U. after    8 cycles
 SCF Done:  E(RB3LYP) =  -909.092847256     A.U. after    7 cycles
 SCF Done:  E(RB3LYP) =  -909.092847455     A.U. after   16 cycles
 Optimization completed.
    -- Stationary point found.
 Normal termination of Gaussian 09 at Tue Sep 28 14:31:40 2021.

 ----------------------------------------------------------------------
 #p freq b3lyp/6-31G* volume NMR pop=NPA density=current Geom=AllCheck
 Guess=Read
 ----------------------------------------------------------------------

 COc1ccc2c(c1)ccc(c2)[Si](C)(C)C_conf_0
 --------------------------------------
 Redundant internal coordinates taken from checkpoint file:
 C14H18OSi_95fa_conf_0.chk
 Charge =  0 Multiplicity = 1

 SCF Done:  E(RB3LYP) =  -909.092847455     A.U. after    1 cycles

  1  C    Isotropic =   137.3561   Anisotropy =    65.4534

  2  O    Isotropic =   233.9707   Anisotropy =    82.3705

  3  C    Isotropic =    39.8502   Anisotropy =   123.4825

  4  C    Isotropic =    76.8158   Anisotropy =   133.8008

  5  C    Isotropic =    65.8737   Anisotropy =   142.7845

  6  C    Isotropic =    68.4180   Anisotropy =   190.1381

  7  C    Isotropic =    61.5114   Anisotropy =   195.6013

  8  C    Isotropic =    90.1527   Anisotropy =   117.6836

  9  C    Isotropic =    70.1255   Anisotropy =   139.1401

 10  C    Isotropic =    64.5576   Anisotropy =   166.4339

 11  C    Isotropic =    62.9769   Anisotropy =   191.2291

 12  C    Isotropic =    60.8720   Anisotropy =   150.4546

 13  Si   Isotropic =   410.6946   Anisotropy =    33.7729

 14  C    Isotropic =   189.0190   Anisotropy =     6.6890

 15  C    Isotropic =   189.0204   Anisotropy =     6.6880

 16  C    Isotropic =   191.6735   Anisotropy =     4.1403

 17  H    Isotropic =    28.2123   Anisotropy =     8.3096

 18  H    Isotropic =    28.5236   Anisotropy =     7.9788

 19  H    Isotropic =    28.5233   Anisotropy =     7.9798

 20  H    Isotropic =    25.2527   Anisotropy =     6.3131

 21  H    Isotropic =    24.7081   Anisotropy =     7.6062

 22  H    Isotropic =    25.6768   Anisotropy =     9.4641

 23  H    Isotropic =    24.7352   Anisotropy =     7.9974

 24  H    Isotropic =    24.5901   Anisotropy =     9.9719

 25  H    Isotropic =    24.5287   Anisotropy =    12.0334

 26  H    Isotropic =    31.7647   Anisotropy =     9.3009

 27  H    Isotropic =    32.0858   Anisotropy =     8.5127

 28  H    Isotropic =    31.9961   Anisotropy =    10.0875

 29  H    Isotropic =    31.7648   Anisotropy =     9.3005

 30  H    Isotropic =    31.9960   Anisotropy =    10.0871

 31  H    Isotropic =    32.0857   Anisotropy =     8.5145

 32  H    Isotropic =    31.7136   Anisotropy =     9.0522

 33  H    Isotropic =    31.7138   Anisotropy =     9.0543

 34  H    Isotropic =    31.9884   Anisotropy =     9.8377

  Exact polarizability: 277.170   7.542 168.227  -0.001  -0.000  95.862
 Approx polarizability: 386.049  25.474 290.964   0.001   0.000 139.428

                     1                      2                      3
                     A                      A                      A
 Frequencies --    25.3169                44.2723                88.8187
 Red. masses --     3.2548                 3.9722                 3.4549
 Frc consts  --     0.0012                 0.0046                 0.0161
 IR Inten    --     0.0877                 0.5816                 0.1264

                     4                      5                      6
                     A                      A                      A
 Frequencies --    93.6341               133.2226               148.7345
 Red. masses --     3.2218                 3.6068                 1.0240
 Frc consts  --     0.0166                 0.0377                 0.0133
 IR Inten    --     1.8857                 0.9347                 0.0000

                     7                      8                      9
                     A                      A                      A
 Frequencies --   162.5169               170.0726               174.2517
 Red. masses --     1.0664                 1.0475                 3.0372
 Frc consts  --     0.0166                 0.0179                 0.0543
 IR Inten    --     0.2196                 0.0231                 1.2008

                    10                     11                     12
                     A                      A                      A
 Frequencies --   176.6660               183.6651               196.5763
 Red. masses --     2.6257                 2.7737                 2.8483
 Frc consts  --     0.0483                 0.0551                 0.0648
 IR Inten    --     0.1292                 0.3949                 0.4582

                    13                     14                     15
                     A                      A                      A
 Frequencies --   210.8930               230.3757               267.6263
 Red. masses --     2.7631                 1.7188                 3.3917
 Frc consts  --     0.0724                 0.0537                 0.1431
 IR Inten    --     0.9527                 2.5752                 2.4275

                    16                     17                     18
                     A                      A                      A
 Frequencies --   270.1259               338.4827               370.9877
 Red. masses --     1.8196                 4.4579                 4.7923
 Frc consts  --     0.0782                 0.3009                 0.3886
 IR Inten    --     3.1720                25.2825                 1.0379

                    19                     20                     21
                     A                      A                      A
 Frequencies --   382.9424               408.2992               481.8656
 Red. masses --     4.1053                 3.4248                 4.8254
 Frc consts  --     0.3547                 0.3364                 0.6601
 IR Inten    --     3.6002                 0.0393                 0.4827

                    22                     23                     24
                     A                      A                      A
 Frequencies --   489.9193               530.6819               537.1845
 Red. masses --     2.6420                 6.5051                 4.6131
 Frc consts  --     0.3736                 1.0794                 0.7843
 IR Inten    --     5.4590                 4.2991                 1.4341

                    25                     26                     27
                     A                      A                      A
 Frequencies --   572.6412               614.7004               664.6149
 Red. masses --     3.3007                 3.8875                 6.4618
 Frc consts  --     0.6377                 0.8655                 1.6817
 IR Inten    --     1.7968                 8.8296                11.9480

                    28                     29                     30
                     A                      A                      A
 Frequencies --   668.0426               689.0653               691.5224
 Red. masses --     3.5202                 2.6167                 2.4306
 Frc consts  --     0.9256                 0.7320                 0.6848
 IR Inten    --     1.3851                10.5736                 7.8355

                    31                     32                     33
                     A                      A                      A
 Frequencies --   699.1479               743.5309               771.0027
 Red. masses --     1.1743                 5.8126                 2.6382
 Frc consts  --     0.3382                 1.8933                 0.9240
 IR Inten    --     0.0854                10.0981                 0.9411

                    34                     35                     36
                     A                      A                      A
 Frequencies --   777.6027               788.5485               818.2082
 Red. masses --     1.5666                 1.4946                 3.7750
 Frc consts  --     0.5581                 0.5476                 1.4890
 IR Inten    --    14.0424                25.7030                 4.3555

                    37                     38                     39
                     A                      A                      A
 Frequencies --   818.9816               832.2788               872.2459
 Red. masses --     1.4153                 1.4855                 1.6302
 Frc consts  --     0.5593                 0.6063                 0.7308
 IR Inten    --     0.1186                20.3543                59.1526

                    40                     41                     42
                     A                      A                      A
 Frequencies --   881.6849               883.4581               890.8271
 Red. masses --     1.5795                 1.5804                 1.7445
 Frc consts  --     0.7234                 0.7267                 0.8156
 IR Inten    --    70.7297                69.5398               300.9007

                    43                     44                     45
                     A                      A                      A
 Frequencies --   926.7049               940.9802               966.5839
 Red. masses --     1.4120                 4.3028                 1.2956
 Frc consts  --     0.7145                 2.2447                 0.7132
 IR Inten    --     2.4281                21.9461                 0.2098

                    46                     47                     48
                     A                      A                      A
 Frequencies --   970.9751               979.8180              1074.7027
 Red. masses --     1.2997                 3.7523                 4.6355
 Frc consts  --     0.7220                 2.1224                 3.1545
 IR Inten    --     0.1846                16.1761                52.9974

                    49                     50                     51
                     A                      A                      A
 Frequencies --  1117.4719              1162.0155              1185.7503
 Red. masses --     2.6673                 1.5087                 1.2729
 Frc consts  --     1.9624                 1.2003                 1.0545
 IR Inten    --    50.3432                52.2489                 0.7809

                    52                     53                     54
                     A                      A                      A
 Frequencies --  1195.8996              1207.6912              1231.8785
 Red. masses --     1.3472                 1.4944                 1.6838
 Frc consts  --     1.1352                 1.2842                 1.5055
 IR Inten    --     1.5734                30.1352                12.7186

                    55                     56                     57
                     A                      A                      A
 Frequencies --  1261.0916              1302.3473              1310.8131
 Red. masses --     2.2460                 1.9460                 2.1976
 Frc consts  --     2.1045                 1.9447                 2.2247
 IR Inten    --   129.0215                87.9029                76.3793

                    58                     59                     60
                     A                      A                      A
 Frequencies --  1326.2818              1326.6115              1337.7729
 Red. masses --     1.2572                 1.2434                 1.2198
 Frc consts  --     1.3029                 1.2893                 1.2862
 IR Inten    --    29.5955                27.8985                11.7117

                    61                     62                     63
                     A                      A                      A
 Frequencies --  1368.2314              1407.1504              1436.3774
 Red. masses --     2.0664                 3.7199                 3.1229
 Frc consts  --     2.2792                 4.3398                 3.7962
 IR Inten    --    16.2136                 2.5373                52.2640

                    64                     65                     66
                     A                      A                      A
 Frequencies --  1443.7708              1488.9327              1490.6973
 Red. masses --     5.2015                 1.0546                 1.0536
 Frc consts  --     6.3882                 1.3775                 1.3794
 IR Inten    --    13.7996                 0.0204                 0.1304

                    67                     68                     69
                     A                      A                      A
 Frequencies --  1492.1512              1494.2564              1500.8974
 Red. masses --     1.0561                 1.2576                 1.0569
 Frc consts  --     1.3854                 1.6544                 1.4028
 IR Inten    --     1.1300                31.5246                 4.9395

                    70                     71                     72
                     A                      A                      A
 Frequencies --  1502.4694              1509.3768              1519.0240
 Red. masses --     1.0487                 1.0472                 1.0479
 Frc consts  --     1.3948                 1.4057                 1.4246
 IR Inten    --     3.9721                 3.6172                 5.6791

                    73                     74                     75
                     A                      A                      A
 Frequencies --  1530.9273              1533.5426              1548.7233
 Red. masses --     1.6181                 1.3801                 2.5665
 Frc consts  --     2.2344                 1.9123                 3.6269
 IR Inten    --   100.2770                 4.2594                14.4751

                    76                     77                     78
                     A                      A                      A
 Frequencies --  1620.0937              1652.6247              1682.3924
 Red. masses --     6.5659                 5.3723                 5.9863
 Frc consts  --    10.1537                 8.6449                 9.9830
 IR Inten    --     6.2162                20.1804               156.4340

                    79                     80                     81
                     A                      A                      A
 Frequencies --  3025.8909              3040.1152              3040.8608
 Red. masses --     1.0346                 1.0353                 1.0353
 Frc consts  --     5.5813                 5.6378                 5.6402
 IR Inten    --    54.8569                 7.3790                10.8673

                    82                     83                     84
                     A                      A                      A
 Frequencies --  3043.1915              3084.4822              3110.2869
 Red. masses --     1.0354                 1.1066                 1.1006
 Frc consts  --     5.6493                 6.2031                 6.2728
 IR Inten    --     5.0477                42.4235                 0.3768

                    85                     86                     87
                     A                      A                      A
 Frequencies --  3111.5345              3113.8596              3116.3191
 Red. masses --     1.1004                 1.0998                 1.1010
 Frc consts  --     6.2770                 6.2831                 6.2997
 IR Inten    --     7.4642                52.2317                 0.5064

                    88                     89                     90
                     A                      A                      A
 Frequencies --  3117.4418              3117.6049              3158.2766
 Red. masses --     1.1005                 1.1005                 1.0999
 Frc consts  --     6.3015                 6.3019                 6.4640
 IR Inten    --    22.6427                23.2394                31.6487

                    91                     92                     93
                     A                      A                      A
 Frequencies --  3161.5833              3169.8038              3182.7754
 Red. masses --     1.0856                 1.0889                 1.0943
 Frc consts  --     6.3935                 6.4460                 6.5312
 IR Inten    --     9.4005                12.8529                33.7583

                    94                     95                     96
                     A                      A                      A
 Frequencies --  3184.8017              3216.0183              3216.5800
 Red. masses --     1.0885                 1.0894                 1.0937
 Frc consts  --     6.5049                 6.6386                 6.6672
 IR Inten    --     8.2132                14.5564                11.0528

 - Thermochemistry -
 -------------------
 Temperature   298.150 Kelvin.  Pressure   1.00000 Atm.
 Atom     1 has atomic number  6 and mass  12.00000

 Molecular mass:   230.11269 amu.
 Principal axes and moments of inertia in atomic units:
                           1         2         3
     Eigenvalues --  1353.918468918.066669681.48659
           X            0.99997  -0.00790  -0.00000
           Y            0.00790   0.99997  -0.00000
           Z            0.00000   0.00000   1.00000
 This molecule is an asymmetric top.
 Rotational symmetry number  1.
 Warning -- assumption of classical behavior for rotation
           may cause significant error
 Rotational temperatures (Kelvin)      0.06397     0.00971     0.00895
 Rotational constants (GHZ):           1.33298     0.20237     0.18641
 Zero-point vibrational energy     742005.8 (Joules/Mol)
                                  177.34365 (Kcal/Mol)
 Warning -- explicit consideration of  26 degrees of freedom as
           vibrations may cause significant error
 Vibrational temperatures:     36.43    63.70   127.79   134.72   191.68
          (Kelvin)            214.00   233.83   244.70   250.71   254.18
                              264.25   282.83   303.43   331.46   385.05
                              388.65   487.00   533.77   550.97   587.45
                              693.30   704.88   763.53   772.89   823.90
                              884.42   956.23   961.16   991.41   994.95
                             1005.92  1069.77  1109.30  1118.80  1134.54
                             1177.22  1178.33  1197.46  1254.97  1268.55
                             1271.10  1281.70  1333.32  1353.86  1390.70
                             1397.01  1409.74  1546.26  1607.79  1671.88
                             1706.03  1720.63  1737.60  1772.40  1814.43
                             1873.78  1885.97  1908.22  1908.70  1924.75
                             1968.58  2024.57  2066.62  2077.26  2142.24
                             2144.78  2146.87  2149.90  2159.45  2161.72
                             2171.65  2185.53  2202.66  2206.42  2228.26
                             2330.95  2377.76  2420.58  4353.58  4374.04
                             4375.12  4378.47  4437.88  4475.00  4476.80
                             4480.14  4483.68  4485.30  4485.53  4544.05
                             4548.81  4560.63  4579.30  4582.21  4627.13
                             4627.94

 Zero-point correction=                           0.282615 (Hartree/Particle)
 Thermal correction to Energy=                    0.300011
 Thermal correction to Enthalpy=                  0.300955
 Thermal correction to Gibbs Free Energy=         0.237562
 Sum of electronic and zero-point Energies=           -908.810232
 Sum of electronic and thermal Energies=              -908.792837
 Sum of electronic and thermal Enthalpies=            -908.791893
 Sum of electronic and thermal Free Energies=         -908.855285

                     E (Thermal)             CV                S
                      KCal/Mol        Cal/Mol-Kelvin    Cal/Mol-Kelvin
 Total                  188.259             66.055            133.421
 Electronic               0.000              0.000              0.000
 Translational            0.889              2.981             42.202
 Rotational               0.889              2.981             33.124
 Vibrational            186.482             60.093             58.094
 Vibration     1          0.593              1.985              6.166
 Vibration     2          0.595              1.980              5.058
 Vibration     3          0.602              1.957              3.686
 Vibration     4          0.603              1.954              3.583
 Vibration     5          0.613              1.920              2.899
 Vibration     6          0.618              1.904              2.688
 Vibration     7          0.623              1.888              2.520
 Vibration     8          0.625              1.879              2.435
 Vibration     9          0.627              1.874              2.389
 Vibration    10          0.628              1.871              2.363
 Vibration    11          0.631              1.862              2.291
 Vibration    12          0.636              1.845              2.165
 Vibration    13          0.643              1.824              2.036
 Vibration    14          0.652              1.795              1.876
 Vibration    15          0.673              1.733              1.611
 Vibration    16          0.674              1.728              1.595
 Vibration    17          0.719              1.599              1.219
 Vibration    18          0.743              1.532              1.076
 Vibration    19          0.752              1.507              1.028
 Vibration    20          0.773              1.452              0.933
 Vibration    21          0.838              1.290              0.705
 Vibration    22          0.846              1.272              0.684
 Vibration    23          0.886              1.182              0.586
 Vibration    24          0.892              1.168              0.571
 Vibration    25          0.929              1.090              0.499
 Vibration    26          0.974              1.001              0.425

 Optimization completed.
    -- Stationary point found.
 Normal termination of Gaussian 09 at Tue Sep 28 14:44:52 2021.
 Gaussian 09:  AM64L-G09RevA.02 11-Jun-2009

 ----------------------------------------------------------------------
 #p TD(NStates=10, Root=1) b3lyp/6-31G* volume pop=NPA density=current
 Geom=AllCheck Guess=Read
 ----------------------------------------------------------------------

 COc1ccc2c(c1)ccc(c2)[Si](C)(C)C_conf_0
 --------------------------------------
 Redundant internal coordinates taken from checkpoint file:
 C14H18OSi_95fa_conf_0.chk
 Charge =  0 Multiplicity = 1

                         Standard orientation:
 ---------------------------------------------------------------------
 Center     Atomic      Atomic             Coordinates (Angstroms)
 Number     Number       Type             X           Y           Z
 ---------------------------------------------------------------------
      1          6           0        5.542982   -0.989384   -0.000194
      2          8           0        4.920859    0.285266    0.000095
      3          6           0        3.557348    0.332695    0.000061
      4          6           0        3.013213    1.647518    0.000052
      5          6           0        1.654964    1.833194    0.000039
      6          6           0        0.759157    0.726903    0.000031
      7          6           0        1.310553   -0.592459    0.000037
      8          6           0        2.721691   -0.766895    0.000058
      9          6           0        0.412498   -1.693128    0.000031
     10          6           0       -0.949231   -1.494488    0.000024
     11          6           0       -1.524346   -0.187429    0.000018
     12          6           0       -0.650577    0.889858    0.000023
     13         14           0       -3.403055    0.028335    0.000031
     14          6           0       -4.130843   -0.795560   -1.544807
     15          6           0       -4.130925   -0.795087    1.545067
     16          6           0       -3.848623    1.868641   -0.000405
     17          1           0        6.617837   -0.799335   -0.000382
     18          1           0        5.275001   -1.567392   -0.894627
     19          1           0        5.275366   -1.567625    0.894201
     20          1           0        3.704026    2.484889    0.000050
     21          1           0        1.244759    2.840440    0.000027
     22          1           0        3.116952   -1.776930    0.000081
     23          1           0        0.819748   -2.702167    0.000033
     24          1           0       -1.602333   -2.365540    0.000020
     25          1           0       -1.036543    1.907762    0.000021
     26          1           0       -3.869215   -1.859203   -1.598300
     27          1           0       -3.759478   -0.319156   -2.459773
     28          1           0       -5.225663   -0.724441   -1.551546
     29          1           0       -3.869218   -1.858694    1.598893
     30          1           0       -5.225756   -0.724065    1.551555
     31          1           0       -3.759791   -0.318395    2.459971
     32          1           0       -3.459036    2.384126   -0.886246
     33          1           0       -3.459811    2.384528    0.885537
     34          1           0       -4.938113    1.996098   -0.000922
 ---------------------------------------------------------------------

 SCF Done:  E(RB3LYP) =  -909.092847455     A.U. after    1 cycles

 Excitation energies and oscillator strengths:

 Excited State   1:      Singlet-A      4.1958 eV  295.49 nm  f=0.0410  <S**2>=0.000
      61 -> 63         0.22251
      61 -> 64         0.18757
      62 -> 63         0.59343
      62 -> 64        -0.24291
 This state for optimization and/or second-order correction.
 Total Energy, E(TD-HF/TD-KS) =  -908.938652921
 Copying the excited state density for this state as the 1-particle RhoCI density.

 Excited State   2:      Singlet-A      4.4781 eV  276.87 nm  f=0.0175  <S**2>=0.000
      61 -> 63         0.45963
      62 -> 63        -0.33221
      62 -> 64        -0.41373

 Excited State   3:      Singlet-A      5.5103 eV  225.00 nm  f=1.1165  <S**2>=0.000
      60 -> 63         0.13107
      61 -> 63         0.41850
      61 -> 64         0.19253
      62 -> 64         0.47252
      62 -> 65        -0.17273

 Excited State   4:      Singlet-A      5.6691 eV  218.70 nm  f=0.0818  <S**2>=0.000
      60 -> 63        -0.37051
      61 -> 64         0.51771
      61 -> 65        -0.11817
      62 -> 63        -0.12128
      62 -> 65         0.19714

 Excited State   5:      Singlet-A      5.8307 eV  212.64 nm  f=0.4869  <S**2>=0.000
      58 -> 63         0.12939
      60 -> 63        -0.24696
      60 -> 64        -0.12719
      61 -> 63         0.21191
      61 -> 64        -0.26045
      62 -> 64         0.18548
      62 -> 65         0.48075

 Excited State   6:      Singlet-A      5.9882 eV  207.05 nm  f=0.0021  <S**2>=0.000
      59 -> 63         0.69749

 Excited State   7:      Singlet-A      6.1325 eV  202.18 nm  f=0.1106  <S**2>=0.000
      58 -> 63         0.10746
      58 -> 64         0.14859
      60 -> 63         0.37537
      60 -> 64        -0.26699
      61 -> 64         0.26299
      61 -> 65         0.31284
      62 -> 65         0.25189

 Excited State   8:      Singlet-A      6.3368 eV  195.66 nm  f=0.0063  <S**2>=0.000
      58 -> 63         0.44774
      60 -> 63         0.26296
      60 -> 64         0.14159
      61 -> 65        -0.44078

 Excited State   9:      Singlet-A      6.5002 eV  190.74 nm  f=0.0010  <S**2>=0.000
      55 -> 63        -0.13045
      57 -> 63         0.68673

 Excited State  10:      Singlet-A      6.5585 eV  189.04 nm  f=0.0010  <S**2>=0.000
      58 -> 63         0.42690
      60 -> 63        -0.24140
      60 -> 64        -0.35693
      61 -> 65         0.10079
      62 -> 65        -0.32939

 The electronic state is 1-A.
 Alpha  occ. eigenvalues --  -66.11403 -19.17906 -10.24704 -10.24131 -10.19485
 Alpha  occ. eigenvalues --  -10.19011 -10.18824 -10.18600 -10.18525 -10.18501
 Alpha  occ. eigenvalues --  -10.18279 -10.18242 -10.16763 -10.15812 -10.15598
 Alpha  occ. eigenvalues --  -10.15597  -5.25850  -3.61743  -3.61721  -3.61706
 Alpha  occ. eigenvalues --   -1.06474  -0.86447  -0.81141  -0.76608  -0.74562
 Alpha  occ. eigenvalues --   -0.71514  -0.70676  -0.68954  -0.67226  -0.67016
 Alpha  occ. eigenvalues --   -0.61636  -0.59483  -0.59048  -0.52743  -0.50782
 Alpha  occ. eigenvalues --   -0.50345  -0.46863  -0.46225  -0.45368  -0.44314
 Alpha  occ. eigenvalues --   -0.42946  -0.41597  -0.41007  -0.40459  -0.40219
 Alpha  occ. eigenvalues --   -0.39625  -0.38855  -0.38378  -0.38279  -0.37760
 Alpha  occ. eigenvalues --   -0.37517  -0.36477  -0.34870  -0.34205  -0.32054
 Alpha  occ. eigenvalues --   -0.30291  -0.29312  -0.28848  -0.28669  -0.27160
 Alpha  occ. eigenvalues --   -0.22424  -0.20317
 Alpha virt. eigenvalues --   -0.03021  -0.00469   0.03913   0.07719   0.09270
 Alpha virt. eigenvalues --    0.09440   0.09822   0.10479   0.11611   0.12165
 Alpha virt. eigenvalues --    0.12203   0.13242   0.14330   0.14598   0.14824

 Mulliken atomic charges:
              1
     1  C   -0.226765
     2  O   -0.465084
     3  C    0.380606
     4  C   -0.196524
     5  C   -0.210818
     6  C    0.169593
     7  C    0.130565
     8  C   -0.267552
     9  C   -0.199668
    10  C   -0.205099
    11  C   -0.013541
    12  C   -0.286369
    13  Si   0.671082
    14  C   -0.655179
    15  C   -0.655169
    16  C   -0.664827
    17  H    0.179627
    18  H    0.168181
    19  H    0.168179
    20  H    0.126122
    21  H    0.124152
    22  H    0.133922
    23  H    0.112959
    24  H    0.111768
    25  H    0.121333
    26  H    0.161587
    27  H    0.163919
    28  H    0.155843
    29  H    0.161594
    30  H    0.155846
    31  H    0.163918
    32  H    0.162537
    33  H    0.162532
    34  H    0.160732
 Sum of Mulliken atomic charges =  -0.00000

 Dipole moment (field-independent basis, Debye):
    X=              1.8265    Y=             -1.4820    Z=             -0.0003  Tot=              2.3522
 Quadrupole moment (field-independent basis, Debye-Ang):
   XX=            -82.5276   YY=            -97.8195   ZZ=           -106.5247
   XY=             -9.8782   XZ=             -0.0023   YZ=              0.0000

 Summary of Natural Population Analysis:

                                       Natural Population
                Natural  -----------------------------------------------
    Atom  No    Charge         Core      Valence    Rydberg      Total
 -----------------------------------------------------------------------
      C    1   -0.32504      1.99943     4.31144    0.01417     6.32504
      O    2   -0.45683      1.99975     6.44528    0.01179     8.45683
      C    3    0.36874      1.99880     3.60983    0.02262     5.63126
      C    4   -0.33904      1.99905     4.32258    0.01741     6.33904
      C    5   -0.22142      1.99907     4.20705    0.01529     6.22142
      C    6   -0.04133      1.99902     4.02682    0.01549     6.04133
      C    7   -0.04157      1.99903     4.02665    0.01588     6.04157
      C    8   -0.28341      1.99899     4.27141    0.01301     6.28341
      C    9   -0.23025      1.99905     4.21563    0.01556     6.23025
      C   10   -0.27457      1.99910     4.25839    0.01708     6.27457
      C   11   -0.44571      1.99904     4.42271    0.02395     6.44571
      C   12   -0.23316      1.99904     4.21769    0.01642     6.23316
     Si   13    1.81354      9.99815     2.15405    0.03427    12.18646
      C   14   -1.19178      1.99949     5.18282    0.00947     7.19178
      C   15   -1.19179      1.99949     5.18282    0.00947     7.19179
      C   16   -1.20151      1.99950     5.19360    0.00841     7.20151
      H   17    0.23325      0.00000     0.76624    0.00051     0.76675
      H   18    0.21343      0.00000     0.78486    0.00171     0.78657
      H   19    0.21343      0.00000     0.78486    0.00171     0.78657
      H   20    0.24147      0.00000     0.75748    0.00105     0.75853
      H   21    0.23212      0.00000     0.76679    0.00108     0.76788
      H   22    0.23295      0.00000     0.76583    0.00122     0.76705
      H   23    0.22437      0.00000     0.77443    0.00120     0.77563
      H   24    0.22286      0.00000     0.77602    0.00112     0.77714
      H   25    0.22429      0.00000     0.77425    0.00147     0.77571
      H   26    0.25081      0.00000     0.74837    0.00083     0.74919
      H   27    0.25264      0.00000     0.74661    0.00075     0.74736
      H   28    0.24744      0.00000     0.75168    0.00088     0.75256
      H   29    0.25081      0.00000     0.74836    0.00083     0.74919
      H   30    0.24744      0.00000     0.75168    0.00088     0.75256
      H   31    0.25264      0.00000     0.74661    0.00075     0.74736
      H   32    0.25155      0.00000     0.74766    0.00079     0.74845
      H   33    0.25155      0.00000     0.74766    0.00079     0.74845
      H   34    0.25203      0.00000     0.74725    0.00072     0.74797
 =======================================================================
   * Total *   -0.00000     39.98601    83.73541    0.27858   124.00000

 Normal termination of Gaussian 09 at Tue Sep 28 15:14:19 2021.
