 Gaussian 09, Revision A.02,

 -----------------------------------
 #p opt b3lyp/6-31G* scf=(xqc,tight)
 -----------------------------------

 ------------------------------------
 O=C(OC(C)(C)C)Oc1cccc2c1cccc2_conf_0
 ------------------------------------
 Symbolic Z-matrix:
 Charge =  0 Multiplicity = 1

 SCF Done:  E(RB3LYP) =  -806.932077489     A.U. after   15 cycles
 SCF Done:  E(RB3LYP) =  -806.938714782     A.U. after   12 cycles
 SCF Done:  E(RB3LYP) =  -806.934660639     A.U. after   16 cycles
 SCF Done:  E(RB3LYP) =  -806.939407855     A.U. after   16 cycles
 SCF Done:  E(RB3LYP) =  -806.939890992     A.U. after   11 cycles
 SCF Done:  E(RB3LYP) =  -806.940015657     A.U. after   11 cycles
 SCF Done:  E(RB3LYP) =  -806.940047277     A.U. after   11 cycles
 SCF Done:  E(RB3LYP) =  -806.940073058     A.U. after   11 cycles
 SCF Done:  E(RB3LYP) =  -806.940095706     A.U. after   11 cycles
 SCF Done:  E(RB3LYP) =  -806.940107114     A.U. after   11 cycles
 SCF Done:  E(RB3LYP) =  -806.940111199     A.U. after   10 cycles
 SCF Done:  E(RB3LYP) =  -806.940113356     A.U. after   10 cycles
 SCF Done:  E(RB3LYP) =  -806.940113856     A.U. after    8 cycles
 SCF Done:  E(RB3LYP) =  -806.940113900     A.U. after    7 cycles
 SCF Done:  E(RB3LYP) =  -806.940113896     A.U. after    7 cycles
 Optimization completed.
    -- Stationary point found.
 Normal termination of Gaussian 09 at Wed Sep 29 17:25:13 2021.

 ----------------------------------------------------------------------
 #p freq b3lyp/6-31G* volume NMR pop=NPA density=current Geom=AllCheck
 Guess=Read
 ----------------------------------------------------------------------

 O=C(OC(C)(C)C)Oc1cccc2c1cccc2_conf_0
 ------------------------------------
 Redundant internal coordinates taken from checkpoint file:
 C15H16O3_e078_conf_0.chk
 Charge =  0 Multiplicity = 1

 SCF Done:  E(RB3LYP) =  -806.940113896     A.U. after    1 cycles

  1  O    Isotropic =    52.1197   Anisotropy =   372.2129

  2  C    Isotropic =    45.5000   Anisotropy =    92.9013

  3  O    Isotropic =   143.0158   Anisotropy =    69.9083

  4  C    Isotropic =   108.6685   Anisotropy =    72.4584

  5  C    Isotropic =   165.2853   Anisotropy =    35.3687

  6  C    Isotropic =   159.2665   Anisotropy =    41.5755

  7  C    Isotropic =   165.1108   Anisotropy =    34.8089

  8  O    Isotropic =   142.0411   Anisotropy =   152.0810

  9  C    Isotropic =    48.2171   Anisotropy =    96.9257

 10  C    Isotropic =    77.0319   Anisotropy =   148.6480

 11  C    Isotropic =    70.5401   Anisotropy =   158.6492

 12  C    Isotropic =    71.0186   Anisotropy =   141.7492

 13  C    Isotropic =    62.5617   Anisotropy =   195.1872

 14  C    Isotropic =    69.8183   Anisotropy =   178.7780

 15  C    Isotropic =    72.7120   Anisotropy =   163.8839

 16  C    Isotropic =    70.4965   Anisotropy =   162.1256

 17  C    Isotropic =    70.1898   Anisotropy =   162.7028

 18  C    Isotropic =    68.0829   Anisotropy =   145.2229

 19  H    Isotropic =    30.8483   Anisotropy =     7.0080

 20  H    Isotropic =    29.4197   Anisotropy =     6.3667

 21  H    Isotropic =    31.1219   Anisotropy =     8.3579

 22  H    Isotropic =    30.6081   Anisotropy =     7.5509

 23  H    Isotropic =    30.6122   Anisotropy =     7.0966

 24  H    Isotropic =    31.0966   Anisotropy =     8.0356

 25  H    Isotropic =    29.5471   Anisotropy =     5.4266

 26  H    Isotropic =    30.9236   Anisotropy =     7.0873

 27  H    Isotropic =    31.1708   Anisotropy =     8.4228

 28  H    Isotropic =    24.7001   Anisotropy =     9.3192

 29  H    Isotropic =    24.7973   Anisotropy =     5.1999

 30  H    Isotropic =    24.7267   Anisotropy =     6.1835

 31  H    Isotropic =    24.0075   Anisotropy =    10.3202

 32  H    Isotropic =    24.7470   Anisotropy =     6.0504

 33  H    Isotropic =    24.7698   Anisotropy =     4.9436

 34  H    Isotropic =    24.5765   Anisotropy =     6.6464

  Exact polarizability: 219.137  -9.575 192.241  10.671  -0.346  86.255
 Approx polarizability: 304.857 -19.322 334.079  21.532   6.145 134.026

                     1                      2                      3
                     A                      A                      A
 Frequencies --    16.0450                31.8778                65.3653
 Red. masses --     3.7763                 4.5371                 4.4731
 Frc consts  --     0.0006                 0.0027                 0.0113
 IR Inten    --     0.0787                 0.8369                 0.6994

                     4                      5                      6
                     A                      A                      A
 Frequencies --    80.3354               117.2303               144.7205
 Red. masses --     5.5640                 3.9165                 4.2261
 Frc consts  --     0.0212                 0.0317                 0.0521
 IR Inten    --     0.8957                 0.0605                 0.8324

                     7                      8                      9
                     A                      A                      A
 Frequencies --   179.1867               203.1682               204.5435
 Red. masses --     4.1242                 1.3316                 2.3427
 Frc consts  --     0.0780                 0.0324                 0.0577
 IR Inten    --     1.5138                 0.6044                 2.0581

                    10                     11                     12
                     A                      A                      A
 Frequencies --   221.6659               258.1069               267.4506
 Red. masses --     4.6311                 1.0767                 1.0824
 Frc consts  --     0.1341                 0.0423                 0.0456
 IR Inten    --     0.5459                 0.1868                 0.0805

                    13                     14                     15
                     A                      A                      A
 Frequencies --   289.9750               298.2722               332.2058
 Red. masses --     4.6030                 3.9978                 3.8065
 Frc consts  --     0.2280                 0.2096                 0.2475
 IR Inten    --     0.9776                 6.9178                15.4971

                    16                     17                     18
                     A                      A                      A
 Frequencies --   349.0443               421.6320               432.9209
 Red. masses --     2.5212                 3.0126                 3.2119
 Frc consts  --     0.1810                 0.3155                 0.3547
 IR Inten    --     1.3161                 1.0303                 1.8599

                    19                     20                     21
                     A                      A                      A
 Frequencies --   448.1573               455.1950               459.8780
 Red. masses --     3.1545                 3.7748                 3.0746
 Frc consts  --     0.3733                 0.4608                 0.3831
 IR Inten    --     3.6378                 3.3907                 2.4844

                    22                     23                     24
                     A                      A                      A
 Frequencies --   479.2222               525.9421               535.8711
 Red. masses --     3.4424                 5.9992                 6.4346
 Frc consts  --     0.4658                 0.9777                 1.0887
 IR Inten    --     0.1174                 0.2075                 0.6155

                    25                     26                     27
                     A                      A                      A
 Frequencies --   577.6858               617.6655               642.1204
 Red. masses --     3.6340                 5.5188                 3.9894
 Frc consts  --     0.7145                 1.2405                 0.9691
 IR Inten    --     4.2796                 2.2606                 0.4502

                    28                     29                     30
                     A                      A                      A
 Frequencies --   719.5028               745.2359               755.2214
 Red. masses --     5.5791                 2.0979                 2.6194
 Frc consts  --     1.7017                 0.6865                 0.8802
 IR Inten    --    18.3166                 2.9955                 1.8073

                    31                     32                     33
                     A                      A                      A
 Frequencies --   770.4879               787.1590               796.8847
 Red. masses --    11.6540                 2.5121                 2.4919
 Frc consts  --     4.0762                 0.9171                 0.9323
 IR Inten    --    18.7289                21.8654                27.6611

                    34                     35                     36
                     A                      A                      A
 Frequencies --   805.3385               815.8961               874.4300
 Red. masses --     3.8991                 1.9503                 3.1652
 Frc consts  --     1.4899                 0.7649                 1.4259
 IR Inten    --     9.6240                29.3168                38.5627

                    37                     38                     39
                     A                      A                      A
 Frequencies --   880.7633               899.2317               910.7964
 Red. masses --     1.9313                 2.6159                 1.9633
 Frc consts  --     0.8827                 1.2463                 0.9596
 IR Inten    --     0.9401                20.0803                11.9663

                    40                     41                     42
                     A                      A                      A
 Frequencies --   934.1026               937.4930               960.8811
 Red. masses --     1.6359                 1.6258                 1.3146
 Frc consts  --     0.8410                 0.8419                 0.7151
 IR Inten    --     0.0948                 1.3765                 0.4875

                    43                     44                     45
                     A                      A                      A
 Frequencies --   972.2382               983.3023               995.3800
 Red. masses --     1.2953                 1.1987                 1.2705
 Frc consts  --     0.7214                 0.6829                 0.7417
 IR Inten    --     1.3890                 0.1724                 0.0625

                    46                     47                     48
                     A                      A                      A
 Frequencies --  1007.7961              1051.5504              1064.7986
 Red. masses --     6.3542                 2.4842                 1.4056
 Frc consts  --     3.8024                 1.6185                 0.9389
 IR Inten    --    18.3329                 9.4309                 0.3810

                    49                     50                     51
                     A                      A                      A
 Frequencies --  1072.0220              1093.2080              1129.5267
 Red. masses --     1.4980                 2.2390                 2.8858
 Frc consts  --     1.0143                 1.5766                 2.1693
 IR Inten    --     4.7731                 8.8994                52.6491

                    52                     53                     54
                     A                      A                      A
 Frequencies --  1179.3855              1189.8464              1200.2346
 Red. masses --     1.4058                 1.2677                 1.5282
 Frc consts  --     1.1521                 1.0574                 1.2970
 IR Inten    --    72.8994               216.4025               470.2734

                    55                     56                     57
                     A                      A                      A
 Frequencies --  1214.0754              1250.9128              1269.2748
 Red. masses --     1.7859                 2.1661                 2.1879
 Frc consts  --     1.5510                 1.9970                 2.0767
 IR Inten    --   244.3671                 2.2268               113.0235

                    58                     59                     60
                     A                      A                      A
 Frequencies --  1285.0439              1286.9090              1295.9210
 Red. masses --     2.7090                 2.7679                 2.2883
 Frc consts  --     2.6356                 2.7009                 2.2643
 IR Inten    --    17.7077               478.9584                 4.7221

                    61                     62                     63
                     A                      A                      A
 Frequencies --  1311.8234              1395.3930              1418.5005
 Red. masses --     3.9053                 3.6096                 7.2968
 Frc consts  --     3.9596                 4.1410                 8.6505
 IR Inten    --   465.0156                 1.4026                 5.9055

                    64                     65                     66
                     A                      A                      A
 Frequencies --  1426.1318              1428.5950              1437.9517
 Red. masses --     1.2772                 1.2885                 2.0465
 Frc consts  --     1.5305                 1.5493                 2.4932
 IR Inten    --    17.6516                22.5617                26.9702

                    67                     68                     69
                     A                      A                      A
 Frequencies --  1454.4576              1492.0083              1500.4598
 Red. masses --     1.2353                 2.1517                 1.0466
 Frc consts  --     1.5396                 2.8221                 1.3883
 IR Inten    --    17.0382                 3.3809                 0.4789

                    70                     71                     72
                     A                      A                      A
 Frequencies --  1510.7799              1518.5058              1520.1061
 Red. masses --     2.4752                 1.0464                 1.0516
 Frc consts  --     3.3286                 1.4216                 1.4317
 IR Inten    --    10.1952                 0.4029                 0.6048

                    73                     74                     75
                     A                      A                      A
 Frequencies --  1526.7604              1533.4453              1555.2580
 Red. masses --     1.0653                 1.0527                 1.0550
 Frc consts  --     1.4630                 1.4585                 1.5035
 IR Inten    --    10.5746                 1.0729                14.6312

                    76                     77                     78
                     A                      A                      A
 Frequencies --  1564.1728              1630.9453              1658.8783
 Red. masses --     3.4929                 7.0614                 5.1018
 Frc consts  --     5.0351                11.0668                 8.2718
 IR Inten    --     8.5415                12.6525                19.9037

                    79                     80                     81
                     A                      A                      A
 Frequencies --  1687.2701              1827.6646              3059.8540
 Red. masses --     6.3580                12.0944                 1.0360
 Frc consts  --    10.6645                23.8029                 5.7151
 IR Inten    --     2.3914               223.0226                 9.3045

                    82                     83                     84
                     A                      A                      A
 Frequencies --  3060.8991              3068.2543              3123.3180
 Red. masses --     1.0374                 1.0379                 1.1026
 Frc consts  --     5.7264                 5.7566                 6.3375
 IR Inten    --    18.5810                18.5975                 7.0828

                    85                     86                     87
                     A                      A                      A
 Frequencies --  3125.6246              3138.1088              3138.3605
 Red. masses --     1.1024                 1.1034                 1.1025
 Frc consts  --     6.3455                 6.4018                 6.3977
 IR Inten    --    15.3717                25.5771                45.2368

                    88                     89                     90
                     A                      A                      A
 Frequencies --  3167.0120              3170.4199              3180.0862
 Red. masses --     1.1004                 1.0998                 1.0862
 Frc consts  --     6.5030                 6.5133                 6.4720
 IR Inten    --     1.4489                13.8406                 0.8389

                    91                     92                     93
                     A                      A                      A
 Frequencies --  3186.1264              3192.0721              3205.6541
 Red. masses --     1.0870                 1.0897                 1.0947
 Frc consts  --     6.5013                 6.5420                 6.6277
 IR Inten    --     2.0770                17.6470                32.9237

                    94                     95                     96
                     A                      A                      A
 Frequencies --  3206.7799              3228.3595              3250.7696
 Red. masses --     1.0949                 1.0932                 1.0927
 Frc consts  --     6.6339                 6.7131                 6.8033
 IR Inten    --    27.9347                 8.1200                 2.8143

 - Thermochemistry -
 -------------------
 Temperature   298.150 Kelvin.  Pressure   1.00000 Atm.
 Atom     1 has atomic number  8 and mass  15.99491

 Molecular mass:   244.10994 amu.
 Principal axes and moments of inertia in atomic units:
                           1         2         3
     Eigenvalues --  1930.690298364.780639734.11999
           X            0.99999   0.00429   0.00042
           Y           -0.00429   0.99998  -0.00482
           Z           -0.00044   0.00482   0.99999
 This molecule is an asymmetric top.
 Rotational symmetry number  1.
 Warning -- assumption of classical behavior for rotation
           may cause significant error
 Rotational temperatures (Kelvin)      0.04486     0.01035     0.00890
 Rotational constants (GHZ):           0.93476     0.21575     0.18540
 Zero-point vibrational energy     733856.0 (Joules/Mol)
                                  175.39579 (Kcal/Mol)
 Warning -- explicit consideration of  26 degrees of freedom as
           vibrations may cause significant error
 Vibrational temperatures:     23.09    45.86    94.05   115.58   168.67
          (Kelvin)            208.22   257.81   292.31   294.29   318.93
                              371.36   384.80   417.21   429.15   477.97
                              502.20   606.63   622.88   644.80   654.92
                              661.66   689.49   756.71   771.00   831.16
                              888.68   923.87  1035.20  1072.23  1086.59
                             1108.56  1132.54  1146.54  1158.70  1173.89
                             1258.11  1267.22  1293.79  1310.43  1343.96
                             1348.84  1382.49  1398.83  1414.75  1432.13
                             1449.99  1512.94  1532.01  1542.40  1572.88
                             1625.13  1696.87  1711.92  1726.87  1746.78
                             1799.78  1826.20  1848.89  1851.57  1864.54
                             1887.42  2007.66  2040.90  2051.88  2055.43
                             2068.89  2092.64  2146.66  2158.82  2173.67
                             2184.79  2187.09  2196.66  2206.28  2237.67
                             2250.49  2346.56  2386.75  2427.60  2629.60
                             4402.44  4403.95  4414.53  4493.75  4497.07
                             4515.03  4515.40  4556.62  4561.52  4575.43
                             4584.12  4592.67  4612.22  4613.84  4644.88
                             4677.13

 Zero-point correction=                           0.279511 (Hartree/Particle)
 Thermal correction to Energy=                    0.295848
 Thermal correction to Enthalpy=                  0.296792
 Thermal correction to Gibbs Free Energy=         0.234530
 Sum of electronic and zero-point Energies=           -806.660603
 Sum of electronic and thermal Energies=              -806.644266
 Sum of electronic and thermal Enthalpies=            -806.643322
 Sum of electronic and thermal Free Energies=         -806.705584

                     E (Thermal)             CV                S
                      KCal/Mol        Cal/Mol-Kelvin    Cal/Mol-Kelvin
 Total                  185.647             63.744            131.042
 Electronic               0.000              0.000              0.000
 Translational            0.889              2.981             42.378
 Rotational               0.889              2.981             33.419
 Vibrational            183.870             57.783             55.245
 Vibration     1          0.593              1.986              7.072
 Vibration     2          0.594              1.983              5.709
 Vibration     3          0.597              1.971              4.288
 Vibration     4          0.600              1.963              3.883
 Vibration     5          0.608              1.935              3.146
 Vibration     6          0.616              1.908              2.741
 Vibration     7          0.629              1.868              2.337
 Vibration     8          0.639              1.835              2.104
 Vibration     9          0.640              1.833              2.092
 Vibration    10          0.648              1.808              1.945
 Vibration    11          0.667              1.749              1.675
 Vibration    12          0.673              1.733              1.613
 Vibration    13          0.686              1.692              1.474
 Vibration    14          0.691              1.677              1.427
 Vibration    15          0.714              1.611              1.249
 Vibration    16          0.726              1.577              1.171
 Vibration    17          0.784              1.423              0.886
 Vibration    18          0.794              1.399              0.849
 Vibration    19          0.807              1.365              0.801
 Vibration    20          0.814              1.349              0.780
 Vibration    21          0.818              1.339              0.766
 Vibration    22          0.836              1.296              0.712
 Vibration    23          0.881              1.193              0.596
 Vibration    24          0.891              1.171              0.574
 Vibration    25          0.934              1.080              0.490
 Vibration    26          0.977              0.995              0.420

 Optimization completed.
    -- Stationary point found.
 Normal termination of Gaussian 09 at Wed Sep 29 19:01:14 2021.
 Gaussian 09:  AM64L-G09RevA.02 11-Jun-2009

 ----------------------------------------------------------------------
 #p TD(NStates=10, Root=1) b3lyp/6-31G* volume pop=NPA density=current
 Geom=AllCheck Guess=Read
 ----------------------------------------------------------------------

 O=C(OC(C)(C)C)Oc1cccc2c1cccc2_conf_0
 ------------------------------------
 Redundant internal coordinates taken from checkpoint file:
 C15H16O3_e078_conf_0.chk
 Charge =  0 Multiplicity = 1

                         Standard orientation:
 ---------------------------------------------------------------------
 Center     Atomic      Atomic             Coordinates (Angstroms)
 Number     Number       Type             X           Y           Z
 ---------------------------------------------------------------------
      1          8           0       -1.565355    1.252468    0.807087
      2          6           0       -1.454381    0.347117    0.013777
      3          8           0       -2.398164   -0.481443   -0.434518
      4          6           0       -3.796438   -0.354740    0.032620
      5          6           0       -4.357207    1.011533   -0.372296
      6          6           0       -4.495103   -1.481492   -0.731075
      7          6           0       -3.863136   -0.592916    1.543780
      8          8           0       -0.304127   -0.030412   -0.610031
      9          6           0        0.901838    0.614436   -0.332805
     10          6           0        1.026253    1.983465   -0.316182
     11          6           0        2.299470    2.560929   -0.098674
     12          6           0        3.410583    1.771389    0.086255
     13          6           0        3.302625    0.355411    0.062430
     14          6           0        2.020115   -0.247890   -0.151239
     15          6           0        1.913040   -1.664054   -0.176000
     16          6           0        3.027991   -2.450921    0.007104
     17          6           0        4.297541   -1.861039    0.220228
     18          6           0        4.428861   -0.491401    0.246269
     19          1           0       -4.247152    1.164096   -1.451489
     20          1           0       -3.849455    1.820951    0.154952
     21          1           0       -5.425027    1.053216   -0.130961
     22          1           0       -4.057374   -2.451435   -0.474878
     23          1           0       -4.398908   -1.334128   -1.811350
     24          1           0       -5.559671   -1.501702   -0.475864
     25          1           0       -3.346087    0.195588    2.093086
     26          1           0       -3.412321   -1.558394    1.797746
     27          1           0       -4.910889   -0.613064    1.863261
     28          1           0        0.155297    2.611044   -0.454397
     29          1           0        2.388212    3.643437   -0.081107
     30          1           0        4.386428    2.220690    0.252058
     31          1           0        0.940106   -2.112115   -0.344735
     32          1           0        2.935242   -3.533432   -0.012715
     33          1           0        5.168648   -2.494951    0.362289
     34          1           0        5.401818   -0.033668    0.408637
 ---------------------------------------------------------------------

 SCF Done:  E(RB3LYP) =  -806.940113896     A.U. after    1 cycles

 Excitation energies and oscillator strengths:

 Excited State   1:      Singlet-A      4.3302 eV  286.33 nm  f=0.1114  <S**2>=0.000
      64 -> 67         0.14006
      65 -> 66         0.68846
 This state for optimization and/or second-order correction.
 Total Energy, E(TD-HF/TD-KS) =  -806.780982328
 Copying the excited state density for this state as the 1-particle RhoCI density.

 Excited State   2:      Singlet-A      4.4807 eV  276.71 nm  f=0.0009  <S**2>=0.000
      64 -> 66        -0.48271
      65 -> 67         0.51478

 Excited State   3:      Singlet-A      5.5998 eV  221.41 nm  f=0.0023  <S**2>=0.000
      63 -> 66         0.51524
      65 -> 68         0.46296
      65 -> 69        -0.12058

 Excited State   4:      Singlet-A      5.8325 eV  212.58 nm  f=0.3494  <S**2>=0.000
      62 -> 66         0.51900
      62 -> 68         0.10781
      64 -> 66         0.31414
      65 -> 67         0.28092
      65 -> 68         0.14398

 Excited State   5:      Singlet-A      5.9430 eV  208.62 nm  f=0.1440  <S**2>=0.000
      62 -> 66        -0.27578
      63 -> 66        -0.30949
      64 -> 67        -0.14633
      65 -> 68         0.44542
      65 -> 69         0.27995

 Excited State   6:      Singlet-A      6.0436 eV  205.15 nm  f=0.5616  <S**2>=0.000
      62 -> 66        -0.33119
      63 -> 66         0.17090
      63 -> 67        -0.18872
      64 -> 66         0.36455
      65 -> 67         0.35608
      65 -> 68        -0.15973
      65 -> 69        -0.12097

 Excited State   7:      Singlet-A      6.2528 eV  198.29 nm  f=0.1690  <S**2>=0.000
      63 -> 66        -0.10069
      63 -> 67         0.14776
      63 -> 68        -0.13513
      64 -> 67         0.62086
      64 -> 68         0.11770
      65 -> 66        -0.11453

 Excited State   8:      Singlet-A      6.2611 eV  198.02 nm  f=0.1220  <S**2>=0.000
      62 -> 66        -0.10240
      63 -> 67         0.48351
      64 -> 66         0.13135
      64 -> 67        -0.20041
      64 -> 68         0.37051
      64 -> 69        -0.13298
      65 -> 67         0.11459

 Excited State   9:      Singlet-A      6.4671 eV  191.72 nm  f=0.0175  <S**2>=0.000
      59 -> 66        -0.11248
      60 -> 66        -0.25553
      63 -> 66         0.23940
      65 -> 68        -0.11870
      65 -> 69         0.56608

 Excited State  10:      Singlet-A      6.6516 eV  186.40 nm  f=0.0067  <S**2>=0.000
      61 -> 66         0.67530
      65 -> 69        -0.11497

 The electronic state is 1-A.
 Alpha  occ. eigenvalues --  -19.20381 -19.19241 -19.13789 -10.36468 -10.26457
 Alpha  occ. eigenvalues --  -10.25233 -10.19980 -10.19906 -10.19265 -10.19078
 Alpha  occ. eigenvalues --  -10.19051 -10.19011 -10.18979 -10.18886 -10.18849
 Alpha  occ. eigenvalues --  -10.18387 -10.18041 -10.17970  -1.14043  -1.05616
 Alpha  occ. eigenvalues --   -1.02243  -0.87209  -0.82362  -0.81484  -0.77220
 Alpha  occ. eigenvalues --   -0.74187  -0.72250  -0.69934  -0.69814  -0.66769
 Alpha  occ. eigenvalues --   -0.62150  -0.61761  -0.59280  -0.55153  -0.51970
 Alpha  occ. eigenvalues --   -0.51433  -0.50221  -0.49189  -0.48302  -0.47979
 Alpha  occ. eigenvalues --   -0.45747  -0.45245  -0.44322  -0.42892  -0.42766
 Alpha  occ. eigenvalues --   -0.42036  -0.41292  -0.40328  -0.39560  -0.39320
 Alpha  occ. eigenvalues --   -0.38487  -0.37384  -0.37289  -0.36419  -0.35995
 Alpha  occ. eigenvalues --   -0.34712  -0.34254  -0.33660  -0.32870  -0.31649
 Alpha  occ. eigenvalues --   -0.30266  -0.28202  -0.27295  -0.24274  -0.21036
 Alpha virt. eigenvalues --   -0.03718  -0.00789   0.02759   0.04726   0.07957
 Alpha virt. eigenvalues --    0.09085   0.09939   0.10255   0.11171   0.13488
 Alpha virt. eigenvalues --    0.14417   0.14974   0.15294   0.15940   0.16389

 Mulliken atomic charges:
              1
     1  O   -0.479016
     2  C    0.796080
     3  O   -0.487726
     4  C    0.304111
     5  C   -0.469126
     6  C   -0.449994
     7  C   -0.468466
     8  O   -0.501047
     9  C    0.267041
    10  C   -0.136126
    11  C   -0.147293
    12  C   -0.183705
    13  C    0.134599
    14  C    0.096094
    15  C   -0.199783
    16  C   -0.132331
    17  C   -0.127836
    18  C   -0.218486
    19  H    0.152567
    20  H    0.185901
    21  H    0.148193
    22  H    0.158731
    23  H    0.159016
    24  H    0.148331
    25  H    0.188475
    26  H    0.153309
    27  H    0.147382
    28  H    0.157427
    29  H    0.139808
    30  H    0.137096
    31  H    0.144999
    32  H    0.128822
    33  H    0.127081
    34  H    0.125871
 Sum of Mulliken atomic charges =  -0.00000

 Dipole moment (field-independent basis, Debye):
    X=             -1.4965    Y=             -0.0782    Z=             -0.2637  Tot=              1.5216
 Quadrupole moment (field-independent basis, Debye-Ang):
   XX=            -86.3189   YY=            -98.5406   ZZ=           -109.2786
   XY=              4.2829   XZ=              1.7496   YZ=             -2.9346

 Summary of Natural Population Analysis:

                                       Natural Population
                Natural  -----------------------------------------------
    Atom  No    Charge         Core      Valence    Rydberg      Total
 -----------------------------------------------------------------------
      O    1   -0.63576      1.99976     6.61579    0.02022     8.63576
      C    2    1.05169      1.99953     2.89630    0.05248     4.94831
      O    3   -0.56002      1.99970     6.54770    0.01263     8.56002
      C    4    0.28238      1.99900     3.69978    0.01884     5.71762
      C    5   -0.70345      1.99932     4.69495    0.00918     6.70345
      C    6   -0.68519      1.99932     4.67567    0.01019     6.68519
      C    7   -0.70352      1.99932     4.69497    0.00923     6.70352
      O    8   -0.51712      1.99968     6.50611    0.01133     8.51712
      C    9    0.33568      1.99864     3.64298    0.02269     5.66432
      C   10   -0.26061      1.99901     4.24641    0.01518     6.26061
      C   11   -0.22224      1.99912     4.20757    0.01555     6.22224
      C   12   -0.18949      1.99905     4.17496    0.01548     6.18949
      C   13   -0.05777      1.99904     4.04352    0.01521     6.05777
      C   14   -0.08513      1.99896     4.07086    0.01530     6.08513
      C   15   -0.23116      1.99906     4.21524    0.01685     6.23116
      C   16   -0.22156      1.99911     4.20690    0.01555     6.22156
      C   17   -0.23564      1.99911     4.22099    0.01554     6.23564
      C   18   -0.22813      1.99906     4.21294    0.01614     6.22813
      H   19    0.23790      0.00000     0.76093    0.00117     0.76210
      H   20    0.25745      0.00000     0.74134    0.00122     0.74255
      H   21    0.23907      0.00000     0.76014    0.00079     0.76093
      H   22    0.24251      0.00000     0.75640    0.00109     0.75749
      H   23    0.24263      0.00000     0.75629    0.00108     0.75737
      H   24    0.23739      0.00000     0.76193    0.00068     0.76261
      H   25    0.25892      0.00000     0.73992    0.00116     0.74108
      H   26    0.23848      0.00000     0.76037    0.00116     0.76152
      H   27    0.23857      0.00000     0.76065    0.00078     0.76143
      H   28    0.25734      0.00000     0.74152    0.00114     0.74266
      H   29    0.24048      0.00000     0.75872    0.00080     0.75952
      H   30    0.23433      0.00000     0.76451    0.00116     0.76567
      H   31    0.24405      0.00000     0.75463    0.00132     0.75595
      H   32    0.23427      0.00000     0.76488    0.00084     0.76573
      H   33    0.23441      0.00000     0.76477    0.00083     0.76559
      H   34    0.22926      0.00000     0.76956    0.00118     0.77074
 =======================================================================
   * Total *   -0.00000     35.98580    93.69021    0.32400   130.00000

 Normal termination of Gaussian 09 at Thu Sep 30 01:25:42 2021.
