 Gaussian 09, Revision A.02,

 -----------------------------------
 #p opt b3lyp/6-31G* scf=(xqc,tight)
 -----------------------------------

 -------------------------------------------------
 O=C(C(C)(C)C)Oc1ccc(c2c1cccc2)[N+](=O)[O-]_conf_0
 -------------------------------------------------
 Symbolic Z-matrix:
 Charge =  0 Multiplicity = 1

 SCF Done:  E(RB3LYP) =  -936.192440680     A.U. after   16 cycles
 SCF Done:  E(RB3LYP) =  -936.199899267     A.U. after   14 cycles
 SCF Done:  E(RB3LYP) =  -936.196357787     A.U. after   17 cycles
 SCF Done:  E(RB3LYP) =  -936.200946389     A.U. after   15 cycles
 SCF Done:  E(RB3LYP) =  -936.202344540     A.U. after   14 cycles
 SCF Done:  E(RB3LYP) =  -936.203266610     A.U. after   15 cycles
 SCF Done:  E(RB3LYP) =  -936.204280681     A.U. after   15 cycles
 SCF Done:  E(RB3LYP) =  -936.204626491     A.U. after   13 cycles
 SCF Done:  E(RB3LYP) =  -936.204832419     A.U. after   14 cycles
 SCF Done:  E(RB3LYP) =  -936.204942398     A.U. after   12 cycles
 SCF Done:  E(RB3LYP) =  -936.205081644     A.U. after   12 cycles
 SCF Done:  E(RB3LYP) =  -936.205104043     A.U. after   13 cycles
 SCF Done:  E(RB3LYP) =  -936.205114242     A.U. after   11 cycles
 SCF Done:  E(RB3LYP) =  -936.205119211     A.U. after   11 cycles
 SCF Done:  E(RB3LYP) =  -936.205119790     A.U. after    8 cycles
 SCF Done:  E(RB3LYP) =  -936.205119988     A.U. after   10 cycles
 SCF Done:  E(RB3LYP) =  -936.205119909     A.U. after    8 cycles
 SCF Done:  E(RB3LYP) =  -936.205119915     A.U. after    8 cycles
 Optimization completed.
    -- Stationary point found.
 Normal termination of Gaussian 09 at Wed Sep 29 13:01:03 2021.

 ----------------------------------------------------------------------
 #p freq b3lyp/6-31G* volume NMR pop=NPA density=current Geom=AllCheck
 Guess=Read
 ----------------------------------------------------------------------

 O=C(C(C)(C)C)Oc1ccc(c2c1cccc2)[N+](=O)[O-]_conf_0
 -------------------------------------------------
 Redundant internal coordinates taken from checkpoint file:
 C15H15NO4_2bbe_conf_0.chk
 Charge =  0 Multiplicity = 1

 SCF Done:  E(RB3LYP) =  -936.205119915     A.U. after    1 cycles

  1  O    Isotropic =   -68.9975   Anisotropy =   580.0686

  2  C    Isotropic =    22.6727   Anisotropy =    82.0059

  3  C    Isotropic =   148.1054   Anisotropy =    25.1971

  4  C    Isotropic =   162.4935   Anisotropy =    37.2729

  5  C    Isotropic =   162.0226   Anisotropy =    37.6143

  6  C    Isotropic =   162.8098   Anisotropy =    31.7048

  7  O    Isotropic =   107.7872   Anisotropy =   192.7111

  8  C    Isotropic =    43.2511   Anisotropy =   109.1737

  9  C    Isotropic =    78.4552   Anisotropy =   143.9718

 10  C    Isotropic =    67.8407   Anisotropy =   163.3917

 11  C    Isotropic =    52.7076   Anisotropy =    98.0737

 12  C    Isotropic =    67.6935   Anisotropy =   183.1851

 13  C    Isotropic =    68.8162   Anisotropy =   175.3108

 14  C    Isotropic =    72.6718   Anisotropy =   163.7395

 15  C    Isotropic =    69.5615   Anisotropy =   166.1848

 16  C    Isotropic =    66.0914   Anisotropy =   170.8016

 17  C    Isotropic =    69.3484   Anisotropy =   171.1306

 18  N    Isotropic =  -114.8393   Anisotropy =   260.8208

 19  O    Isotropic =  -283.5880   Anisotropy =   672.4928

 20  O    Isotropic =  -290.6731   Anisotropy =   688.8800

 21  H    Isotropic =    30.1529   Anisotropy =     7.9358

 22  H    Isotropic =    30.6763   Anisotropy =     7.7214

 23  H    Isotropic =    30.9311   Anisotropy =     8.0082

 24  H    Isotropic =    30.3865   Anisotropy =     5.5418

 25  H    Isotropic =    30.9327   Anisotropy =     8.0016

 26  H    Isotropic =    30.7359   Anisotropy =     8.3168

 27  H    Isotropic =    30.6082   Anisotropy =     7.9248

 28  H    Isotropic =    30.5071   Anisotropy =     8.4281

 29  H    Isotropic =    31.3743   Anisotropy =     7.9930

 30  H    Isotropic =    24.8004   Anisotropy =     9.6251

 31  H    Isotropic =    23.7507   Anisotropy =     6.0438

 32  H    Isotropic =    24.0081   Anisotropy =    10.4850

 33  H    Isotropic =    24.6394   Anisotropy =     6.3632

 34  H    Isotropic =    24.4833   Anisotropy =     5.2244

 35  H    Isotropic =    23.0411   Anisotropy =     8.6835

  Exact polarizability: 242.111  -1.288 212.400   1.642  -1.130  91.088
 Approx polarizability: 356.150  -5.950 388.877   3.841   9.291 145.577

                     1                      2                      3
                     A                      A                      A
 Frequencies --    22.6554                35.3423                43.6385
 Red. masses --     3.5908                 5.2415                 5.1986
 Frc consts  --     0.0011                 0.0039                 0.0058
 IR Inten    --     0.2792                 0.1217                 0.6151

                     4                      5                      6
                     A                      A                      A
 Frequencies --    51.8621                69.1050               106.5389
 Red. masses --    11.3323                 6.7391                 4.5336
 Frc consts  --     0.0180                 0.0190                 0.0303
 IR Inten    --     0.7233                 0.3622                 1.9839

                     7                      8                      9
                     A                      A                      A
 Frequencies --   145.8364               181.2681               189.3981
 Red. masses --     4.2416                 5.4485                 4.4010
 Frc consts  --     0.0532                 0.1055                 0.0930
 IR Inten    --     1.0867                 0.7140                 2.0638

                    10                     11                     12
                     A                      A                      A
 Frequencies --   203.2567               227.1546               240.6391
 Red. masses --     1.6399                 1.4464                 7.7327
 Frc consts  --     0.0399                 0.0440                 0.2638
 IR Inten    --     0.3333                 0.2628                 2.0683

                    13                     14                     15
                     A                      A                      A
 Frequencies --   261.4379               269.2410               287.6581
 Red. masses --     1.5165                 1.2640                 1.5111
 Frc consts  --     0.0611                 0.0540                 0.0737
 IR Inten    --     1.0401                 0.2521                 1.4309

                    16                     17                     18
                     A                      A                      A
 Frequencies --   319.9483               332.9573               357.1583
 Red. masses --     4.7780                 4.1800                 3.3874
 Frc consts  --     0.2882                 0.2730                 0.2546
 IR Inten    --     7.5163                 1.7935                 6.9532

                    19                     20                     21
                     A                      A                      A
 Frequencies --   370.3859               377.7921               424.3028
 Red. masses --     5.6298                 2.3797                 7.4309
 Frc consts  --     0.4550                 0.2001                 0.7882
 IR Inten    --     0.4380                 1.0366                 1.1859

                    22                     23                     24
                     A                      A                      A
 Frequencies --   427.9460               449.2241               476.8253
 Red. masses --     3.6764                 3.6311                 3.5019
 Frc consts  --     0.3967                 0.4317                 0.4691
 IR Inten    --     2.3832                 3.1635                 0.1096

                    25                     26                     27
                     A                      A                      A
 Frequencies --   523.8387               547.8235               559.4430
 Red. masses --     5.2519                 5.7921                 5.7563
 Frc consts  --     0.8491                 1.0242                 1.0615
 IR Inten    --     0.7390                 2.3364                 2.7476

                    28                     29                     30
                     A                      A                      A
 Frequencies --   596.2789               625.1038               645.1925
 Red. masses --     3.9876                 4.1388                 4.5064
 Frc consts  --     0.8353                 0.9529                 1.1052
 IR Inten    --     3.3215                 6.4016                 1.9281

                    31                     32                     33
                     A                      A                      A
 Frequencies --   664.8050               739.3311               748.6796
 Red. masses --     6.0773                 5.0267                 5.3110
 Frc consts  --     1.5825                 1.6189                 1.7540
 IR Inten    --     5.2272                 7.5846                 7.6737

                    34                     35                     36
                     A                      A                      A
 Frequencies --   755.0198               781.6625               786.3039
 Red. masses --     6.3197                 4.4496                 1.5495
 Frc consts  --     2.1226                 1.6018                 0.5644
 IR Inten    --     1.4303                 2.4934                61.6578

                    37                     38                     39
                     A                      A                      A
 Frequencies --   798.3707               819.1321               836.3524
 Red. masses --     5.5008                 3.2602                 5.5460
 Frc consts  --     2.0658                 1.2888                 2.2856
 IR Inten    --     0.4329                 6.2503                38.3142

                    40                     41                     42
                     A                      A                      A
 Frequencies --   854.8989               887.3855               894.8350
 Red. masses --     1.9279                 1.5721                 3.2291
 Frc consts  --     0.8302                 0.7294                 1.5234
 IR Inten    --     7.1720                 2.5118                19.0268

                    43                     44                     45
                     A                      A                      A
 Frequencies --   951.1572               955.7367               965.9931
 Red. masses --     1.7572                 1.6475                 1.3651
 Frc consts  --     0.9366                 0.8867                 0.7505
 IR Inten    --     1.3617                 5.0702                 2.8807

                    46                     47                     48
                     A                      A                      A
 Frequencies --   971.5014               983.0731              1004.5094
 Red. masses --     1.3262                 1.1983                 1.5648
 Frc consts  --     0.7375                 0.6823                 0.9303
 IR Inten    --     0.4058                 0.0160                 5.7075

                    49                     50                     51
                     A                      A                      A
 Frequencies --  1006.3089              1048.2126              1060.8833
 Red. masses --     3.1104                 2.1275                 1.4766
 Frc consts  --     1.8558                 1.3773                 0.9791
 IR Inten    --    20.9611                93.9319                 0.5255

                    52                     53                     54
                     A                      A                      A
 Frequencies --  1064.3980              1078.0312              1122.4520
 Red. masses --     2.4242                 2.1590                 3.9070
 Frc consts  --     1.6182                 1.4783                 2.9002
 IR Inten    --    18.8890                 6.3738               903.2893

                    55                     56                     57
                     A                      A                      A
 Frequencies --  1177.2086              1191.8236              1198.4919
 Red. masses --     2.0461                 1.4547                 1.3030
 Frc consts  --     1.6707                 1.2174                 1.1027
 IR Inten    --    47.0945                32.7142                15.8996

                    58                     59                     60
                     A                      A                      A
 Frequencies --  1225.7787              1242.0684              1258.2440
 Red. masses --     1.6489                 2.6636                 2.5712
 Frc consts  --     1.4597                 2.4211                 2.3984
 IR Inten    --     2.2034                 1.8308                73.0899

                    61                     62                     63
                     A                      A                      A
 Frequencies --  1267.4667              1292.9997              1305.4051
 Red. masses --     2.5933                 1.8836                 2.9237
 Frc consts  --     2.4546                 1.8554                 2.9355
 IR Inten    --   106.2237                81.1941                 8.8542

                    64                     65                     66
                     A                      A                      A
 Frequencies --  1371.5980              1379.3125              1413.3497
 Red. masses --     7.3477                11.1352                 6.7068
 Frc consts  --     8.1444                12.4817                 7.8934
 IR Inten    --    14.7872               381.4581                 1.4838

                    67                     68                     69
                     A                      A                      A
 Frequencies --  1422.6753              1424.1201              1430.6053
 Red. masses --     2.0913                 1.2072                 1.2410
 Frc consts  --     2.4939                 1.4425                 1.4965
 IR Inten    --    62.1821                 4.0076                 3.2371

                    70                     71                     72
                     A                      A                      A
 Frequencies --  1459.3536              1474.5456              1500.6117
 Red. masses --     1.2249                 2.3816                 2.5168
 Frc consts  --     1.5370                 3.0509                 3.3392
 IR Inten    --    14.0956                26.0697                13.7836

                    73                     74                     75
                     A                      A                      A
 Frequencies --  1508.4701              1516.3362              1520.1931
 Red. masses --     1.0493                 1.0449                 1.0456
 Frc consts  --     1.4067                 1.4156                 1.4237
 IR Inten    --     0.0466                 0.5885                 0.2535

                    76                     77                     78
                     A                      A                      A
 Frequencies --  1530.0807              1533.2777              1549.8776
 Red. masses --     1.0488                 1.0526                 1.0661
 Frc consts  --     1.4467                 1.4580                 1.5088
 IR Inten    --     6.5680                 7.8110                34.4543

                    79                     80                     81
                     A                      A                      A
 Frequencies --  1563.2728              1613.2491              1625.0526
 Red. masses --     3.5917                 9.8143                 7.2164
 Frc consts  --     5.1715                15.0491                11.2281
 IR Inten    --    43.0359               121.7946                93.4517

                    82                     83                     84
                     A                      A                      A
 Frequencies --  1659.8618              1680.6841              1841.7142
 Red. masses --     5.9546                 6.7607                12.7482
 Frc consts  --     9.6660                11.2515                25.4767
 IR Inten    --    38.9502                22.5174               185.0088

                    85                     86                     87
                     A                      A                      A
 Frequencies --  3052.8128              3054.6564              3063.6840
 Red. masses --     1.0351                 1.0358                 1.0363
 Frc consts  --     5.6835                 5.6942                 5.7311
 IR Inten    --    24.5067                10.1270                22.9048

                    88                     89                     90
                     A                      A                      A
 Frequencies --  3118.2177              3119.3866              3132.1818
 Red. masses --     1.1031                 1.1025                 1.1021
 Frc consts  --     6.3192                 6.3209                 6.3705
 IR Inten    --     9.7714                21.0420                34.9864

                    91                     92                     93
                     A                      A                      A
 Frequencies --  3137.8747              3142.0493              3142.1303
 Red. masses --     1.1025                 1.1016                 1.1027
 Frc consts  --     6.3960                 6.4078                 6.4142
 IR Inten    --     2.5310                46.8076                23.5318

                    94                     95                     96
                     A                      A                      A
 Frequencies --  3194.3369              3209.3389              3239.8619
 Red. masses --     1.0874                 1.0933                 1.0924
 Frc consts  --     6.5376                 6.6345                 6.7560
 IR Inten    --     6.9894                19.9639                 6.3421

                    97                     98                     99
                     A                      A                      A
 Frequencies --  3251.6808              3264.3196              3282.9517
 Red. masses --     1.0894                 1.0942                 1.0914
 Frc consts  --     6.7868                 6.8698                 6.9302
 IR Inten    --     1.1679                 2.7486                 3.4458

 - Thermochemistry -
 -------------------
 Temperature   298.150 Kelvin.  Pressure   1.00000 Atm.
 Atom     1 has atomic number  8 and mass  15.99491

 Molecular mass:   273.10011 amu.
 Principal axes and moments of inertia in atomic units:
                           1         2         3
     Eigenvalues --  2695.414369334.33213**********
           X            0.99997  -0.00741   0.00386
           Y            0.00745   0.99994  -0.00798
           Z           -0.00380   0.00801   0.99996
 This molecule is an asymmetric top.
 Rotational symmetry number  1.
 Warning -- assumption of classical behavior for rotation
           may cause significant error
 Rotational temperatures (Kelvin)      0.03213     0.00928     0.00758
 Rotational constants (GHZ):           0.66956     0.19334     0.15800
 Zero-point vibrational energy     728116.0 (Joules/Mol)
                                  174.02391 (Kcal/Mol)
 Warning -- explicit consideration of  28 degrees of freedom as
           vibrations may cause significant error
 Vibrational temperatures:     32.60    50.85    62.79    74.62    99.43
          (Kelvin)            153.29   209.83   260.80   272.50   292.44
                              326.82   346.23   376.15   387.38   413.88
                              460.33   479.05   513.87   532.90   543.56
                              610.48   615.72   646.33   686.04   753.69
                              788.19   804.91   857.91   899.38   928.29
                              956.50  1063.73  1077.18  1086.30  1124.64
                             1131.31  1148.68  1178.55  1203.32  1230.01
                             1276.75  1287.47  1368.50  1375.09  1389.85
                             1397.77  1414.42  1445.26  1447.85  1508.14
                             1526.37  1531.43  1551.04  1614.96  1693.74
                             1714.77  1724.36  1763.62  1787.06  1810.33
                             1823.60  1860.34  1878.18  1973.42  1984.52
                             2033.49  2046.91  2048.99  2058.32  2099.68
                             2121.54  2159.04  2170.35  2181.67  2187.22
                             2201.44  2206.04  2229.93  2249.20  2321.10
                             2338.09  2388.17  2418.13  2649.81  4392.31
                             4394.96  4407.95  4486.41  4488.10  4506.51
                             4514.70  4520.70  4520.82  4595.93  4617.52
                             4661.43  4678.44  4696.62  4723.43

 Zero-point correction=                           0.277325 (Hartree/Particle)
 Thermal correction to Energy=                    0.295406
 Thermal correction to Enthalpy=                  0.296350
 Thermal correction to Gibbs Free Energy=         0.229831
 Sum of electronic and zero-point Energies=           -935.927795
 Sum of electronic and thermal Energies=              -935.909714
 Sum of electronic and thermal Enthalpies=            -935.908770
 Sum of electronic and thermal Free Energies=         -935.975289

                     E (Thermal)             CV                S
                      KCal/Mol        Cal/Mol-Kelvin    Cal/Mol-Kelvin
 Total                  185.370             69.218            140.002
 Electronic               0.000              0.000              0.000
 Translational            0.889              2.981             42.713
 Rotational               0.889              2.981             34.018
 Vibrational            183.592             63.257             63.271
 Vibration     1          0.593              1.985              6.387
 Vibration     2          0.594              1.982              5.504
 Vibration     3          0.595              1.980              5.087
 Vibration     4          0.596              1.977              4.745
 Vibration     5          0.598              1.969              4.179
 Vibration     6          0.605              1.944              3.331
 Vibration     7          0.617              1.907              2.726
 Vibration     8          0.630              1.865              2.315
 Vibration     9          0.633              1.854              2.234
 Vibration    10          0.639              1.835              2.103
 Vibration    11          0.651              1.800              1.901
 Vibration    12          0.658              1.778              1.798
 Vibration    13          0.669              1.743              1.652
 Vibration    14          0.674              1.730              1.601
 Vibration    15          0.685              1.697              1.488
 Vibration    16          0.706              1.635              1.310
 Vibration    17          0.715              1.610              1.246
 Vibration    18          0.732              1.561              1.134
 Vibration    19          0.742              1.533              1.078
 Vibration    20          0.748              1.517              1.048
 Vibration    21          0.786              1.417              0.877
 Vibration    22          0.789              1.409              0.865
 Vibration    23          0.808              1.363              0.798
 Vibration    24          0.833              1.301              0.719
 Vibration    25          0.879              1.197              0.601
 Vibration    26          0.903              1.144              0.549
 Vibration    27          0.915              1.119              0.525
 Vibration    28          0.954              1.040              0.456

 Optimization completed.
    -- Stationary point found.
 Normal termination of Gaussian 09 at Wed Sep 29 15:37:56 2021.
 Gaussian 09:  AM64L-G09RevA.02 11-Jun-2009

 ----------------------------------------------------------------------
 #p TD(NStates=10, Root=1) b3lyp/6-31G* volume pop=NPA density=current
 Geom=AllCheck Guess=Read
 ----------------------------------------------------------------------

 O=C(C(C)(C)C)Oc1ccc(c2c1cccc2)[N+](=O)[O-]_conf_0
 -------------------------------------------------
 Redundant internal coordinates taken from checkpoint file:
 C15H15NO4_2bbe_conf_0.chk
 Charge =  0 Multiplicity = 1

                         Standard orientation:
 ---------------------------------------------------------------------
 Center     Atomic      Atomic             Coordinates (Angstroms)
 Number     Number       Type             X           Y           Z
 ---------------------------------------------------------------------
      1          8           0        2.342249   -1.520082   -1.128121
      2          6           0        2.559458   -0.636256   -0.339874
      3          6           0        3.934642   -0.116686    0.084669
      4          6           0        4.029458    1.400748   -0.188980
      5          6           0        4.117366   -0.388393    1.596134
      6          6           0        5.005760   -0.867561   -0.722947
      7          8           0        1.554891    0.052303    0.321057
      8          6           0        0.220685   -0.291163    0.176923
      9          6           0       -0.211994   -1.597767    0.223487
     10          6           0       -1.588081   -1.863062    0.152584
     11          6           0       -2.507452   -0.838724    0.061473
     12          6           0       -2.105298    0.535518    0.002201
     13          6           0       -0.690748    0.799040    0.054112
     14          6           0       -0.221811    2.136961   -0.023794
     15          6           0       -1.102240    3.183908   -0.160920
     16          6           0       -2.489356    2.930369   -0.226072
     17          6           0       -2.981779    1.646450   -0.144323
     18          7           0       -3.917237   -1.257050    0.043275
     19          8           0       -4.163383   -2.411300   -0.311458
     20          8           0       -4.781075   -0.454544    0.405326
     21          1           0        3.307166    1.963831    0.408639
     22          1           0        3.856929    1.627430   -1.247270
     23          1           0        5.033731    1.754593    0.069763
     24          1           0        3.361677    0.132129    2.191241
     25          1           0        5.106227   -0.038635    1.913218
     26          1           0        4.054481   -1.459979    1.817676
     27          1           0        4.887006   -0.695741   -1.797074
     28          1           0        4.948712   -1.946479   -0.551932
     29          1           0        6.001349   -0.520943   -0.425004
     30          1           0        0.493576   -2.412814    0.308714
     31          1           0       -1.947835   -2.883718    0.180845
     32          1           0        0.845923    2.314799    0.018749
     33          1           0       -0.731993    4.203195   -0.223972
     34          1           0       -3.183165    3.758449   -0.341186
     35          1           0       -4.046230    1.471926   -0.187807
 ---------------------------------------------------------------------

 SCF Done:  E(RB3LYP) =  -936.205119915     A.U. after    1 cycles

 Excitation energies and oscillator strengths:

 Excited State   1:      Singlet-A      3.4770 eV  356.59 nm  f=0.1557  <S**2>=0.000
      68 -> 73        -0.11070
      70 -> 73        -0.11457
      72 -> 73         0.67393
 This state for optimization and/or second-order correction.
 Total Energy, E(TD-HF/TD-KS) =  -936.077343277
 Copying the excited state density for this state as the 1-particle RhoCI density.

 Excited State   2:      Singlet-A      3.7004 eV  335.06 nm  f=0.0048  <S**2>=0.000
      68 -> 73         0.18084
      69 -> 73        -0.12691
      70 -> 73         0.61556
      70 -> 74         0.17823
      72 -> 73         0.16506

 Excited State   3:      Singlet-A      4.0560 eV  305.68 nm  f=0.0198  <S**2>=0.000
      67 -> 73        -0.13433
      71 -> 73         0.63262
      72 -> 75         0.26613

 Excited State   4:      Singlet-A      4.2482 eV  291.85 nm  f=0.0053  <S**2>=0.000
      66 -> 73        -0.14895
      67 -> 73         0.61293
      67 -> 74         0.17823
      69 -> 73         0.16347
      71 -> 73         0.12986

 Excited State   5:      Singlet-A      4.7394 eV  261.60 nm  f=0.0053  <S**2>=0.000
      67 -> 73        -0.11876
      69 -> 73         0.57639
      69 -> 76        -0.10136
      70 -> 73         0.11814
      72 -> 74        -0.29411
      72 -> 75        -0.14155

 Excited State   6:      Singlet-A      4.7461 eV  261.24 nm  f=0.0409  <S**2>=0.000
      69 -> 73         0.25440
      70 -> 73         0.10599
      71 -> 75         0.10834
      72 -> 74         0.61571

 Excited State   7:      Singlet-A      4.9085 eV  252.59 nm  f=0.1029  <S**2>=0.000
      68 -> 73         0.60187
      70 -> 73        -0.21692
      71 -> 74         0.10924
      72 -> 75        -0.20453

 Excited State   8:      Singlet-A      4.9500 eV  250.47 nm  f=0.0714  <S**2>=0.000
      67 -> 73         0.10022
      68 -> 73        -0.21000
      69 -> 73        -0.14316
      71 -> 73         0.20266
      71 -> 74         0.43059
      72 -> 75        -0.43078

 Excited State   9:      Singlet-A      5.3691 eV  230.92 nm  f=0.0160  <S**2>=0.000
      72 -> 76         0.68537

 Excited State  10:      Singlet-A      5.5492 eV  223.43 nm  f=0.0030  <S**2>=0.000
      66 -> 73        -0.35863
      67 -> 73        -0.11571
      67 -> 74         0.11856
      68 -> 73        -0.14472
      68 -> 74         0.18052
      70 -> 73        -0.12945
      70 -> 74         0.47564

 The electronic state is 1-A.
 Alpha  occ. eigenvalues --  -19.22205 -19.17636 -19.17526 -19.16142 -14.56820
 Alpha  occ. eigenvalues --  -10.33668 -10.28174 -10.25344 -10.23178 -10.22990
 Alpha  occ. eigenvalues --  -10.22508 -10.22242 -10.21425 -10.20815 -10.20717
 Alpha  occ. eigenvalues --  -10.20653 -10.20160 -10.19680 -10.19620 -10.18689
 Alpha  occ. eigenvalues --   -1.21909  -1.12798  -1.04688  -1.04471  -0.90085
 Alpha  occ. eigenvalues --   -0.84907  -0.84217  -0.81113  -0.76698  -0.75791
 Alpha  occ. eigenvalues --   -0.71902  -0.70609  -0.69842  -0.65594  -0.64157
 Alpha  occ. eigenvalues --   -0.63918  -0.59653  -0.56804  -0.54916  -0.53671
 Alpha  occ. eigenvalues --   -0.52637  -0.52204  -0.50301  -0.50138  -0.49586
 Alpha  occ. eigenvalues --   -0.48223  -0.46210  -0.45736  -0.44910  -0.44781
 Alpha  occ. eigenvalues --   -0.44289  -0.43236  -0.42597  -0.41691  -0.40701
 Alpha  occ. eigenvalues --   -0.39914  -0.39703  -0.38236  -0.37553  -0.36951
 Alpha  occ. eigenvalues --   -0.36338  -0.35310  -0.34862  -0.34751  -0.33936
 Alpha  occ. eigenvalues --   -0.30486  -0.30177  -0.29623  -0.29017  -0.28013
 Alpha  occ. eigenvalues --   -0.26547  -0.23457
 Alpha virt. eigenvalues --   -0.09040  -0.03994  -0.03011  -0.01314   0.03003
 Alpha virt. eigenvalues --    0.06430   0.08337   0.09050   0.09272   0.11401
 Alpha virt. eigenvalues --    0.12127   0.13119   0.13787   0.14181   0.14891

 Mulliken atomic charges:
              1
     1  O   -0.449991
     2  C    0.632211
     3  C   -0.013098
     4  C   -0.457717
     5  C   -0.453790
     6  C   -0.435735
     7  O   -0.539651
     8  C    0.299866
     9  C   -0.137212
    10  C   -0.186346
    11  C    0.241840
    12  C    0.087817
    13  C    0.057506
    14  C   -0.152092
    15  C   -0.119007
    16  C   -0.126789
    17  C   -0.137453
    18  N    0.307954
    19  O   -0.442621
    20  O   -0.478319
    21  H    0.160275
    22  H    0.154615
    23  H    0.156327
    24  H    0.163713
    25  H    0.155164
    26  H    0.156389
    27  H    0.158958
    28  H    0.161442
    29  H    0.142283
    30  H    0.174043
    31  H    0.190952
    32  H    0.181259
    33  H    0.160431
    34  H    0.162683
    35  H    0.224091
 Sum of Mulliken atomic charges =  -0.00000

 Dipole moment (field-independent basis, Debye):
    X=              7.4059    Y=              6.1455    Z=              0.9515  Tot=              9.6705
 Quadrupole moment (field-independent basis, Debye-Ang):
   XX=           -137.2079   YY=           -106.7409   ZZ=           -118.0109
   XY=            -15.4207   XZ=              5.1021   YZ=             -5.9455

 Summary of Natural Population Analysis:

                                       Natural Population
                Natural  -----------------------------------------------
    Atom  No    Charge         Core      Valence    Rydberg      Total
 -----------------------------------------------------------------------
      O    1   -0.56499      1.99977     6.54497    0.02025     8.56499
      C    2    0.84189      1.99926     3.11007    0.04877     5.15811
      C    3   -0.15282      1.99905     4.14156    0.01221     6.15282
      C    4   -0.66901      1.99938     4.65973    0.00990     6.66901
      C    5   -0.67024      1.99938     4.66107    0.00978     6.67024
      C    6   -0.67100      1.99940     4.66044    0.01117     6.67100
      O    7   -0.54837      1.99969     6.53784    0.01084     8.54837
      C    8    0.31325      1.99871     3.66588    0.02217     5.68675
      C    9   -0.21471      1.99901     4.20179    0.01391     6.21471
      C   10   -0.24257      1.99903     4.22675    0.01678     6.24257
      C   11    0.13676      1.99874     3.84348    0.02102     5.86324
      C   12   -0.07846      1.99898     4.06405    0.01543     6.07846
      C   13   -0.09206      1.99898     4.07879    0.01429     6.09206
      C   14   -0.11259      1.99907     4.09962    0.01390     6.11259
      C   15   -0.20674      1.99911     4.19344    0.01420     6.20674
      C   16   -0.22554      1.99912     4.21214    0.01428     6.22554
      C   17   -0.08166      1.99908     4.06821    0.01438     6.08166
      N   18    0.41500      1.99956     4.53531    0.05013     6.58500
      O   19   -0.43552      1.99983     6.42030    0.01539     8.43552
      O   20   -0.48133      1.99983     6.46612    0.01538     8.48133
      H   21    0.23508      0.00000     0.76387    0.00106     0.76492
      H   22    0.23788      0.00000     0.76122    0.00090     0.76212
      H   23    0.24025      0.00000     0.75873    0.00101     0.75975
      H   24    0.24338      0.00000     0.75555    0.00107     0.75662
      H   25    0.23877      0.00000     0.76020    0.00103     0.76123
      H   26    0.23885      0.00000     0.76026    0.00089     0.76115
      H   27    0.24413      0.00000     0.75488    0.00098     0.75587
      H   28    0.24602      0.00000     0.75298    0.00101     0.75398
      H   29    0.23297      0.00000     0.76615    0.00088     0.76703
      H   30    0.26506      0.00000     0.73395    0.00099     0.73494
      H   31    0.27904      0.00000     0.71903    0.00193     0.72096
      H   32    0.25393      0.00000     0.74482    0.00126     0.74607
      H   33    0.24937      0.00000     0.74991    0.00072     0.75063
      H   34    0.25144      0.00000     0.74785    0.00072     0.74856
      H   35    0.28453      0.00000     0.71328    0.00218     0.71547
 =======================================================================
   * Total *    0.00000     39.98497   103.63422    0.38081   144.00000

 Normal termination of Gaussian 09 at Wed Sep 29 23:56:46 2021.
