 Gaussian 09, Revision A.02,

 -----------------------------------
 #p opt b3lyp/6-31G* scf=(xqc,tight)
 -----------------------------------

 ------------------------------------
 CCN(C(=O)Oc1ccc2c(c1)cccc2)CC_conf_0
 ------------------------------------
 Symbolic Z-matrix:
 Charge =  0 Multiplicity = 1

 SCF Done:  E(RB3LYP) =  -787.064007217     A.U. after   15 cycles
 SCF Done:  E(RB3LYP) =  -787.069847220     A.U. after   12 cycles
 SCF Done:  E(RB3LYP) =  -787.069825031     A.U. after   12 cycles
 SCF Done:  E(RB3LYP) =  -787.070270159     A.U. after   12 cycles
 SCF Done:  E(RB3LYP) =  -787.070337201     A.U. after   11 cycles
 SCF Done:  E(RB3LYP) =  -787.070549902     A.U. after   11 cycles
 SCF Done:  E(RB3LYP) =  -787.070592975     A.U. after   11 cycles
 SCF Done:  E(RB3LYP) =  -787.070617474     A.U. after   11 cycles
 SCF Done:  E(RB3LYP) =  -787.070628086     A.U. after   11 cycles
 SCF Done:  E(RB3LYP) =  -787.070632449     A.U. after   10 cycles
 SCF Done:  E(RB3LYP) =  -787.070634612     A.U. after    9 cycles
 SCF Done:  E(RB3LYP) =  -787.070635512     A.U. after    9 cycles
 SCF Done:  E(RB3LYP) =  -787.070635641     A.U. after    7 cycles
 Optimization completed.
    -- Stationary point found.
 Normal termination of Gaussian 09 at Wed Sep 29 20:07:51 2021.

 ----------------------------------------------------------------------
 #p freq b3lyp/6-31G* volume NMR pop=NPA density=current Geom=AllCheck
 Guess=Read
 ----------------------------------------------------------------------

 CCN(C(=O)Oc1ccc2c(c1)cccc2)CC_conf_0
 ------------------------------------
 Redundant internal coordinates taken from checkpoint file:
 C15H17NO2_cd27_conf_0.chk
 Charge =  0 Multiplicity = 1

 SCF Done:  E(RB3LYP) =  -787.070635641     A.U. after    1 cycles

  1  C    Isotropic =   175.5152   Anisotropy =    21.4701

  2  C    Isotropic =   146.7753   Anisotropy =    42.8254

  3  N    Isotropic =   158.6285   Anisotropy =    68.8443

  4  C    Isotropic =    46.3282   Anisotropy =    76.1968

  5  O    Isotropic =    63.1746   Anisotropy =   379.2034

  6  O    Isotropic =   142.7679   Anisotropy =   129.7827

  7  C    Isotropic =    45.8482   Anisotropy =   107.6970

  8  C    Isotropic =    72.8258   Anisotropy =   149.5631

  9  C    Isotropic =    67.1868   Anisotropy =   141.8748

 10  C    Isotropic =    66.0866   Anisotropy =   195.8551

 11  C    Isotropic =    63.0927   Anisotropy =   194.7500

 12  C    Isotropic =    77.9883   Anisotropy =   117.8380

 13  C    Isotropic =    68.3643   Anisotropy =   144.5879

 14  C    Isotropic =    70.2139   Anisotropy =   161.8753

 15  C    Isotropic =    71.3854   Anisotropy =   160.3242

 16  C    Isotropic =    67.7417   Anisotropy =   146.4365

 17  C    Isotropic =   147.4527   Anisotropy =    40.7344

 18  C    Isotropic =   174.8570   Anisotropy =    22.2992

 19  H    Isotropic =    31.3738   Anisotropy =    10.6700

 20  H    Isotropic =    31.0486   Anisotropy =     6.7912

 21  H    Isotropic =    30.6165   Anisotropy =     7.1837

 22  H    Isotropic =    29.5068   Anisotropy =     6.6331

 23  H    Isotropic =    28.3346   Anisotropy =     5.7101

 24  H    Isotropic =    24.6617   Anisotropy =     9.5069

 25  H    Isotropic =    24.5966   Anisotropy =     7.0863

 26  H    Isotropic =    25.0706   Anisotropy =     9.3201

 27  H    Isotropic =    24.6231   Anisotropy =     7.7881

 28  H    Isotropic =    24.8382   Anisotropy =     5.2397

 29  H    Isotropic =    24.8472   Anisotropy =     4.9542

 30  H    Isotropic =    24.5711   Anisotropy =     7.0106

 31  H    Isotropic =    28.3532   Anisotropy =     3.9427

 32  H    Isotropic =    29.3211   Anisotropy =     6.3735

 33  H    Isotropic =    30.5699   Anisotropy =     7.3554

 34  H    Isotropic =    31.2932   Anisotropy =    10.3636

 35  H    Isotropic =    30.9174   Anisotropy =     7.1584

  Exact polarizability: 267.175  -6.570 168.130  -8.741   9.744  88.653
 Approx polarizability: 371.323  -9.134 282.607 -19.009  18.376 139.997

                     1                      2                      3
                     A                      A                      A
 Frequencies --    19.2098                31.0954                48.7298
 Red. masses --     4.0576                 4.2752                 3.5955
 Frc consts  --     0.0009                 0.0024                 0.0050
 IR Inten    --     0.1825                 1.1060                 0.4655

                     4                      5                      6
                     A                      A                      A
 Frequencies --    68.8328                78.5049               106.7675
 Red. masses --     2.6803                 3.4856                 6.0555
 Frc consts  --     0.0075                 0.0127                 0.0407
 IR Inten    --     0.0357                 1.9742                 1.3930

                     7                      8                      9
                     A                      A                      A
 Frequencies --   112.9899               144.6016               188.1243
 Red. masses --     4.1200                 3.9364                 3.3693
 Frc consts  --     0.0310                 0.0485                 0.0703
 IR Inten    --     0.0798                 0.5054                 1.2172

                    10                     11                     12
                     A                      A                      A
 Frequencies --   215.7734               234.0733               250.0849
 Red. masses --     2.0708                 1.1545                 1.8190
 Frc consts  --     0.0568                 0.0373                 0.0670
 IR Inten    --     1.2611                 1.1894                 0.4369

                    13                     14                     15
                     A                      A                      A
 Frequencies --   283.1407               311.9838               327.0990
 Red. masses --     3.1104                 4.3179                 2.8516
 Frc consts  --     0.1469                 0.2476                 0.1798
 IR Inten    --     1.3719                 0.5157                 1.1928

                    16                     17                     18
                     A                      A                      A
 Frequencies --   366.7209               411.2387               424.7581
 Red. masses --     3.2255                 3.3614                 3.0331
 Frc consts  --     0.2556                 0.3349                 0.3224
 IR Inten    --    15.5308                 2.3581                 0.7396

                    19                     20                     21
                     A                      A                      A
 Frequencies --   447.9870               488.3497               493.2228
 Red. masses --     3.7842                 2.9071                 3.4963
 Frc consts  --     0.4475                 0.4085                 0.5011
 IR Inten    --     7.7949                 9.8324                 3.6252

                    22                     23                     24
                     A                      A                      A
 Frequencies --   525.3795               538.2982               565.0482
 Red. masses --     6.0170                 3.9887                 4.5569
 Frc consts  --     0.9785                 0.6810                 0.8572
 IR Inten    --     0.0562                 0.7726                 3.2414

                    25                     26                     27
                     A                      A                      A
 Frequencies --   619.3510               640.5657               656.4378
 Red. masses --     4.0092                 6.0415                 3.2553
 Frc consts  --     0.9061                 1.4606                 0.8265
 IR Inten    --     4.2210                 1.1582                 1.9076

                    28                     29                     30
                     A                      A                      A
 Frequencies --   741.9046               753.2868               760.1147
 Red. masses --     6.7432                 5.5677                 1.4831
 Frc consts  --     2.1868                 1.8614                 0.5049
 IR Inten    --    22.2996                 4.1645                16.3378

                    31                     32                     33
                     A                      A                      A
 Frequencies --   769.8692               782.8444               791.6909
 Red. masses --     2.6383                 4.0104                 1.4462
 Frc consts  --     0.9213                 1.4481                 0.5341
 IR Inten    --     7.3802                 4.2062                14.0023

                    34                     35                     36
                     A                      A                      A
 Frequencies --   795.2525               816.7813               835.7650
 Red. masses --     1.1863                 1.6442                 1.9613
 Frc consts  --     0.4420                 0.6463                 0.8072
 IR Inten    --     3.6553                23.2701                 1.9458

                    37                     38                     39
                     A                      A                      A
 Frequencies --   877.0509               900.1837               903.2706
 Red. masses --     1.6567                 1.6373                 3.8637
 Frc consts  --     0.7508                 0.7817                 1.8573
 IR Inten    --    15.3019                13.7419                 1.9829

                    40                     41                     42
                     A                      A                      A
 Frequencies --   949.5711               950.9248               960.7293
 Red. masses --     1.3083                 2.5154                 1.3394
 Frc consts  --     0.6951                 1.3402                 0.7284
 IR Inten    --     1.1612                 4.2783                 3.4368

                    43                     44                     45
                     A                      A                      A
 Frequencies --   966.8417               988.1537               992.5874
 Red. masses --     3.0256                 1.2737                 3.0995
 Frc consts  --     1.6664                 0.7328                 1.7992
 IR Inten    --     6.8854                 0.4593                74.3758

                    46                     47                     48
                     A                      A                      A
 Frequencies --  1050.9405              1062.8835              1102.8863
 Red. masses --     2.3326                 2.8124                 1.9388
 Frc consts  --     1.5179                 1.8720                 1.3894
 IR Inten    --     2.6785                27.9675                18.4292

                    49                     50                     51
                     A                      A                      A
 Frequencies --  1116.0879              1127.8193              1154.2569
 Red. masses --     1.7843                 1.7045                 1.6938
 Frc consts  --     1.3095                 1.2774                 1.3296
 IR Inten    --    13.8858                33.6349                 3.7095

                    52                     53                     54
                     A                      A                      A
 Frequencies --  1183.4054              1186.7341              1187.6615
 Red. masses --     1.2377                 1.9368                 1.1978
 Frc consts  --     1.0212                 1.6071                 0.9955
 IR Inten    --     3.4518                81.3938                15.5864

                    55                     56                     57
                     A                      A                      A
 Frequencies --  1200.8016              1253.4860              1262.8865
 Red. masses --     1.9180                 3.2307                 2.4943
 Frc consts  --     1.6295                 2.9908                 2.3439
 IR Inten    --   448.2644               241.9553                20.1400

                    58                     59                     60
                     A                      A                      A
 Frequencies --  1281.3349              1294.2336              1311.8098
 Red. masses --     1.8937                 1.8114                 1.5738
 Frc consts  --     1.8318                 1.7877                 1.5957
 IR Inten    --   229.9939                12.1953               229.4404

                    61                     62                     63
                     A                      A                      A
 Frequencies --  1358.2909              1397.8404              1400.9308
 Red. masses --     1.3034                 1.9304                 1.2898
 Frc consts  --     1.4169                 2.2223                 1.4914
 IR Inten    --    20.9371                 7.4707                19.2674

                    64                     65                     66
                     A                      A                      A
 Frequencies --  1411.7427              1420.8449              1422.1726
 Red. masses --     4.8726                 1.2845                 5.2107
 Frc consts  --     5.7217                 1.5278                 6.2094
 IR Inten    --    10.9198                11.5698                17.3145

                    67                     68                     69
                     A                      A                      A
 Frequencies --  1436.8394              1438.9744              1463.8286
 Red. masses --     1.2961                 1.2645                 2.0566
 Frc consts  --     1.5765                 1.5427                 2.5964
 IR Inten    --    14.4936                25.6388               285.0506

                    70                     71                     72
                     A                      A                      A
 Frequencies --  1488.5435              1507.0928              1517.0857
 Red. masses --     2.5012                 1.0700                 1.7938
 Frc consts  --     3.2653                 1.4320                 2.4324
 IR Inten    --     2.5800                 7.1332                35.0700

                    73                     74                     75
                     A                      A                      A
 Frequencies --  1520.4692              1523.1792              1527.6086
 Red. masses --     1.0519                 1.1025                 1.1565
 Frc consts  --     1.4327                 1.5070                 1.5900
 IR Inten    --     2.3279                 3.8397                24.1372

                    76                     77                     78
                     A                      A                      A
 Frequencies --  1534.1127              1537.0097              1563.9612
 Red. masses --     1.0602                 1.1428                 3.3925
 Frc consts  --     1.4701                 1.5907                 4.8890
 IR Inten    --     7.9090                32.1108                22.1823

                    79                     80                     81
                     A                      A                      A
 Frequencies --  1629.7486              1663.1995              1690.4841
 Red. masses --     7.0678                 5.3736                 6.3912
 Frc consts  --    11.0604                 8.7580                10.7611
 IR Inten    --     2.2717                23.2076                25.3331

                    82                     83                     84
                     A                      A                      A
 Frequencies --  1810.4346              3052.4210              3053.0476
 Red. masses --    11.2719                 1.0362                 1.0360
 Frc consts  --    21.7678                 5.6880                 5.6893
 IR Inten    --   389.7410                19.1193                18.6435

                    85                     86                     87
                     A                      A                      A
 Frequencies --  3062.8319              3072.1347              3113.5188
 Red. masses --     1.0680                 1.0684                 1.1020
 Frc consts  --     5.9032                 5.9409                 6.2939
 IR Inten    --    29.6722                39.7716                16.3035

                    88                     89                     90
                     A                      A                      A
 Frequencies --  3115.2230              3132.9454              3133.2452
 Red. masses --     1.1021                 1.0983                 1.0979
 Frc consts  --     6.3016                 6.3513                 6.3505
 IR Inten    --    23.1690                24.8296                21.9475

                    91                     92                     93
                     A                      A                      A
 Frequencies --  3145.5517              3147.2979              3177.3069
 Red. masses --     1.1022                 1.1019                 1.0855
 Frc consts  --     6.4252                 6.4309                 6.4563
 IR Inten    --    18.6039                39.6085                 3.4729

                    94                     95                     96
                     A                      A                      A
 Frequencies --  3181.7339              3188.4172              3195.3865
 Red. masses --     1.0883                 1.0896                 1.0933
 Frc consts  --     6.4909                 6.5260                 6.5770
 IR Inten    --     0.4816                10.0781                35.0059

                    97                     98                     99
                     A                      A                      A
 Frequencies --  3204.9932              3208.5924              3247.4583
 Red. masses --     1.0913                 1.0969                 1.0931
 Frc consts  --     6.6047                 6.6533                 6.7921
 IR Inten    --    14.3228                29.3153                 3.5259

 - Thermochemistry -
 -------------------
 Temperature   298.150 Kelvin.  Pressure   1.00000 Atm.
 Atom     1 has atomic number  6 and mass  12.00000

 Molecular mass:   243.12593 amu.
 Principal axes and moments of inertia in atomic units:
                           1         2         3
     Eigenvalues --  1584.230519748.39544**********
           X            0.99999   0.00268  -0.00210
           Y           -0.00266   0.99993   0.01114
           Z            0.00213  -0.01113   0.99994
 This molecule is an asymmetric top.
 Rotational symmetry number  1.
 Warning -- assumption of classical behavior for rotation
           may cause significant error
 Rotational temperatures (Kelvin)      0.05467     0.00888     0.00794
 Rotational constants (GHZ):           1.13919     0.18513     0.16535
 Zero-point vibrational energy     769252.2 (Joules/Mol)
                                  183.85568 (Kcal/Mol)
 Warning -- explicit consideration of  25 degrees of freedom as
           vibrations may cause significant error
 Vibrational temperatures:     27.64    44.74    70.11    99.03   112.95
          (Kelvin)            153.61   162.57   208.05   270.67   310.45
                              336.78   359.82   407.38   448.87   470.62
                              527.63   591.68   611.13   644.55   702.63
                              709.64   755.90   774.49   812.98   891.11
                              921.63   944.47  1067.43  1083.81  1093.63
                             1107.67  1126.34  1139.07  1144.19  1175.16
                             1202.48  1261.88  1295.16  1299.60  1366.22
                             1368.17  1382.27  1391.07  1421.73  1428.11
                             1512.07  1529.25  1586.81  1605.80  1622.68
                             1660.72  1702.65  1707.44  1708.78  1727.68
                             1803.48  1817.01  1843.55  1862.11  1887.40
                             1954.28  2011.18  2015.62  2031.18  2044.28
                             2046.19  2067.29  2070.36  2106.12  2141.68
                             2168.37  2182.75  2187.61  2191.51  2197.89
                             2207.24  2211.41  2250.19  2344.84  2392.97
                             2432.23  2604.81  4391.75  4392.65  4406.73
                             4420.11  4479.65  4482.11  4507.60  4508.04
                             4525.74  4528.25  4571.43  4577.80  4587.42
                             4597.44  4611.26  4616.44  4672.36

 Zero-point correction=                           0.292993 (Hartree/Particle)
 Thermal correction to Energy=                    0.309664
 Thermal correction to Enthalpy=                  0.310609
 Thermal correction to Gibbs Free Energy=         0.246705
 Sum of electronic and zero-point Energies=           -786.777643
 Sum of electronic and thermal Energies=              -786.760971
 Sum of electronic and thermal Enthalpies=            -786.760027
 Sum of electronic and thermal Free Energies=         -786.823930

                     E (Thermal)             CV                S
                      KCal/Mol        Cal/Mol-Kelvin    Cal/Mol-Kelvin
 Total                  194.317             63.585            134.496
 Electronic               0.000              0.000              0.000
 Translational            0.889              2.981             42.366
 Rotational               0.889              2.981             33.488
 Vibrational            192.540             57.623             58.641
 Vibration     1          0.593              1.986              6.714
 Vibration     2          0.594              1.983              5.758
 Vibration     3          0.595              1.978              4.868
 Vibration     4          0.598              1.969              4.186
 Vibration     5          0.600              1.964              3.928
 Vibration     6          0.606              1.944              3.327
 Vibration     7          0.607              1.939              3.217
 Vibration     8          0.616              1.908              2.742
 Vibration     9          0.633              1.856              2.246
 Vibration    10          0.645              1.817              1.994
 Vibration    11          0.654              1.789              1.847
 Vibration    12          0.663              1.763              1.730
 Vibration    13          0.682              1.705              1.515
 Vibration    14          0.700              1.651              1.352
 Vibration    15          0.711              1.621              1.274
 Vibration    16          0.740              1.541              1.093
 Vibration    17          0.775              1.446              0.922
 Vibration    18          0.787              1.416              0.876
 Vibration    19          0.807              1.365              0.802
 Vibration    20          0.844              1.276              0.688
 Vibration    21          0.849              1.265              0.675
 Vibration    22          0.880              1.194              0.598
 Vibration    23          0.893              1.165              0.569
 Vibration    24          0.921              1.107              0.514
 Vibration    25          0.979              0.991              0.418

 Optimization completed.
    -- Stationary point found.
 Normal termination of Gaussian 09 at Wed Sep 29 21:47:59 2021.
 Gaussian 09:  AM64L-G09RevA.02 11-Jun-2009

 ----------------------------------------------------------------------
 #p TD(NStates=10, Root=1) b3lyp/6-31G* volume pop=NPA density=current
 Geom=AllCheck Guess=Read
 ----------------------------------------------------------------------

 CCN(C(=O)Oc1ccc2c(c1)cccc2)CC_conf_0
 ------------------------------------
 Redundant internal coordinates taken from checkpoint file:
 C15H17NO2_cd27_conf_0.chk
 Charge =  0 Multiplicity = 1

                         Standard orientation:
 ---------------------------------------------------------------------
 Center     Atomic      Atomic             Coordinates (Angstroms)
 Number     Number       Type             X           Y           Z
 ---------------------------------------------------------------------
      1          6           0        4.972235   -1.608485   -0.101062
      2          6           0        4.358916   -0.461934    0.706549
      3          7           0        3.204160    0.153421    0.044151
      4          6           0        1.976091   -0.371115    0.310287
      5          8           0        1.759012   -1.333305    1.023295
      6          8           0        0.989776    0.349614   -0.336747
      7          6           0       -0.334588   -0.068313   -0.238115
      8          6           0       -0.713515   -1.403220   -0.521057
      9          6           0       -2.045980   -1.740826   -0.499148
     10          6           0       -3.051163   -0.779647   -0.206570
     11          6           0       -2.652155    0.568800    0.069212
     12          6           0       -1.270920    0.895468    0.047918
     13          6           0       -3.653887    1.534043    0.359195
     14          6           0       -4.985387    1.184045    0.377698
     15          6           0       -5.380013   -0.148826    0.105050
     16          6           0       -4.432882   -1.106614   -0.180474
     17          6           0        3.426251    1.299656   -0.843141
     18          6           0        3.360363    2.647707   -0.119818
     19          1           0        5.845271   -2.017723    0.420467
     20          1           0        5.296928   -1.272696   -1.092796
     21          1           0        4.240809   -2.412183   -0.228900
     22          1           0        5.098767    0.328300    0.877920
     23          1           0        4.030561   -0.826434    1.682220
     24          1           0        0.047615   -2.142571   -0.736021
     25          1           0       -2.346188   -2.764164   -0.710850
     26          1           0       -0.947487    1.911643    0.253780
     27          1           0       -3.350179    2.556941    0.569212
     28          1           0       -5.740790    1.932218    0.602682
     29          1           0       -6.434133   -0.411951    0.122544
     30          1           0       -4.731059   -2.131322   -0.390195
     31          1           0        2.690670    1.266881   -1.648724
     32          1           0        4.412136    1.163076   -1.302329
     33          1           0        2.364144    2.804960    0.304714
     34          1           0        3.570639    3.466171   -0.818169
     35          1           0        4.092689    2.700003    0.693859
 ---------------------------------------------------------------------

 SCF Done:  E(RB3LYP) =  -787.070635641     A.U. after    1 cycles

 Excitation energies and oscillator strengths:

 Excited State   1:      Singlet-A      4.3629 eV  284.18 nm  f=0.0376  <S**2>=0.000
      64 -> 66         0.25271
      64 -> 67        -0.15021
      65 -> 66         0.58686
      65 -> 67         0.24817
 This state for optimization and/or second-order correction.
 Total Energy, E(TD-HF/TD-KS) =  -786.910301318
 Copying the excited state density for this state as the 1-particle RhoCI density.

 Excited State   2:      Singlet-A      4.5017 eV  275.42 nm  f=0.0164  <S**2>=0.000
      64 -> 66         0.44146
      65 -> 66        -0.35181
      65 -> 67         0.40710

 Excited State   3:      Singlet-A      5.1055 eV  242.85 nm  f=0.0195  <S**2>=0.000
      63 -> 66         0.67388
      64 -> 66         0.19640

 Excited State   4:      Singlet-A      5.6874 eV  218.00 nm  f=0.0077  <S**2>=0.000
      61 -> 66        -0.12469
      62 -> 66         0.62884
      65 -> 68        -0.26898

 Excited State   5:      Singlet-A      5.7554 eV  215.42 nm  f=0.9871  <S**2>=0.000
      61 -> 66        -0.22424
      62 -> 66        -0.14947
      63 -> 66         0.14315
      63 -> 67         0.23013
      64 -> 66        -0.32565
      64 -> 67         0.23752
      65 -> 67         0.39626
      65 -> 68        -0.11314

 Excited State   6:      Singlet-A      5.8379 eV  212.38 nm  f=0.1248  <S**2>=0.000
      61 -> 66         0.42227
      62 -> 66         0.23740
      63 -> 67         0.15761
      64 -> 67         0.18069
      65 -> 67         0.13522
      65 -> 68         0.40952

 Excited State   7:      Singlet-A      5.9348 eV  208.91 nm  f=0.3670  <S**2>=0.000
      63 -> 67         0.51790
      64 -> 66         0.23370
      64 -> 67         0.25518
      65 -> 67        -0.24115
      65 -> 68        -0.12951

 Excited State   8:      Singlet-A      6.0633 eV  204.48 nm  f=0.1379  <S**2>=0.000
      60 -> 66        -0.11746
      61 -> 67         0.11988
      61 -> 68         0.10086
      63 -> 67        -0.38000
      64 -> 67         0.52210
      65 -> 66         0.12836

 Excited State   9:      Singlet-A      6.2351 eV  198.85 nm  f=0.0142  <S**2>=0.000
      60 -> 66         0.17748
      61 -> 66        -0.14367
      61 -> 67        -0.25344
      62 -> 67         0.37646
      64 -> 67         0.10525
      64 -> 68         0.39856
      65 -> 68         0.14666
      65 -> 69        -0.12946

 Excited State  10:      Singlet-A      6.4770 eV  191.42 nm  f=0.0096  <S**2>=0.000
      60 -> 66         0.27888
      61 -> 67         0.28241
      62 -> 67         0.30377
      62 -> 69         0.19244
      64 -> 68        -0.29695
      65 -> 69        -0.29538

 The electronic state is 1-A.
 Alpha  occ. eigenvalues --  -19.19352 -19.11504 -14.36406 -10.32971 -10.24907
 Alpha  occ. eigenvalues --  -10.22761 -10.22257 -10.19738 -10.19424 -10.19061
 Alpha  occ. eigenvalues --  -10.18929 -10.18869 -10.18818 -10.18769 -10.18763
 Alpha  occ. eigenvalues --  -10.18728 -10.18420 -10.18007  -1.10359  -1.01247
 Alpha  occ. eigenvalues --   -0.94031  -0.86929  -0.81756  -0.77454  -0.77066
 Alpha  occ. eigenvalues --   -0.75342  -0.73219  -0.71855  -0.66099  -0.64530
 Alpha  occ. eigenvalues --   -0.62393  -0.61216  -0.59476  -0.56392  -0.52827
 Alpha  occ. eigenvalues --   -0.51267  -0.50399  -0.49002  -0.47623  -0.46416
 Alpha  occ. eigenvalues --   -0.44886  -0.44701  -0.43949  -0.43321  -0.42952
 Alpha  occ. eigenvalues --   -0.41597  -0.41339  -0.40857  -0.39617  -0.38929
 Alpha  occ. eigenvalues --   -0.38323  -0.37989  -0.37302  -0.36872  -0.35722
 Alpha  occ. eigenvalues --   -0.35178  -0.34475  -0.33454  -0.32406  -0.30142
 Alpha  occ. eigenvalues --   -0.28113  -0.26912  -0.24198  -0.23304  -0.20988
 Alpha virt. eigenvalues --   -0.03414  -0.00443   0.03566   0.05368   0.08073
 Alpha virt. eigenvalues --    0.09557   0.10584   0.10995   0.11706   0.12384
 Alpha virt. eigenvalues --    0.12643   0.14099   0.15212   0.15287   0.15921

 Mulliken atomic charges:
              1
     1  C   -0.444441
     2  C   -0.146289
     3  N   -0.437642
     4  C    0.791725
     5  O   -0.505294
     6  O   -0.548582
     7  C    0.381720
     8  C   -0.157353
     9  C   -0.221952
    10  C    0.156774
    11  C    0.134460
    12  C   -0.251574
    13  C   -0.199181
    14  C   -0.158510
    15  C   -0.110873
    16  C   -0.211314
    17  C   -0.144957
    18  C   -0.443218
    19  H    0.150056
    20  H    0.145770
    21  H    0.174590
    22  H    0.146182
    23  H    0.185263
    24  H    0.140155
    25  H    0.130549
    26  H    0.139987
    27  H    0.123095
    28  H    0.119633
    29  H    0.134950
    30  H    0.129012
    31  H    0.177639
    32  H    0.152385
    33  H    0.164994
    34  H    0.150248
    35  H    0.151993
 Sum of Mulliken atomic charges =  -0.00000

 Dipole moment (field-independent basis, Debye):
    X=              2.7667    Y=              1.7534    Z=             -1.2731  Tot=              3.5142
 Quadrupole moment (field-independent basis, Debye-Ang):
   XX=            -85.9028   YY=           -101.2550   ZZ=           -109.6576
   XY=              5.5519   XZ=             -2.1214   YZ=              3.5904

 Summary of Natural Population Analysis:

                                       Natural Population
                Natural  -----------------------------------------------
    Atom  No    Charge         Core      Valence    Rydberg      Total
 -----------------------------------------------------------------------
      C    1   -0.68839      1.99945     4.68148    0.00746     6.68839
      C    2   -0.25553      1.99935     4.24078    0.01540     6.25553
      N    3   -0.49342      1.99930     5.48054    0.01358     7.49342
      C    4    0.93906      1.99936     3.01621    0.04537     5.06094
      O    5   -0.63455      1.99978     6.61568    0.01909     8.63455
      O    6   -0.53893      1.99969     6.52893    0.01032     8.53893
      C    7    0.36969      1.99872     3.60921    0.02237     5.63031
      C    8   -0.32676      1.99902     4.31190    0.01584     6.32676
      C    9   -0.20499      1.99907     4.19038    0.01554     6.20499
      C   10   -0.05223      1.99903     4.03813    0.01507     6.05223
      C   11   -0.05391      1.99903     4.03953    0.01535     6.05391
      C   12   -0.23772      1.99896     4.22310    0.01566     6.23772
      C   13   -0.21413      1.99906     4.19955    0.01551     6.21413
      C   14   -0.29767      1.99912     4.28201    0.01654     6.29767
      C   15   -0.16268      1.99911     4.14881    0.01475     6.16268
      C   16   -0.23251      1.99907     4.21790    0.01554     6.23251
      C   17   -0.26031      1.99934     4.24584    0.01512     6.26031
      C   18   -0.68775      1.99945     4.68083    0.00747     6.68775
      H   19    0.23659      0.00000     0.76257    0.00084     0.76341
      H   20    0.22479      0.00000     0.77429    0.00093     0.77521
      H   21    0.24348      0.00000     0.75528    0.00125     0.75652
      H   22    0.22804      0.00000     0.77064    0.00132     0.77196
      H   23    0.25944      0.00000     0.73863    0.00193     0.74056
      H   24    0.25099      0.00000     0.74800    0.00101     0.74901
      H   25    0.23316      0.00000     0.76574    0.00111     0.76684
      H   26    0.24136      0.00000     0.75706    0.00158     0.75864
      H   27    0.22803      0.00000     0.77083    0.00114     0.77197
      H   28    0.23246      0.00000     0.76674    0.00080     0.76754
      H   29    0.23367      0.00000     0.76547    0.00087     0.76633
      H   30    0.23104      0.00000     0.76782    0.00114     0.76896
      H   31    0.25370      0.00000     0.74490    0.00140     0.74630
      H   32    0.23316      0.00000     0.76544    0.00140     0.76684
      H   33    0.23763      0.00000     0.76100    0.00137     0.76237
      H   34    0.23648      0.00000     0.76262    0.00090     0.76352
      H   35    0.22871      0.00000     0.77039    0.00090     0.77129
 =======================================================================
   * Total *   -0.00000     35.98592    93.69821    0.31588   130.00000

 Normal termination of Gaussian 09 at Thu Sep 30 03:53:43 2021.
