 Gaussian 09, Revision A.02,

 -----------------------------------
 #p opt b3lyp/6-31G* scf=(xqc,tight)
 -----------------------------------

 --------------------------------------
 O=C(OC(C)(C)C)Oc1ccc2c(c1)cccc2_conf_0
 --------------------------------------
 Symbolic Z-matrix:
 Charge =  0 Multiplicity = 1

 SCF Done:  E(RB3LYP) =  -806.932959551     A.U. after   15 cycles
 SCF Done:  E(RB3LYP) =  -806.939407231     A.U. after   12 cycles
 SCF Done:  E(RB3LYP) =  -806.938832027     A.U. after   12 cycles
 SCF Done:  E(RB3LYP) =  -806.940040241     A.U. after   12 cycles
 SCF Done:  E(RB3LYP) =  -806.940204767     A.U. after   12 cycles
 SCF Done:  E(RB3LYP) =  -806.940602696     A.U. after   12 cycles
 SCF Done:  E(RB3LYP) =  -806.940708685     A.U. after   11 cycles
 SCF Done:  E(RB3LYP) =  -806.940717501     A.U. after    9 cycles
 SCF Done:  E(RB3LYP) =  -806.940718553     A.U. after    9 cycles
 SCF Done:  E(RB3LYP) =  -806.940720531     A.U. after    9 cycles
 SCF Done:  E(RB3LYP) =  -806.940721029     A.U. after    8 cycles
 SCF Done:  E(RB3LYP) =  -806.940721718     A.U. after    8 cycles
 SCF Done:  E(RB3LYP) =  -806.940722153     A.U. after    8 cycles
 SCF Done:  E(RB3LYP) =  -806.940722469     A.U. after    8 cycles
 SCF Done:  E(RB3LYP) =  -806.940722588     A.U. after    8 cycles
 SCF Done:  E(RB3LYP) =  -806.940722609     A.U. after    6 cycles
 Optimization completed.
    -- Stationary point found.
 Normal termination of Gaussian 09 at Wed Sep 29 16:50:17 2021.

 ----------------------------------------------------------------------
 #p freq b3lyp/6-31G* volume NMR pop=NPA density=current Geom=AllCheck
 Guess=Read
 ----------------------------------------------------------------------

 O=C(OC(C)(C)C)Oc1ccc2c(c1)cccc2_conf_0
 --------------------------------------
 Redundant internal coordinates taken from checkpoint file:
 C15H16O3_6261_conf_0.chk
 Charge =  0 Multiplicity = 1

 SCF Done:  E(RB3LYP) =  -806.940722609     A.U. after    1 cycles

  1  O    Isotropic =    50.1046   Anisotropy =   369.4565

  2  C    Isotropic =    45.6611   Anisotropy =    92.4293

  3  O    Isotropic =   141.4631   Anisotropy =    71.1729

  4  C    Isotropic =   108.8078   Anisotropy =    72.0632

  5  C    Isotropic =   165.2400   Anisotropy =    35.2388

  6  C    Isotropic =   159.3527   Anisotropy =    41.6069

  7  C    Isotropic =   165.1132   Anisotropy =    34.8610

  8  O    Isotropic =   136.4458   Anisotropy =   129.6406

  9  C    Isotropic =    46.4150   Anisotropy =   102.9805

 10  C    Isotropic =    76.2686   Anisotropy =   137.3051

 11  C    Isotropic =    66.8910   Anisotropy =   143.4177

 12  C    Isotropic =    66.2318   Anisotropy =   195.7172

 13  C    Isotropic =    62.8852   Anisotropy =   194.7113

 14  C    Isotropic =    76.6676   Anisotropy =   133.8082

 15  C    Isotropic =    67.3846   Anisotropy =   145.6566

 16  C    Isotropic =    69.9007   Anisotropy =   162.3397

 17  C    Isotropic =    71.0505   Anisotropy =   160.8274

 18  C    Isotropic =    68.0390   Anisotropy =   145.7821

 19  H    Isotropic =    30.8769   Anisotropy =     6.8503

 20  H    Isotropic =    29.4178   Anisotropy =     6.4775

 21  H    Isotropic =    31.1205   Anisotropy =     8.2219

 22  H    Isotropic =    30.6485   Anisotropy =     7.2415

 23  H    Isotropic =    31.1255   Anisotropy =     7.9908

 24  H    Isotropic =    30.6537   Anisotropy =     7.6386

 25  H    Isotropic =    29.5174   Anisotropy =     5.6187

 26  H    Isotropic =    30.9341   Anisotropy =     7.2067

 27  H    Isotropic =    31.1672   Anisotropy =     8.2992

 28  H    Isotropic =    25.1622   Anisotropy =     7.1583

 29  H    Isotropic =    24.5801   Anisotropy =     6.7543

 30  H    Isotropic =    24.1354   Anisotropy =    11.5306

 31  H    Isotropic =    24.5333   Anisotropy =     7.9813

 32  H    Isotropic =    24.7953   Anisotropy =     5.3623

 33  H    Isotropic =    24.8273   Anisotropy =     4.9367

 34  H    Isotropic =    24.5889   Anisotropy =     6.8641

  Exact polarizability: 254.506  15.127 168.303  -6.795   4.826  84.935
 Approx polarizability: 351.278  31.750 297.845 -15.493   4.583 128.066

                     1                      2                      3
                     A                      A                      A
 Frequencies --    16.1146                31.3648                56.3096
 Red. masses --     3.6969                 4.7401                 4.5760
 Frc consts  --     0.0006                 0.0027                 0.0085
 IR Inten    --     0.1246                 0.9578                 0.6868

                     4                      5                      6
                     A                      A                      A
 Frequencies --    86.0606               113.5179               141.6271
 Red. masses --     6.0140                 4.1941                 5.0893
 Frc consts  --     0.0262                 0.0318                 0.0601
 IR Inten    --     1.0461                 0.1257                 0.6914

                     7                      8                      9
                     A                      A                      A
 Frequencies --   185.4898               194.2693               213.4713
 Red. masses --     3.7321                 4.4508                 1.0664
 Frc consts  --     0.0757                 0.0990                 0.0286
 IR Inten    --     0.4807                 2.4558                 0.0346

                    10                     11                     12
                     A                      A                      A
 Frequencies --   229.8366               264.0971               273.8364
 Red. masses --     4.2094                 1.0650                 1.0655
 Frc consts  --     0.1310                 0.0438                 0.0471
 IR Inten    --     2.1387                 0.0444                 0.0434

                    13                     14                     15
                     A                      A                      A
 Frequencies --   298.4109               316.7450               340.1351
 Red. masses --     4.6976                 3.9813                 4.7294
 Frc consts  --     0.2465                 0.2353                 0.3224
 IR Inten    --     1.7671                 1.5273                15.7123

                    16                     17                     18
                     A                      A                      A
 Frequencies --   349.7003               410.2685               420.1584
 Red. masses --     2.5249                 3.3198                 2.9864
 Frc consts  --     0.1819                 0.3292                 0.3106
 IR Inten    --     1.3700                 0.0045                 1.1902

                    19                     20                     21
                     A                      A                      A
 Frequencies --   430.9572               451.4599               459.5276
 Red. masses --     3.8215                 3.3312                 2.9714
 Frc consts  --     0.4182                 0.4000                 0.3697
 IR Inten    --     9.9069                 0.9107                 2.6492

                    22                     23                     24
                     A                      A                      A
 Frequencies --   488.4713               524.7504               535.7626
 Red. masses --     2.5926                 6.3380                 3.9604
 Frc consts  --     0.3645                 1.0283                 0.6698
 IR Inten    --    10.1082                 0.4258                 0.3716

                    25                     26                     27
                     A                      A                      A
 Frequencies --   551.2456               636.3553               646.1252
 Red. masses --     4.4461                 6.4961                 3.4591
 Frc consts  --     0.7960                 1.5499                 0.8508
 IR Inten    --     0.5236                 9.2323                 0.3897

                    28                     29                     30
                     A                      A                      A
 Frequencies --   716.3848               751.1446               768.0220
 Red. masses --     5.7114                 3.1298                 1.7365
 Frc consts  --     1.7270                 1.0404                 0.6035
 IR Inten    --     8.6726                 4.2810                24.5373

                    31                     32                     33
                     A                      A                      A
 Frequencies --   770.2648               773.3141               786.3385
 Red. masses --     6.0339                 4.0971                 4.9191
 Frc consts  --     2.1093                 1.4436                 1.7921
 IR Inten    --    12.6532                 7.8365                 0.6635

                    34                     35                     36
                     A                      A                      A
 Frequencies --   793.4013               831.2190               870.2492
 Red. masses --     4.0767                 1.3823                 1.8574
 Frc consts  --     1.5120                 0.5627                 0.8288
 IR Inten    --     1.2403                22.8829                34.2678

                    37                     38                     39
                     A                      A                      A
 Frequencies --   880.0094               898.7488               925.7609
 Red. masses --     2.6730                 1.6413                 5.2194
 Frc consts  --     1.2196                 0.7811                 2.6356
 IR Inten    --    66.3029                12.0541                 9.7259

                    40                     41                     42
                     A                      A                      A
 Frequencies --   936.1376               938.8057               953.5818
 Red. masses --     1.6416                 1.6218                 1.3118
 Frc consts  --     0.8476                 0.8422                 0.7028
 IR Inten    --     0.1502                 1.1565                 2.7119

                    43                     44                     45
                     A                      A                      A
 Frequencies --   965.0103               977.3001               983.9327
 Red. masses --     1.3133                 4.8728                 1.1983
 Frc consts  --     0.7206                 2.7421                 0.6835
 IR Inten    --     1.0792                26.7929                 0.1800

                    46                     47                     48
                     A                      A                      A
 Frequencies --   989.8921              1049.6774              1056.0233
 Red. masses --     1.2712                 2.6654                 2.3237
 Frc consts  --     0.7339                 1.7303                 1.5268
 IR Inten    --     0.0293                 1.3668                 0.9587

                    49                     50                     51
                     A                      A                      A
 Frequencies --  1066.2110              1080.8120              1153.9905
 Red. masses --     1.4010                 1.8183                 1.6495
 Frc consts  --     0.9384                 1.2515                 1.2942
 IR Inten    --     0.4211                 4.3942                 5.2965

                    52                     53                     54
                     A                      A                      A
 Frequencies --  1177.1738              1188.3777              1195.9445
 Red. masses --     1.2397                 1.1917                 2.0954
 Frc consts  --     1.0121                 0.9916                 1.7658
 IR Inten    --     0.9048                35.7985               804.3185

                    55                     56                     57
                     A                      A                      A
 Frequencies --  1213.5759              1254.4464              1284.1100
 Red. masses --     1.9756                 2.7449                 2.6864
 Frc consts  --     1.7143                 2.5450                 2.6099
 IR Inten    --   278.8268                27.3382                30.3995

                    58                     59                     60
                     A                      A                      A
 Frequencies --  1284.9070              1293.3142              1296.5388
 Red. masses --     2.3512                 2.4698                 1.9680
 Frc consts  --     2.2871                 2.4340                 1.9492
 IR Inten    --   407.0537                80.5872                12.6342

                    61                     62                     63
                     A                      A                      A
 Frequencies --  1314.8278              1398.3740              1414.0280
 Red. masses --     4.4620                 1.9312                 5.3254
 Frc consts  --     4.5448                 2.2250                 6.2736
 IR Inten    --   671.4803                 8.2073                14.4055

                    64                     65                     66
                     A                      A                      A
 Frequencies --  1425.3159              1427.6637              1429.8103
 Red. masses --     4.7222                 1.2756                 1.2956
 Frc consts  --     5.6522                 1.5319                 1.5606
 IR Inten    --    38.5307                16.7097                16.8306

                    67                     68                     69
                     A                      A                      A
 Frequencies --  1455.4815              1489.0548              1501.5581
 Red. masses --     1.2342                 2.5388                 1.0466
 Frc consts  --     1.5404                 3.3167                 1.3904
 IR Inten    --    19.0911                 1.2981                 0.4194

                    70                     71                     72
                     A                      A                      A
 Frequencies --  1517.1459              1519.6402              1521.0966
 Red. masses --     2.2096                 1.0480                 1.0508
 Frc consts  --     2.9965                 1.4259                 1.4325
 IR Inten    --    25.7268                 0.4363                 0.6264

                    73                     74                     75
                     A                      A                      A
 Frequencies --  1527.3844              1534.1598              1556.6643
 Red. masses --     1.0700                 1.0523                 1.0548
 Frc consts  --     1.4707                 1.4592                 1.5060
 IR Inten    --     9.6037                 1.0315                14.3249

                    76                     77                     78
                     A                      A                      A
 Frequencies --  1566.7260              1632.8198              1660.1139
 Red. masses --     3.4820                 7.3361                 5.3378
 Frc consts  --     5.0358                11.5238                 8.6675
 IR Inten    --    19.5151                 4.4699                38.8240

                    79                     80                     81
                     A                      A                      A
 Frequencies --  1686.1728              1821.9024              3060.0327
 Red. masses --     6.1719                11.9671                 1.0356
 Frc consts  --    10.3389                23.4039                 5.7134
 IR Inten    --    22.3594               195.9793                 7.3852

                    82                     83                     84
                     A                      A                      A
 Frequencies --  3061.2273              3068.3098              3123.6395
 Red. masses --     1.0379                 1.0380                 1.1025
 Frc consts  --     5.7306                 5.7574                 6.3382
 IR Inten    --    20.9104                20.3919                 6.9557

                    85                     86                     87
                     A                      A                      A
 Frequencies --  3125.3395              3138.0758              3138.4545
 Red. masses --     1.1024                 1.1033                 1.1026
 Frc consts  --     6.3443                 6.4015                 6.3987
 IR Inten    --    16.2898                27.2515                42.5272

                    88                     89                     90
                     A                      A                      A
 Frequencies --  3167.4193              3171.0040              3178.4184
 Red. masses --     1.1003                 1.0996                 1.0858
 Frc consts  --     6.5037                 6.5146                 6.4627
 IR Inten    --     2.7084                13.9378                 2.9985

                    91                     92                     93
                     A                      A                      A
 Frequencies --  3184.0059              3189.4479              3196.8216
 Red. masses --     1.0879                 1.0887                 1.0934
 Frc consts  --     6.4982                 6.5251                 6.5839
 IR Inten    --     0.7902                 8.7056                34.6616

                    94                     95                     96
                     A                      A                      A
 Frequencies --  3209.3121              3221.2982              3254.8539
 Red. masses --     1.0972                 1.0939                 1.0914
 Frc consts  --     6.6585                 6.6879                 6.8125
 IR Inten    --    32.1207                 6.9671                 0.7052

 - Thermochemistry -
 -------------------
 Temperature   298.150 Kelvin.  Pressure   1.00000 Atm.
 Atom     1 has atomic number  8 and mass  15.99491

 Molecular mass:   244.10994 amu.
 Principal axes and moments of inertia in atomic units:
                           1         2         3
     Eigenvalues --  1379.22762********************
           X            1.00000  -0.00290  -0.00003
           Y            0.00290   0.99989   0.01432
           Z           -0.00001  -0.01432   0.99990
 This molecule is an asymmetric top.
 Rotational symmetry number  1.
 Warning -- assumption of classical behavior for rotation
           may cause significant error
 Rotational temperatures (Kelvin)      0.06280     0.00826     0.00761
 Rotational constants (GHZ):           1.30852     0.17211     0.15864
 Zero-point vibrational energy     733659.5 (Joules/Mol)
                                  175.34883 (Kcal/Mol)
 Warning -- explicit consideration of  25 degrees of freedom as
           vibrations may cause significant error
 Vibrational temperatures:     23.19    45.13    81.02   123.82   163.33
          (Kelvin)            203.77   266.88   279.51   307.14   330.68
                              379.98   393.99   429.35   455.72   489.38
                              503.14   590.28   604.51   620.05   649.55
                              661.16   702.80   755.00   770.84   793.12
                              915.57   929.63  1030.72  1080.73  1105.01
                             1108.24  1112.63  1131.36  1141.53  1195.94
                             1252.09  1266.14  1293.10  1331.96  1346.89
                             1350.73  1371.99  1388.43  1406.12  1415.66
                             1424.23  1510.25  1519.38  1534.04  1555.05
                             1660.33  1693.69  1709.81  1720.70  1746.06
                             1804.87  1847.55  1848.69  1860.79  1865.43
                             1891.74  2011.95  2034.47  2050.71  2054.09
                             2057.18  2094.11  2142.42  2160.40  2182.83
                             2186.42  2188.52  2197.56  2207.31  2239.69
                             2254.17  2349.26  2388.53  2426.02  2621.31
                             4402.70  4404.42  4414.61  4494.21  4496.66
                             4514.99  4515.53  4557.20  4562.36  4573.03
                             4581.07  4588.90  4599.51  4617.48  4634.72
                             4683.00

 Zero-point correction=                           0.279436 (Hartree/Particle)
 Thermal correction to Energy=                    0.295758
 Thermal correction to Enthalpy=                  0.296702
 Thermal correction to Gibbs Free Energy=         0.234392
 Sum of electronic and zero-point Energies=           -806.661286
 Sum of electronic and thermal Energies=              -806.644964
 Sum of electronic and thermal Enthalpies=            -806.644020
 Sum of electronic and thermal Free Energies=         -806.706330

                     E (Thermal)             CV                S
                      KCal/Mol        Cal/Mol-Kelvin    Cal/Mol-Kelvin
 Total                  185.591             63.782            131.143
 Electronic               0.000              0.000              0.000
 Translational            0.889              2.981             42.378
 Rotational               0.889              2.981             33.464
 Vibrational            183.814             57.821             55.300
 Vibration     1          0.593              1.986              7.063
 Vibration     2          0.594              1.983              5.741
 Vibration     3          0.596              1.975              4.583
 Vibration     4          0.601              1.959              3.748
 Vibration     5          0.607              1.938              3.208
 Vibration     6          0.615              1.912              2.782
 Vibration     7          0.632              1.860              2.272
 Vibration     8          0.635              1.848              2.187
 Vibration     9          0.644              1.820              2.014
 Vibration    10          0.652              1.795              1.880
 Vibration    11          0.671              1.739              1.635
 Vibration    12          0.676              1.722              1.572
 Vibration    13          0.691              1.677              1.426
 Vibration    14          0.704              1.642              1.327
 Vibration    15          0.720              1.595              1.212
 Vibration    16          0.727              1.576              1.168
 Vibration    17          0.774              1.448              0.926
 Vibration    18          0.783              1.426              0.891
 Vibration    19          0.792              1.403              0.856
 Vibration    20          0.810              1.358              0.791
 Vibration    21          0.817              1.340              0.767
 Vibration    22          0.844              1.276              0.688
 Vibration    23          0.880              1.195              0.599
 Vibration    24          0.891              1.171              0.574
 Vibration    25          0.907              1.137              0.542

 Optimization completed.
    -- Stationary point found.
 Normal termination of Gaussian 09 at Wed Sep 29 18:24:55 2021.
 Gaussian 09:  AM64L-G09RevA.02 11-Jun-2009

 ----------------------------------------------------------------------
 #p TD(NStates=10, Root=1) b3lyp/6-31G* volume pop=NPA density=current
 Geom=AllCheck Guess=Read
 ----------------------------------------------------------------------

 O=C(OC(C)(C)C)Oc1ccc2c(c1)cccc2_conf_0
 --------------------------------------
 Redundant internal coordinates taken from checkpoint file:
 C15H16O3_6261_conf_0.chk
 Charge =  0 Multiplicity = 1

                         Standard orientation:
 ---------------------------------------------------------------------
 Center     Atomic      Atomic             Coordinates (Angstroms)
 Number     Number       Type             X           Y           Z
 ---------------------------------------------------------------------
      1          8           0        1.497299   -0.988017    0.604627
      2          6           0        1.741917    0.053178    0.038920
      3          8           0        2.934103    0.549133   -0.294595
      4          6           0        4.174384   -0.196342    0.012538
      5          6           0        4.171164   -1.536871   -0.727784
      6          6           0        5.255272    0.733387   -0.542695
      7          6           0        4.319420   -0.363167    1.527773
      8          8           0        0.830146    0.967357   -0.386102
      9          6           0       -0.539991    0.783368   -0.201564
     10          6           0       -1.255298    1.990243   -0.013454
     11          6           0       -2.622880    1.960794    0.113675
     12          6           0       -3.336000    0.732917    0.060847
     13          6           0       -2.597425   -0.479548   -0.132802
     14          6           0       -1.183719   -0.429782   -0.270051
     15          6           0       -3.307183   -1.709818   -0.188324
     16          6           0       -4.677442   -1.740452   -0.058442
     17          6           0       -5.406496   -0.541248    0.133997
     18          6           0       -4.748469    0.666717    0.192185
     19          1           0        4.014965   -1.379686   -1.800560
     20          1           0        3.390472   -2.198142   -0.347953
     21          1           0        5.140975   -2.028856   -0.594483
     22          1           0        5.117202    0.888716   -1.617334
     23          1           0        6.245460    0.295903   -0.378444
     24          1           0        5.218908    1.708112   -0.046114
     25          1           0        3.538609   -1.009441    1.932119
     26          1           0        4.267895    0.611311    2.025413
     27          1           0        5.294683   -0.808463    1.753633
     28          1           0       -0.699136    2.921326    0.023970
     29          1           0       -3.175583    2.885808    0.257845
     30          1           0       -0.626929   -1.347045   -0.408199
     31          1           0       -2.746388   -2.629905   -0.333642
     32          1           0       -5.206187   -2.688835   -0.102415
     33          1           0       -6.487645   -0.579299    0.235734
     34          1           0       -5.303210    1.590458    0.340080
 ---------------------------------------------------------------------

 SCF Done:  E(RB3LYP) =  -806.940722609     A.U. after    2 cycles

 Excitation energies and oscillator strengths:

 Excited State   1:      Singlet-A      4.3511 eV  284.95 nm  f=0.0329  <S**2>=0.000
      64 -> 66         0.24700
      64 -> 67         0.15323
      65 -> 66         0.59503
      65 -> 67        -0.23728
 This state for optimization and/or second-order correction.
 Total Energy, E(TD-HF/TD-KS) =  -806.780822279
 Copying the excited state density for this state as the 1-particle RhoCI density.

 Excited State   2:      Singlet-A      4.4954 eV  275.80 nm  f=0.0114  <S**2>=0.000
      64 -> 66         0.44968
      65 -> 66        -0.33795
      65 -> 67        -0.42021

 Excited State   3:      Singlet-A      5.7099 eV  217.14 nm  f=1.0302  <S**2>=0.000
      62 -> 66        -0.13165
      63 -> 66         0.20640
      64 -> 66         0.40614
      64 -> 67         0.11801
      65 -> 67         0.44061
      65 -> 69         0.22052

 Excited State   4:      Singlet-A      5.7344 eV  216.21 nm  f=0.1321  <S**2>=0.000
      62 -> 66         0.21398
      63 -> 66        -0.38426
      64 -> 66         0.11758
      65 -> 67         0.15222
      65 -> 68         0.50837

 Excited State   5:      Singlet-A      5.8987 eV  210.19 nm  f=0.0335  <S**2>=0.000
      62 -> 66         0.43347
      63 -> 66         0.45819
      64 -> 67        -0.10801
      65 -> 68         0.20738

 Excited State   6:      Singlet-A      6.0418 eV  205.21 nm  f=0.1686  <S**2>=0.000
      62 -> 66         0.14476
      64 -> 67         0.63232
      65 -> 66        -0.13510
      65 -> 69        -0.10613

 Excited State   7:      Singlet-A      6.2144 eV  199.51 nm  f=0.0167  <S**2>=0.000
      60 -> 66        -0.17968
      62 -> 67         0.20006
      63 -> 67        -0.30895
      64 -> 68         0.39673
      64 -> 69        -0.10085
      65 -> 69        -0.37729

 Excited State   8:      Singlet-A      6.3161 eV  196.30 nm  f=0.2850  <S**2>=0.000
      62 -> 66        -0.22686
      63 -> 66         0.10566
      63 -> 67        -0.21774
      64 -> 66        -0.18999
      64 -> 67         0.12296
      64 -> 68         0.21264
      65 -> 67        -0.17127
      65 -> 68         0.30854
      65 -> 69         0.37529

 Excited State   9:      Singlet-A      6.5243 eV  190.03 nm  f=0.0047  <S**2>=0.000
      62 -> 66        -0.10764
      62 -> 67         0.41703
      62 -> 68         0.11978
      62 -> 69         0.16666
      63 -> 66        -0.11049
      63 -> 67         0.35629
      63 -> 68         0.18166
      63 -> 69         0.20409
      64 -> 68         0.12419
      64 -> 69        -0.13346

 Excited State  10:      Singlet-A      6.5717 eV  188.66 nm  f=0.0229  <S**2>=0.000
      60 -> 66         0.19294
      62 -> 66         0.38955
      63 -> 66        -0.20321
      63 -> 67        -0.13027
      64 -> 68         0.22866
      65 -> 68        -0.28435
      65 -> 69         0.29906

 The electronic state is 1-A.
 Alpha  occ. eigenvalues --  -19.20492 -19.19185 -19.13832 -10.36503 -10.26426
 Alpha  occ. eigenvalues --  -10.25407 -10.19925 -10.19664 -10.19455 -10.19339
 Alpha  occ. eigenvalues --  -10.19008 -10.18987 -10.18906 -10.18889 -10.18860
 Alpha  occ. eigenvalues --  -10.18349 -10.18018 -10.17947  -1.14073  -1.05615
 Alpha  occ. eigenvalues --   -1.02255  -0.87237  -0.82678  -0.81185  -0.77242
 Alpha  occ. eigenvalues --   -0.74573  -0.72055  -0.69908  -0.69787  -0.67208
 Alpha  occ. eigenvalues --   -0.62578  -0.60252  -0.59735  -0.56011  -0.51700
 Alpha  occ. eigenvalues --   -0.51358  -0.50971  -0.49089  -0.48126  -0.46705
 Alpha  occ. eigenvalues --   -0.45376  -0.45190  -0.44481  -0.44064  -0.42480
 Alpha  occ. eigenvalues --   -0.41774  -0.41317  -0.40894  -0.39588  -0.39014
 Alpha  occ. eigenvalues --   -0.38280  -0.37909  -0.37343  -0.36474  -0.36073
 Alpha  occ. eigenvalues --   -0.34737  -0.34270  -0.34081  -0.33085  -0.30873
 Alpha  occ. eigenvalues --   -0.30246  -0.28395  -0.27823  -0.23641  -0.21215
 Alpha virt. eigenvalues --   -0.03674  -0.00787   0.03007   0.04241   0.07992
 Alpha virt. eigenvalues --    0.08897   0.09982   0.10604   0.11708   0.12589
 Alpha virt. eigenvalues --    0.14473   0.15023   0.15876   0.16016   0.16578

 Mulliken atomic charges:
              1
     1  O   -0.474839
     2  C    0.801220
     3  O   -0.485213
     4  C    0.302835
     5  C   -0.469185
     6  C   -0.450165
     7  C   -0.468907
     8  O   -0.495165
     9  C    0.353763
    10  C   -0.189465
    11  C   -0.215651
    12  C    0.156468
    13  C    0.123880
    14  C   -0.222447
    15  C   -0.195161
    16  C   -0.155892
    17  C   -0.111076
    18  C   -0.207582
    19  H    0.153646
    20  H    0.185791
    21  H    0.149332
    22  H    0.159614
    23  H    0.149099
    24  H    0.159854
    25  H    0.188318
    26  H    0.154191
    27  H    0.148553
    28  H    0.135160
    29  H    0.129780
    30  H    0.167623
    31  H    0.130159
    32  H    0.122899
    33  H    0.137353
    34  H    0.131210
 Sum of Mulliken atomic charges =  -0.00000

 Dipole moment (field-independent basis, Debye):
    X=              1.8578    Y=             -0.0283    Z=             -0.2124  Tot=              1.8702
 Quadrupole moment (field-independent basis, Debye-Ang):
   XX=            -82.6943   YY=           -101.5079   ZZ=           -108.1485
   XY=             -2.5670   XZ=             -0.6822   YZ=              3.2062

 Summary of Natural Population Analysis:

                                       Natural Population
                Natural  -----------------------------------------------
    Atom  No    Charge         Core      Valence    Rydberg      Total
 -----------------------------------------------------------------------
      O    1   -0.63406      1.99976     6.61419    0.02012     8.63406
      C    2    1.05909      1.99953     2.88950    0.05188     4.94091
      O    3   -0.55684      1.99970     6.54449    0.01266     8.55684
      C    4    0.28203      1.99900     3.70015    0.01882     5.71797
      C    5   -0.70361      1.99932     4.69511    0.00918     6.70361
      C    6   -0.68552      1.99932     4.67599    0.01021     6.68552
      C    7   -0.70374      1.99932     4.69519    0.00923     6.70374
      O    8   -0.50583      1.99968     6.49478    0.01137     8.50583
      C    9    0.36409      1.99870     3.61536    0.02184     5.63591
      C   10   -0.32882      1.99904     4.31264    0.01714     6.32882
      C   11   -0.21299      1.99907     4.19825    0.01567     6.21299
      C   12   -0.05231      1.99903     4.03822    0.01506     6.05231
      C   13   -0.05052      1.99903     4.03608    0.01540     6.05052
      C   14   -0.25134      1.99897     4.23754    0.01484     6.25134
      C   15   -0.20409      1.99906     4.18957    0.01546     6.20409
      C   16   -0.29477      1.99912     4.27926    0.01638     6.29477
      C   17   -0.16195      1.99911     4.14809    0.01475     6.16195
      C   18   -0.22592      1.99907     4.21143    0.01543     6.22592
      H   19    0.23851      0.00000     0.76034    0.00115     0.76149
      H   20    0.25729      0.00000     0.74154    0.00117     0.74271
      H   21    0.23984      0.00000     0.75940    0.00076     0.76016
      H   22    0.24294      0.00000     0.75598    0.00107     0.75706
      H   23    0.23789      0.00000     0.76144    0.00067     0.76211
      H   24    0.24314      0.00000     0.75578    0.00107     0.75686
      H   25    0.25869      0.00000     0.74018    0.00113     0.74131
      H   26    0.23896      0.00000     0.75990    0.00114     0.76104
      H   27    0.23933      0.00000     0.75990    0.00076     0.76067
      H   28    0.24644      0.00000     0.75257    0.00099     0.75356
      H   29    0.23347      0.00000     0.76544    0.00109     0.76653
      H   30    0.25850      0.00000     0.73999    0.00151     0.74150
      H   31    0.23139      0.00000     0.76748    0.00113     0.76861
      H   32    0.23405      0.00000     0.76515    0.00080     0.76595
      H   33    0.23474      0.00000     0.76440    0.00086     0.76526
      H   34    0.23187      0.00000     0.76699    0.00114     0.76813
 =======================================================================
   * Total *    0.00000     35.98583    93.69229    0.32188   130.00000

 Normal termination of Gaussian 09 at Thu Sep 30 01:11:15 2021.
