 Gaussian 09, Revision A.02,

 -----------------------------------
 #p opt b3lyp/6-31G* scf=(xqc,tight)
 -----------------------------------

 -----------------------------------
 C1CCC(CC1)N1C=CN(C1)C1CCCCC1_conf_0
 -----------------------------------
 Symbolic Z-matrix:
 Charge =  0 Multiplicity = 1

 SCF Done:  E(RB3LYP) =  -696.722434837     A.U. after   14 cycles
 SCF Done:  E(RB3LYP) =  -696.728123648     A.U. after   12 cycles
 SCF Done:  E(RB3LYP) =  -696.731805175     A.U. after   11 cycles
 SCF Done:  E(RB3LYP) =  -696.733478252     A.U. after   11 cycles
 SCF Done:  E(RB3LYP) =  -696.733825410     A.U. after   11 cycles
 SCF Done:  E(RB3LYP) =  -696.733895924     A.U. after   10 cycles
 SCF Done:  E(RB3LYP) =  -696.733903273     A.U. after   10 cycles
 SCF Done:  E(RB3LYP) =  -696.733902762     A.U. after    7 cycles
 SCF Done:  E(RB3LYP) =  -696.733901053     A.U. after    8 cycles
 SCF Done:  E(RB3LYP) =  -696.733899591     A.U. after    7 cycles
 Optimization completed.
    -- Stationary point found.
 Normal termination of Gaussian 09 at Fri Oct  1 22:07:21 2021.

 ----------------------------------------------------------------------
 #p freq b3lyp/6-31G* volume NMR pop=NPA density=current Geom=AllCheck
 Guess=Read
 ----------------------------------------------------------------------

 C1CCC(CC1)N1C=CN(C1)C1CCCCC1_conf_0
 -----------------------------------
 Redundant internal coordinates taken from checkpoint file:
 C15H26N2_bd68_conf_0.chk
 Charge =  0 Multiplicity = 1

 SCF Done:  E(RB3LYP) =  -696.733899591     A.U. after    1 cycles

  1  C    Isotropic =   162.4612   Anisotropy =     3.2760

  2  C    Isotropic =   161.8340   Anisotropy =     5.5515

  3  C    Isotropic =   156.3887   Anisotropy =    12.4710

  4  C    Isotropic =   131.4855   Anisotropy =    41.0289

  5  C    Isotropic =   163.7478   Anisotropy =    21.4660

  6  C    Isotropic =   162.5032   Anisotropy =     8.6651

  7  N    Isotropic =   176.7777   Anisotropy =    97.8452

  8  C    Isotropic =    77.7712   Anisotropy =    67.8837

  9  C    Isotropic =    84.2543   Anisotropy =    83.4720

 10  N    Isotropic =   178.9568   Anisotropy =    81.0931

 11  C    Isotropic =   122.8956   Anisotropy =    39.1360

 12  C    Isotropic =   133.2733   Anisotropy =    38.5040

 13  C    Isotropic =   156.3340   Anisotropy =    14.1231

 14  C    Isotropic =   161.8344   Anisotropy =     5.8271

 15  C    Isotropic =   162.3241   Anisotropy =     2.2153

 16  C    Isotropic =   162.3028   Anisotropy =     7.5937

 17  C    Isotropic =   162.0631   Anisotropy =    19.5268

 18  H    Isotropic =    30.6761   Anisotropy =     9.8494

 19  H    Isotropic =    30.9776   Anisotropy =     7.5594

 20  H    Isotropic =    30.4922   Anisotropy =     9.7859

 21  H    Isotropic =    30.7871   Anisotropy =     8.2040

 22  H    Isotropic =    30.8954   Anisotropy =     5.0553

 23  H    Isotropic =    30.3149   Anisotropy =     7.0402

 24  H    Isotropic =    29.4037   Anisotropy =     3.9790

 25  H    Isotropic =    30.5247   Anisotropy =     6.2076

 26  H    Isotropic =    30.8188   Anisotropy =     7.0013

 27  H    Isotropic =    30.4790   Anisotropy =     9.2514

 28  H    Isotropic =    30.8379   Anisotropy =     7.9453

 29  H    Isotropic =    27.3766   Anisotropy =     2.7259

 30  H    Isotropic =    27.2820   Anisotropy =     3.3785

 31  H    Isotropic =    27.9991   Anisotropy =     5.1306

 32  H    Isotropic =    27.8121   Anisotropy =     8.6757

 33  H    Isotropic =    29.8427   Anisotropy =     4.0117

 34  H    Isotropic =    30.4328   Anisotropy =     7.3355

 35  H    Isotropic =    30.8396   Anisotropy =     5.0004

 36  H    Isotropic =    30.7654   Anisotropy =     7.8538

 37  H    Isotropic =    30.4652   Anisotropy =     9.9698

 38  H    Isotropic =    30.6395   Anisotropy =     9.8403

 39  H    Isotropic =    30.8958   Anisotropy =     7.8534

 40  H    Isotropic =    30.8929   Anisotropy =     7.6180

 41  H    Isotropic =    30.4643   Anisotropy =     9.2249

 42  H    Isotropic =    30.2007   Anisotropy =     7.6800

 43  H    Isotropic =    31.2113   Anisotropy =     5.1723

  Exact polarizability: 216.741  -0.127 142.771  -1.323  -3.373 143.528
 Approx polarizability: 261.804   3.165 209.276  -4.681 -12.039 225.187

                     1                      2                      3
                     A                      A                      A
 Frequencies --    34.5609                41.4583                52.7779
 Red. masses --     3.8154                 2.8942                 3.0836
 Frc consts  --     0.0027                 0.0029                 0.0051
 IR Inten    --     0.1093                 0.0912                 0.0867

                     4                      5                      6
                     A                      A                      A
 Frequencies --   100.8088               111.0095               119.2717
 Red. masses --     2.9607                 2.9412                 3.8370
 Frc consts  --     0.0177                 0.0214                 0.0322
 IR Inten    --     0.1917                 0.3894                 1.1796

                     7                      8                      9
                     A                      A                      A
 Frequencies --   191.4435               218.9875               226.1372
 Red. masses --     3.0780                 2.3415                 2.2383
 Frc consts  --     0.0665                 0.0662                 0.0674
 IR Inten    --     0.4652                 0.3796                 0.1689

                    10                     11                     12
                     A                      A                      A
 Frequencies --   229.2063               238.9268               294.7583
 Red. masses --     2.2834                 2.1550                 2.2807
 Frc consts  --     0.0707                 0.0725                 0.1167
 IR Inten    --     0.1646                 0.0891                 1.2101

                    13                     14                     15
                     A                      A                      A
 Frequencies --   333.1000               352.5163               364.7558
 Red. masses --     2.3861                 2.4951                 2.5725
 Frc consts  --     0.1560                 0.1827                 0.2017
 IR Inten    --     2.1654                 1.1100                 1.5946

                    16                     17                     18
                     A                      A                      A
 Frequencies --   371.2690               411.2714               442.6930
 Red. masses --     2.8395                 3.1159                 3.1293
 Frc consts  --     0.2306                 0.3105                 0.3613
 IR Inten    --     6.0741                13.5461                 0.0158

                    19                     20                     21
                     A                      A                      A
 Frequencies --   454.8616               467.9323               482.3688
 Red. masses --     3.2465                 2.2947                 2.7565
 Frc consts  --     0.3957                 0.2960                 0.3779
 IR Inten    --     4.7404                 2.7370                 4.2830

                    22                     23                     24
                     A                      A                      A
 Frequencies --   503.1964               513.3654               596.3205
 Red. masses --     1.5452                 1.7358                 5.7052
 Frc consts  --     0.2305                 0.2695                 1.1953
 IR Inten    --     1.8015                 1.7395                37.2415

                    25                     26                     27
                     A                      A                      A
 Frequencies --   683.1312               713.2892               768.2921
 Red. masses --     1.4616                 2.4472                 2.3059
 Frc consts  --     0.4019                 0.7336                 0.8020
 IR Inten    --    20.2655                11.0425                 1.1621

                    28                     29                     30
                     A                      A                      A
 Frequencies --   784.6358               798.0291               799.0269
 Red. masses --     1.3251                 1.5034                 1.5232
 Frc consts  --     0.4806                 0.5641                 0.5730
 IR Inten    --    55.0664                 1.2773                 0.7662

                    31                     32                     33
                     A                      A                      A
 Frequencies --   804.8358               820.1313               854.3151
 Red. masses --     2.2293                 3.3846                 2.3007
 Frc consts  --     0.8508                 1.3413                 0.9893
 IR Inten    --     0.7504                 5.0177                 0.0077

                    34                     35                     36
                     A                      A                      A
 Frequencies --   858.0577               900.9152               903.2624
 Red. masses --     2.2244                 1.9177                 1.6606
 Frc consts  --     0.9649                 0.9171                 0.7983
 IR Inten    --     0.0286                22.4366                 4.5751

                    37                     38                     39
                     A                      A                      A
 Frequencies --   906.5630               909.1396               912.1630
 Red. masses --     2.0249                 1.7838                 2.2396
 Frc consts  --     0.9805                 0.8687                 1.0979
 IR Inten    --    13.8416                 3.5557                 6.4529

                    40                     41                     42
                     A                      A                      A
 Frequencies --   932.8131               937.0589               939.9174
 Red. masses --     2.6796                 1.5194                 1.9650
 Frc consts  --     1.3738                 0.7860                 1.0228
 IR Inten    --     7.3449                 0.2552                 2.7382

                    43                     44                     45
                     A                      A                      A
 Frequencies --  1015.6156              1018.3692              1040.3499
 Red. masses --     2.2996                 2.3199                 1.8374
 Frc consts  --     1.3975                 1.4175                 1.1717
 IR Inten    --     4.4065                 5.9558                 0.5042

                    46                     47                     48
                     A                      A                      A
 Frequencies --  1041.9438              1068.4921              1069.1809
 Red. masses --     1.8489                 1.4641                 1.4457
 Frc consts  --     1.1826                 0.9848                 0.9737
 IR Inten    --     0.7060                 0.5055                 2.1686

                    49                     50                     51
                     A                      A                      A
 Frequencies --  1087.6775              1093.6622              1097.3619
 Red. masses --     1.4318                 1.1091                 1.2412
 Frc consts  --     0.9980                 0.7816                 0.8806
 IR Inten    --     0.6845                 1.0495                 1.3091

                    52                     53                     54
                     A                      A                      A
 Frequencies --  1100.2645              1105.6728              1116.2466
 Red. masses --     2.9196                 2.7409                 3.0824
 Frc consts  --     2.0824                 1.9742                 2.2629
 IR Inten    --     0.7726                 2.8988               103.1623

                    55                     56                     57
                     A                      A                      A
 Frequencies --  1135.0564              1165.4643              1183.3733
 Red. masses --     1.5249                 1.8020                 2.5601
 Frc consts  --     1.1575                 1.4421                 2.1123
 IR Inten    --     8.6259                18.0897                62.1021

                    58                     59                     60
                     A                      A                      A
 Frequencies --  1204.7096              1209.2936              1219.2662
 Red. masses --     2.1549                 1.5173                 1.1933
 Frc consts  --     1.8426                 1.3073                 1.0452
 IR Inten    --    13.8257                21.1984                 5.9585

                    61                     62                     63
                     A                      A                      A
 Frequencies --  1221.4969              1229.2995              1262.9869
 Red. masses --     1.6787                 2.3797                 2.6102
 Frc consts  --     1.4758                 2.1188                 2.4532
 IR Inten    --     9.6136                23.4794                16.6772

                    64                     65                     66
                     A                      A                      A
 Frequencies --  1294.5168              1296.3847              1298.4638
 Red. masses --     1.3774                 1.2940                 1.2880
 Frc consts  --     1.3600                 1.2813                 1.2794
 IR Inten    --     0.6880                17.0683                 4.5323

                    67                     68                     69
                     A                      A                      A
 Frequencies --  1300.3689              1301.3086              1309.4135
 Red. masses --     1.2860                 1.3206                 1.6003
 Frc consts  --     1.2812                 1.3176                 1.6166
 IR Inten    --     5.7070                 9.5438                12.2842

                    70                     71                     72
                     A                      A                      A
 Frequencies --  1333.6572              1345.4810              1345.4930
 Red. masses --     1.3540                 1.3023                 1.3021
 Frc consts  --     1.4189                 1.3891                 1.3889
 IR Inten    --    38.6230                 0.3585                 0.1764

                    73                     74                     75
                     A                      A                      A
 Frequencies --  1372.6363              1380.6572              1384.2714
 Red. masses --     1.2977                 1.4194                 1.3895
 Frc consts  --     1.4406                 1.5942                 1.5687
 IR Inten    --     1.0502                 3.3338                 2.0124

                    76                     77                     78
                     A                      A                      A
 Frequencies --  1385.5156              1390.0777              1392.5269
 Red. masses --     1.4353                 1.3434                 1.3342
 Frc consts  --     1.6234                 1.5294                 1.5243
 IR Inten    --     6.7225                 4.3992                 2.2261

                    79                     80                     81
                     A                      A                      A
 Frequencies --  1398.0953              1399.3812              1400.4555
 Red. masses --     1.4740                 1.4662                 1.4813
 Frc consts  --     1.6975                 1.6916                 1.7117
 IR Inten    --     0.0664                 0.5066                19.4963

                    82                     83                     84
                     A                      A                      A
 Frequencies --  1401.2931              1425.4247              1433.2339
 Red. masses --     1.4739                 1.4680                 1.4881
 Frc consts  --     1.7052                 1.7573                 1.8010
 IR Inten    --     2.7288                13.4894                52.0681

                    85                     86                     87
                     A                      A                      A
 Frequencies --  1478.4714              1509.8135              1511.9469
 Red. masses --     1.5740                 1.0874                 1.0873
 Frc consts  --     2.0271                 1.4604                 1.4644
 IR Inten    --    35.6973                 0.0962                 0.1121

                    88                     89                     90
                     A                      A                      A
 Frequencies --  1514.6222              1515.4140              1517.6020
 Red. masses --     1.0931                 1.0929                 1.0973
 Frc consts  --     1.4775                 1.4788                 1.4889
 IR Inten    --     1.0290                 1.2001                 2.1970

                    91                     92                     93
                     A                      A                      A
 Frequencies --  1518.4767              1521.2795              1522.4845
 Red. masses --     1.0970                 1.0841                 1.0844
 Frc consts  --     1.4903                 1.4782                 1.4809
 IR Inten    --     2.2837                 8.4044                 7.2005

                    94                     95                     96
                     A                      A                      A
 Frequencies --  1535.4205              1537.0936              1568.8812
 Red. masses --     1.1008                 1.1006                 1.0935
 Frc consts  --     1.5290                 1.5321                 1.5858
 IR Inten    --     1.0812                 1.2603                 5.7396

                    97                     98                     99
                     A                      A                      A
 Frequencies --  1685.9197              2827.4541              3005.8285
 Red. masses --     6.0947                 1.0751                 1.0819
 Frc consts  --    10.2064                 5.0639                 5.7593
 IR Inten    --    13.1913                98.1273                 9.9117

                   100                    101                    102
                     A                      A                      A
 Frequencies --  3009.7081              3018.6546              3019.1852
 Red. masses --     1.0817                 1.0697                 1.0683
 Frc consts  --     5.7731                 5.7430                 5.7378
 IR Inten    --     3.9815                26.5316                24.0793

                   103                    104                    105
                     A                      A                      A
 Frequencies --  3019.8175              3020.4259              3023.8745
 Red. masses --     1.0712                 1.0707                 1.0646
 Frc consts  --     5.7557                 5.7552                 5.7356
 IR Inten    --    17.7860                11.2713                13.5151

                   106                    107                    108
                     A                      A                      A
 Frequencies --  3024.9437              3028.0397              3030.1612
 Red. masses --     1.0619                 1.0633                 1.0633
 Frc consts  --     5.7248                 5.7440                 5.7521
 IR Inten    --    22.2274                37.1141                 8.7200

                   109                    110                    111
                     A                      A                      A
 Frequencies --  3035.7074              3037.4573              3039.0278
 Red. masses --     1.0671                 1.0648                 1.0778
 Frc consts  --     5.7942                 5.7879                 5.8646
 IR Inten    --    38.2662                27.7630                88.1025

                   112                    113                    114
                     A                      A                      A
 Frequencies --  3067.9782              3068.8836              3070.6062
 Red. masses --     1.0949                 1.0947                 1.0945
 Frc consts  --     6.0720                 6.0742                 6.0802
 IR Inten    --    47.5832                82.1285                99.8313

                   115                    116                    117
                     A                      A                      A
 Frequencies --  3071.1313              3074.5233              3075.0454
 Red. masses --     1.0942                 1.1000                 1.1000
 Frc consts  --     6.0805                 6.1265                 6.1285
 IR Inten    --    52.5455                23.7279                25.6035

                   118                    119                    120
                     A                      A                      A
 Frequencies --  3079.5124              3080.4242              3086.1430
 Red. masses --     1.1022                 1.1018                 1.1000
 Frc consts  --     6.1586                 6.1597                 6.1726
 IR Inten    --    39.3963                72.5596                67.4371

                   121                    122                    123
                     A                      A                      A
 Frequencies --  3090.3566              3253.4604              3280.4984
 Red. masses --     1.0985                 1.0883                 1.1051
 Frc consts  --     6.1809                 6.7873                 7.0069
 IR Inten    --    48.2982                 1.1061                 6.3195

 - Thermochemistry -
 -------------------
 Temperature   298.150 Kelvin.  Pressure   1.00000 Atm.
 Atom     1 has atomic number  6 and mass  12.00000

 Molecular mass:   234.20960 amu.
 Principal axes and moments of inertia in atomic units:
                           1         2         3
     Eigenvalues --  1549.060149349.285119797.56668
           X            1.00000  -0.00057   0.00065
           Y            0.00056   0.99991   0.01348
           Z           -0.00066  -0.01348   0.99991
 This molecule is an asymmetric top.
 Rotational symmetry number  1.
 Warning -- assumption of classical behavior for rotation
           may cause significant error
 Rotational temperatures (Kelvin)      0.05591     0.00926     0.00884
 Rotational constants (GHZ):           1.16506     0.19304     0.18420
 Zero-point vibrational energy    1040926.3 (Joules/Mol)
                                  248.78735 (Kcal/Mol)
 Warning -- explicit consideration of  24 degrees of freedom as
           vibrations may cause significant error
 Vibrational temperatures:     49.73    59.65    75.94   145.04   159.72
          (Kelvin)            171.61   275.44   315.07   325.36   329.78
                              343.76   424.09   479.26   507.19   524.80
                              534.17   591.73   636.94   654.44   673.25
                              694.02   723.99   738.62   857.97   982.87
                             1026.26  1105.40  1128.91  1148.18  1149.62
                             1157.98  1179.98  1229.17  1234.55  1296.21
                             1299.59  1304.34  1308.05  1312.40  1342.11
                             1348.22  1352.33  1461.24  1465.20  1496.83
                             1499.12  1537.32  1538.31  1564.92  1573.53
                             1578.86  1583.03  1590.81  1606.03  1633.09
                             1676.84  1702.61  1733.31  1739.90  1754.25
                             1757.46  1768.69  1817.15  1862.52  1865.21
                             1868.20  1870.94  1872.29  1883.95  1918.83
                             1935.84  1935.86  1974.91  1986.46  1991.66
                             1993.45  2000.01  2003.53  2011.54  2013.39
                             2014.94  2016.15  2050.87  2062.10  2127.19
                             2172.28  2175.35  2179.20  2180.34  2183.49
                             2184.75  2188.78  2190.51  2209.12  2211.53
                             2257.27  2425.66  4068.07  4324.71  4330.29
                             4343.17  4343.93  4344.84  4345.71  4350.68
                             4352.21  4356.67  4359.72  4367.70  4370.22
                             4372.48  4414.13  4415.43  4417.91  4418.67
                             4423.55  4424.30  4430.73  4432.04  4440.27
                             4446.33  4681.00  4719.90

 Zero-point correction=                           0.396468 (Hartree/Particle)
 Thermal correction to Energy=                    0.412371
 Thermal correction to Enthalpy=                  0.413315
 Thermal correction to Gibbs Free Energy=         0.352785
 Sum of electronic and zero-point Energies=           -696.337432
 Sum of electronic and thermal Energies=              -696.321529
 Sum of electronic and thermal Enthalpies=            -696.320585
 Sum of electronic and thermal Free Energies=         -696.381115

                     E (Thermal)             CV                S
                      KCal/Mol        Cal/Mol-Kelvin    Cal/Mol-Kelvin
 Total                  258.767             64.499            127.397
 Electronic               0.000              0.000              0.000
 Translational            0.889              2.981             42.255
 Rotational               0.889              2.981             33.317
 Vibrational            256.989             58.537             51.825
 Vibration     1          0.594              1.983              5.549
 Vibration     2          0.594              1.981              5.188
 Vibration     3          0.596              1.976              4.710
 Vibration     4          0.604              1.948              3.439
 Vibration     5          0.607              1.940              3.251
 Vibration     6          0.609              1.933              3.112
 Vibration     7          0.634              1.852              2.214
 Vibration     8          0.647              1.812              1.967
 Vibration     9          0.650              1.801              1.909
 Vibration    10          0.652              1.796              1.885
 Vibration    11          0.657              1.781              1.811
 Vibration    12          0.689              1.684              1.446
 Vibration    13          0.715              1.609              1.245
 Vibration    14          0.729              1.570              1.155
 Vibration    15          0.738              1.545              1.102
 Vibration    16          0.743              1.531              1.075
 Vibration    17          0.775              1.446              0.922
 Vibration    18          0.802              1.377              0.818
 Vibration    19          0.813              1.350              0.781
 Vibration    20          0.825              1.321              0.743
 Vibration    21          0.839              1.289              0.704
 Vibration    22          0.859              1.243              0.650
 Vibration    23          0.868              1.220              0.626
 Vibration    24          0.954              1.040              0.456

 Normal termination of Gaussian 09 at Sat Oct  2 00:45:39 2021.
 Gaussian 09:  AM64L-G09RevA.02 11-Jun-2009

 ----------------------------------------------------------------------
 #p TD(NStates=10, Root=1) b3lyp/6-31G* volume pop=NPA density=current
 Geom=AllCheck Guess=Read
 ----------------------------------------------------------------------

 C1CCC(CC1)N1C=CN(C1)C1CCCCC1_conf_0
 -----------------------------------
 Redundant internal coordinates taken from checkpoint file:
 C15H26N2_bd68_conf_0.chk
 Charge =  0 Multiplicity = 1

                         Standard orientation:
 ---------------------------------------------------------------------
 Center     Atomic      Atomic             Coordinates (Angstroms)
 Number     Number       Type             X           Y           Z
 ---------------------------------------------------------------------
      1          6           0       -4.772417    1.248793   -0.453994
      2          6           0       -4.665118   -0.156280   -1.065495
      3          6           0       -3.206150   -0.633207   -1.134987
      4          6           0       -2.526879   -0.577881    0.243424
      5          6           0       -2.624765    0.842794    0.844224
      6          6           0       -4.086967    1.313050    0.919782
      7          7           0       -1.177572   -1.145684    0.177729
      8          6           0       -0.503621   -1.458111    1.385674
      9          6           0        0.821850   -1.362006    1.214417
     10          7           0        1.107656   -0.979089   -0.122403
     11          6           0       -0.167970   -0.498772   -0.674509
     12          6           0        2.300340   -0.185867   -0.437686
     13          6           0        3.570103   -1.046307   -0.316634
     14          6           0        4.826702   -0.262941   -0.726600
     15          6           0        4.970358    1.038615    0.077177
     16          6           0        3.704803    1.902530   -0.031929
     17          6           0        2.448093    1.118326    0.378226
     18          1           0       -5.825183    1.546936   -0.368155
     19          1           0       -4.295848    1.974702   -1.129622
     20          1           0       -5.112569   -0.171661   -2.067340
     21          1           0       -5.247154   -0.862125   -0.454502
     22          1           0       -2.653624    0.007483   -1.838221
     23          1           0       -3.146479   -1.656562   -1.524285
     24          1           0       -3.086604   -1.251482    0.910271
     25          1           0       -2.051661    1.547426    0.225266
     26          1           0       -2.161421    0.850940    1.838846
     27          1           0       -4.134967    2.332472    1.323506
     28          1           0       -4.637013    0.673640    1.626664
     29          1           0       -1.054110   -1.860070    2.225791
     30          1           0        1.611652   -1.672325    1.883385
     31          1           0       -0.275309   -0.792115   -1.726760
     32          1           0       -0.238650    0.613042   -0.625229
     33          1           0        2.198004    0.089273   -1.498360
     34          1           0        3.450359   -1.946611   -0.930190
     35          1           0        3.681221   -1.385912    0.723577
     36          1           0        4.767688   -0.020304   -1.798210
     37          1           0        5.717774   -0.890696   -0.599941
     38          1           0        5.847405    1.602873   -0.264908
     39          1           0        5.149316    0.792569    1.134463
     40          1           0        3.593257    2.249865   -1.070121
     41          1           0        3.803869    2.804037    0.586304
     42          1           0        1.554019    1.743162    0.259150
     43          1           0        2.505271    0.858434    1.444812
 ---------------------------------------------------------------------

 SCF Done:  E(RB3LYP) =  -696.733899591     A.U. after    1 cycles

 Excitation energies and oscillator strengths:

 Excited State   1:      Singlet-A      5.0496 eV  245.53 nm  f=0.2406  <S**2>=0.000
      65 -> 66         0.69748
 This state for optimization and/or second-order correction.
 Total Energy, E(TD-HF/TD-KS) =  -696.548331175
 Copying the excited state density for this state as the 1-particle RhoCI density.

 Excited State   2:      Singlet-A      5.3967 eV  229.74 nm  f=0.0138  <S**2>=0.000
      65 -> 67         0.68371
      65 -> 69        -0.11634

 Excited State   3:      Singlet-A      5.6207 eV  220.59 nm  f=0.0045  <S**2>=0.000
      65 -> 68         0.62184
      65 -> 69         0.21801
      65 -> 70         0.13551
      65 -> 71        -0.16042

 Excited State   4:      Singlet-A      5.8103 eV  213.39 nm  f=0.0061  <S**2>=0.000
      65 -> 68        -0.28177
      65 -> 69         0.44705
      65 -> 70         0.44930

 Excited State   5:      Singlet-A      5.8778 eV  210.94 nm  f=0.0071  <S**2>=0.000
      65 -> 69        -0.43184
      65 -> 70         0.50522
      65 -> 71         0.16737
      65 -> 73         0.10304

 Excited State   6:      Singlet-A      6.0187 eV  206.00 nm  f=0.0016  <S**2>=0.000
      65 -> 67         0.13699
      65 -> 69         0.20353
      65 -> 71         0.64273

 Excited State   7:      Singlet-A      6.4328 eV  192.74 nm  f=0.0021  <S**2>=0.000
      65 -> 72         0.57744
      65 -> 73        -0.36058

 Excited State   8:      Singlet-A      6.5253 eV  190.01 nm  f=0.0083  <S**2>=0.000
      65 -> 72         0.37471
      65 -> 73         0.57658

 Excited State   9:      Singlet-A      6.8640 eV  180.63 nm  f=0.0036  <S**2>=0.000
      65 -> 74         0.68645
      65 -> 76        -0.10185

 Excited State  10:      Singlet-A      7.0625 eV  175.55 nm  f=0.0012  <S**2>=0.000
      65 -> 75         0.56912
      65 -> 76         0.30414
      65 -> 77         0.19436

 The electronic state is 1-A.
 Alpha  occ. eigenvalues --  -14.32470 -14.32432 -10.23070 -10.21004 -10.20986
 Alpha  occ. eigenvalues --  -10.18499 -10.18401 -10.17818 -10.17813 -10.17771
 Alpha  occ. eigenvalues --  -10.17733 -10.17720 -10.17654 -10.17551 -10.17398
 Alpha  occ. eigenvalues --  -10.17316 -10.17300  -0.96384  -0.88342  -0.82430
 Alpha  occ. eigenvalues --   -0.80888  -0.75046  -0.73642  -0.73576  -0.71994
 Alpha  occ. eigenvalues --   -0.71286  -0.63796  -0.60860  -0.60500  -0.59922
 Alpha  occ. eigenvalues --   -0.57394  -0.56693  -0.54648  -0.53634  -0.50999
 Alpha  occ. eigenvalues --   -0.47079  -0.46132  -0.45912  -0.44043  -0.44007
 Alpha  occ. eigenvalues --   -0.43503  -0.43255  -0.42838  -0.41555  -0.39921
 Alpha  occ. eigenvalues --   -0.39173  -0.38675  -0.38420  -0.37416  -0.37358
 Alpha  occ. eigenvalues --   -0.37242  -0.36373  -0.34106  -0.33933  -0.33726
 Alpha  occ. eigenvalues --   -0.33343  -0.31791  -0.31611  -0.31009  -0.30774
 Alpha  occ. eigenvalues --   -0.30421  -0.30061  -0.28787  -0.24050  -0.14354
 Alpha virt. eigenvalues --    0.05721   0.08299   0.08980   0.09810   0.10104
 Alpha virt. eigenvalues --    0.10842   0.12462   0.12645   0.13412   0.14728
 Alpha virt. eigenvalues --    0.14994   0.15304   0.15842   0.16152   0.16815

 Mulliken atomic charges:
              1
     1  C   -0.250931
     2  C   -0.262681
     3  C   -0.272021
     4  C    0.034704
     5  C   -0.254423
     6  C   -0.261018
     7  N   -0.385837
     8  C   -0.081347
     9  C   -0.090872
    10  N   -0.386164
    11  C    0.016136
    12  C    0.026503
    13  C   -0.258504
    14  C   -0.262764
    15  C   -0.254739
    16  C   -0.260269
    17  C   -0.249752
    18  H    0.128172
    19  H    0.124279
    20  H    0.133082
    21  H    0.131693
    22  H    0.125478
    23  H    0.142175
    24  H    0.135287
    25  H    0.118886
    26  H    0.134948
    27  H    0.130971
    28  H    0.129336
    29  H    0.119423
    30  H    0.126209
    31  H    0.175137
    32  H    0.176197
    33  H    0.119233
    34  H    0.138369
    35  H    0.136224
    36  H    0.126357
    37  H    0.133932
    38  H    0.130143
    39  H    0.130559
    40  H    0.123016
    41  H    0.131383
    42  H    0.123944
    43  H    0.129549
 Sum of Mulliken atomic charges =  -0.00000

 Dipole moment (field-independent basis, Debye):
    X=             -0.3843    Y=              1.5075    Z=             -1.6365  Tot=              2.2580
 Quadrupole moment (field-independent basis, Debye-Ang):
   XX=           -100.7563   YY=           -111.1155   ZZ=           -106.2797
   XY=              0.6579   XZ=             -0.3806   YZ=             -0.2825

 Summary of Natural Population Analysis:

                                       Natural Population
                Natural  -----------------------------------------------
    Atom  No    Charge         Core      Valence    Rydberg      Total
 -----------------------------------------------------------------------
      C    1   -0.45967      1.99933     4.44884    0.01150     6.45967
      C    2   -0.45707      1.99933     4.44596    0.01178     6.45707
      C    3   -0.46601      1.99929     4.45367    0.01305     6.46601
      C    4   -0.06080      1.99918     4.04164    0.01998     6.06080
      C    5   -0.46854      1.99928     4.45685    0.01242     6.46854
      C    6   -0.45795      1.99933     4.44685    0.01177     6.45795
      N    7   -0.35658      1.99938     5.34064    0.01656     7.35658
      C    8   -0.25314      1.99904     4.21849    0.03561     6.25314
      C    9   -0.25912      1.99904     4.22465    0.03543     6.25912
      N   10   -0.35392      1.99938     5.33825    0.01629     7.35392
      C   11   -0.07657      1.99935     4.05788    0.01934     6.07657
      C   12   -0.06228      1.99918     4.04199    0.02110     6.06228
      C   13   -0.46413      1.99929     4.45129    0.01355     6.46413
      C   14   -0.45816      1.99933     4.44727    0.01156     6.45816
      C   15   -0.45916      1.99933     4.44834    0.01149     6.45916
      C   16   -0.45713      1.99932     4.44630    0.01150     6.45713
      C   17   -0.46934      1.99928     4.45674    0.01333     6.46934
      H   18    0.23594      0.00000     0.76165    0.00241     0.76406
      H   19    0.22213      0.00000     0.77534    0.00253     0.77787
      H   20    0.24016      0.00000     0.75839    0.00145     0.75984
      H   21    0.22653      0.00000     0.77158    0.00190     0.77347
      H   22    0.21966      0.00000     0.77857    0.00177     0.78034
      H   23    0.24476      0.00000     0.75260    0.00264     0.75524
      H   24    0.24087      0.00000     0.75559    0.00354     0.75913
      H   25    0.21572      0.00000     0.78213    0.00216     0.78428
      H   26    0.23981      0.00000     0.75217    0.00802     0.76019
      H   27    0.23841      0.00000     0.75899    0.00259     0.76159
      H   28    0.22502      0.00000     0.77271    0.00227     0.77498
      H   29    0.22520      0.00000     0.77376    0.00104     0.77480
      H   30    0.22745      0.00000     0.77153    0.00102     0.77255
      H   31    0.25055      0.00000     0.74807    0.00138     0.74945
      H   32    0.24003      0.00000     0.75603    0.00394     0.75997
      H   33    0.23078      0.00000     0.76670    0.00252     0.76922
      H   34    0.24441      0.00000     0.75292    0.00267     0.75559
      H   35    0.22735      0.00000     0.76947    0.00319     0.77265
      H   36    0.22319      0.00000     0.77482    0.00199     0.77681
      H   37    0.24105      0.00000     0.75745    0.00149     0.75895
      H   38    0.23783      0.00000     0.76091    0.00127     0.76217
      H   39    0.22523      0.00000     0.77226    0.00251     0.77477
      H   40    0.22020      0.00000     0.77768    0.00213     0.77980
      H   41    0.23816      0.00000     0.75954    0.00230     0.76184
      H   42    0.23087      0.00000     0.76758    0.00155     0.76913
      H   43    0.22826      0.00000     0.76270    0.00904     0.77174
 =======================================================================
   * Total *   -0.00000     33.98765    95.65678    0.35556   130.00000

 Normal termination of Gaussian 09 at Sat Oct  2 12:03:20 2021.
