 Gaussian 09, Revision A.02,

 -----------------------------------
 #p opt b3lyp/6-31G* scf=(xqc,tight)
 -----------------------------------

 -------------------------------------
 COCc1c(OC)ccc2c1ccc(c2)OC(=O)C_conf_0
 -------------------------------------
 Symbolic Z-matrix:
 Charge =  0 Multiplicity = 1

 SCF Done:  E(RB3LYP) =  -882.108227839     A.U. after   15 cycles
 SCF Done:  E(RB3LYP) =  -882.115694576     A.U. after   13 cycles
 SCF Done:  E(RB3LYP) =  -882.115829522     A.U. after   13 cycles
 SCF Done:  E(RB3LYP) =  -882.116572259     A.U. after   12 cycles
 SCF Done:  E(RB3LYP) =  -882.116907060     A.U. after   11 cycles
 SCF Done:  E(RB3LYP) =  -882.116928717     A.U. after   11 cycles
 SCF Done:  E(RB3LYP) =  -882.116942655     A.U. after   11 cycles
 SCF Done:  E(RB3LYP) =  -882.116947754     A.U. after   10 cycles
 SCF Done:  E(RB3LYP) =  -882.116952113     A.U. after   10 cycles
 SCF Done:  E(RB3LYP) =  -882.116953068     A.U. after    9 cycles
 SCF Done:  E(RB3LYP) =  -882.117363416     A.U. after   11 cycles
 SCF Done:  E(RB3LYP) =  -882.117456827     A.U. after   11 cycles
 SCF Done:  E(RB3LYP) =  -882.117475381     A.U. after   11 cycles
 SCF Done:  E(RB3LYP) =  -882.117492939     A.U. after   11 cycles
 SCF Done:  E(RB3LYP) =  -882.117513847     A.U. after   10 cycles
 SCF Done:  E(RB3LYP) =  -882.117514370     A.U. after    9 cycles
 SCF Done:  E(RB3LYP) =  -882.117514455     A.U. after    7 cycles
 SCF Done:  E(RB3LYP) =  -882.117514477     A.U. after    6 cycles
 Optimization completed.
    -- Stationary point found.
 Normal termination of Gaussian 09 at Wed Sep 29 19:12:05 2021.

 ----------------------------------------------------------------------
 #p freq b3lyp/6-31G* volume NMR pop=NPA density=current Geom=AllCheck
 Guess=Read
 ----------------------------------------------------------------------

 COCc1c(OC)ccc2c1ccc(c2)OC(=O)C_conf_0
 -------------------------------------
 Redundant internal coordinates taken from checkpoint file:
 C15H16O4_9bbe_conf_0.chk
 Charge =  0 Multiplicity = 1

 SCF Done:  E(RB3LYP) =  -882.117514477     A.U. after    1 cycles

  1  C    Isotropic =   136.1124   Anisotropy =    72.9031

  2  O    Isotropic =   299.8272   Anisotropy =    55.4403

  3  C    Isotropic =   126.5066   Anisotropy =    68.0929

  4  C    Isotropic =    75.2674   Anisotropy =   134.6306

  5  C    Isotropic =    41.9411   Anisotropy =   119.8902

  6  O    Isotropic =   241.9228   Anisotropy =    84.6564

  7  C    Isotropic =   137.2737   Anisotropy =    65.4201

  8  C    Isotropic =    85.0485   Anisotropy =   143.2710

  9  C    Isotropic =    65.8933   Anisotropy =   143.8736

 10  C    Isotropic =    67.3966   Anisotropy =   187.2536

 11  C    Isotropic =    63.6546   Anisotropy =   189.1787

 12  C    Isotropic =    68.8734   Anisotropy =   158.7796

 13  C    Isotropic =    72.5759   Anisotropy =   148.6275

 14  C    Isotropic =    48.2001   Anisotropy =   103.7598

 15  C    Isotropic =    77.6745   Anisotropy =   119.2962

 16  O    Isotropic =   103.7055   Anisotropy =   155.9223

 17  C    Isotropic =    30.6168   Anisotropy =    75.0158

 18  O    Isotropic =   -80.7487   Anisotropy =   565.4914

 19  C    Isotropic =   169.0704   Anisotropy =    39.7507

 20  H    Isotropic =    28.8851   Anisotropy =     9.4823

 21  H    Isotropic =    29.1452   Anisotropy =     6.6022

 22  H    Isotropic =    29.1669   Anisotropy =     8.5481

 23  H    Isotropic =    27.2470   Anisotropy =     4.7256

 24  H    Isotropic =    27.1119   Anisotropy =     7.2938

 25  H    Isotropic =    28.1540   Anisotropy =     8.6249

 26  H    Isotropic =    28.4846   Anisotropy =     8.6953

 27  H    Isotropic =    28.5217   Anisotropy =     8.9924

 28  H    Isotropic =    25.3936   Anisotropy =     8.1263

 29  H    Isotropic =    24.6648   Anisotropy =     7.3949

 30  H    Isotropic =    23.7876   Anisotropy =    11.4361

 31  H    Isotropic =    24.7974   Anisotropy =     8.4113

 32  H    Isotropic =    25.1840   Anisotropy =     8.0777

 33  H    Isotropic =    29.9508   Anisotropy =     5.5874

 34  H    Isotropic =    29.9776   Anisotropy =     6.1616

 35  H    Isotropic =    30.5175   Anisotropy =     7.6348

  Exact polarizability: 267.119  12.956 170.679  -5.464 -12.692  96.019
 Approx polarizability: 375.105  23.067 291.353 -11.683 -31.180 151.368

                     1                      2                      3
                     A                      A                      A
 Frequencies --    25.8501                37.1909                46.2545
 Red. masses --     5.6010                 3.3628                 2.8612
 Frc consts  --     0.0022                 0.0027                 0.0036
 IR Inten    --     0.9632                 1.4350                 2.2609

                     4                      5                      6
                     A                      A                      A
 Frequencies --    61.1935                71.0331                81.5295
 Red. masses --     2.4241                 3.5728                 2.5827
 Frc consts  --     0.0053                 0.0106                 0.0101
 IR Inten    --     0.7462                 0.9522                 0.4229

                     7                      8                      9
                     A                      A                      A
 Frequencies --    85.3772               108.1951               143.3495
 Red. masses --     1.8442                 3.1596                 3.6415
 Frc consts  --     0.0079                 0.0218                 0.0441
 IR Inten    --     1.1165                 3.8126                 4.7184

                    10                     11                     12
                     A                      A                      A
 Frequencies --   168.2786               195.5551               207.2072
 Red. masses --     2.3761                 3.1829                 2.6757
 Frc consts  --     0.0396                 0.0717                 0.0677
 IR Inten    --     1.1157                 0.7106                 6.4148

                    13                     14                     15
                     A                      A                      A
 Frequencies --   225.3316               266.2431               276.2784
 Red. masses --     2.2148                 1.4747                 4.2374
 Frc consts  --     0.0663                 0.0616                 0.1906
 IR Inten    --     1.5389                 2.7981                 0.3895

                    16                     17                     18
                     A                      A                      A
 Frequencies --   284.5410               317.0200               367.8657
 Red. masses --     2.6628                 5.1217                 3.1926
 Frc consts  --     0.1270                 0.3033                 0.2546
 IR Inten    --     2.9431                 2.1040                 2.1245

                    19                     20                     21
                     A                      A                      A
 Frequencies --   388.0299               406.9908               416.0369
 Red. masses --     4.2394                 3.4785                 3.5689
 Frc consts  --     0.3761                 0.3395                 0.3640
 IR Inten    --     0.1304                 1.6599                 2.8093

                    22                     23                     24
                     A                      A                      A
 Frequencies --   438.0966               470.5855               516.2596
 Red. masses --     3.5418                 4.1761                 4.2468
 Frc consts  --     0.4005                 0.5449                 0.6669
 IR Inten    --    10.4746                 4.4326                 5.2902

                    25                     26                     27
                     A                      A                      A
 Frequencies --   541.6767               560.3217               571.1990
 Red. masses --     4.2087                 5.8031                 3.3878
 Frc consts  --     0.7276                 1.0735                 0.6513
 IR Inten    --     9.4570                 1.7784                 8.8892

                    28                     29                     30
                     A                      A                      A
 Frequencies --   594.7192               622.3406               651.3370
 Red. masses --     3.0054                 4.7426                 4.8615
 Frc consts  --     0.6263                 1.0822                 1.2151
 IR Inten    --     7.0423                 4.7741                 4.6071

                    31                     32                     33
                     A                      A                      A
 Frequencies --   673.0379               720.7697               745.7558
 Red. masses --     4.2255                 4.6622                 5.2580
 Frc consts  --     1.1277                 1.4270                 1.7229
 IR Inten    --     6.4560                 8.6471                10.6021

                    34                     35                     36
                     A                      A                      A
 Frequencies --   770.2708               791.8291               813.4644
 Red. masses --     3.4472                 4.7044                 1.5061
 Frc consts  --     1.2051                 1.7379                 0.5872
 IR Inten    --     8.3328                 0.7093                23.2222

                    37                     38                     39
                     A                      A                      A
 Frequencies --   835.4024               882.4299               909.3550
 Red. masses --     1.9184                 1.9150                 3.1132
 Frc consts  --     0.7888                 0.8786                 1.5168
 IR Inten    --    15.9203                 9.0508                10.5205

                    40                     41                     42
                     A                      A                      A
 Frequencies --   913.0233               939.0220               947.9944
 Red. masses --     3.5080                 4.0088                 1.3284
 Frc consts  --     1.7230                 2.0826                 0.7034
 IR Inten    --    16.2798                25.4709                 2.5945

                    43                     44                     45
                     A                      A                      A
 Frequencies --   964.6224               988.7313              1031.4896
 Red. masses --     1.3331                 3.6053                 1.8995
 Frc consts  --     0.7308                 2.0766                 1.1908
 IR Inten    --     1.4389                18.4494                93.0994

                    46                     47                     48
                     A                      A                      A
 Frequencies --  1038.5599              1073.5640              1074.8902
 Red. masses --     2.2011                 2.4958                 2.5106
 Frc consts  --     1.3988                 1.6948                 1.7091
 IR Inten    --    38.1794                 0.2921                17.1901

                    49                     50                     51
                     A                      A                      A
 Frequencies --  1133.1429              1140.7451              1180.9307
 Red. masses --     3.8293                 5.1869                 1.6471
 Frc consts  --     2.8970                 3.9768                 1.3534
 IR Inten    --   129.4674               143.3549                55.0876

                    52                     53                     54
                     A                      A                      A
 Frequencies --  1183.6628              1191.2476              1193.4798
 Red. masses --     1.2673                 1.3209                 1.4854
 Frc consts  --     1.0461                 1.1044                 1.2466
 IR Inten    --     0.6100                 4.7053                 5.0649

                    55                     56                     57
                     A                      A                      A
 Frequencies --  1210.5530              1216.2829              1224.6966
 Red. masses --     1.4248                 1.4340                 1.5658
 Frc consts  --     1.2302                 1.2499                 1.3837
 IR Inten    --    12.1920                32.6060                25.3571

                    58                     59                     60
                     A                      A                      A
 Frequencies --  1248.3794              1264.7932              1290.5790
 Red. masses --     4.2425                 2.9968                 2.2532
 Frc consts  --     3.8955                 2.8246                 2.2112
 IR Inten    --   847.2011                23.8135               203.5612

                    61                     62                     63
                     A                      A                      A
 Frequencies --  1304.8434              1331.2695              1388.4125
 Red. masses --     2.0813                 1.4200                 2.5086
 Frc consts  --     2.0879                 1.4828                 2.8491
 IR Inten    --    73.2729                83.9764                15.9033

                    64                     65                     66
                     A                      A                      A
 Frequencies --  1408.7825              1411.0995              1422.8233
 Red. masses --     2.0412                 3.9337                 1.3402
 Frc consts  --     2.3868                 4.6149                 1.5985
 IR Inten    --    66.8683                15.8968                46.2186

                    67                     68                     69
                     A                      A                      A
 Frequencies --  1426.6383              1457.0592              1498.9277
 Red. masses --     1.8622                 4.3767                 1.1726
 Frc consts  --     2.2331                 5.4746                 1.5522
 IR Inten    --    10.1146                 0.7316                 2.4819

                    70                     71                     72
                     A                      A                      A
 Frequencies --  1500.0720              1503.1163              1504.2714
 Red. masses --     1.0499                 1.2331                 1.0472
 Frc consts  --     1.3920                 1.6415                 1.3962
 IR Inten    --    12.5216                 3.5288                 8.0118

                    73                     74                     75
                     A                      A                      A
 Frequencies --  1514.2816              1523.8768              1524.6407
 Red. masses --     1.0527                 1.0946                 1.1204
 Frc consts  --     1.4222                 1.4976                 1.5344
 IR Inten    --     1.4576                 5.2916                 8.0956

                    76                     77                     78
                     A                      A                      A
 Frequencies --  1529.9546              1537.4095              1540.2969
 Red. masses --     1.5061                 1.1959                 1.1151
 Frc consts  --     2.0771                 1.6654                 1.5587
 IR Inten    --    13.1045                35.0024                11.4592

                    79                     80                     81
                     A                      A                      A
 Frequencies --  1559.5527              1625.0805              1660.2197
 Red. masses --     3.4583                 7.8987                 6.1702
 Frc consts  --     4.9559                12.2901                10.0202
 IR Inten    --    87.3113                 1.7725               115.8150

                    82                     83                     84
                     A                      A                      A
 Frequencies --  1685.4714              1851.3582              3000.7032
 Red. masses --     6.4027                11.5352                 1.0390
 Frc consts  --    10.7165                23.2947                 5.5120
 IR Inten    --     0.7013               208.7734                55.8208

                    85                     86                     87
                     A                      A                      A
 Frequencies --  3026.7114              3053.9916              3059.3652
 Red. masses --     1.0346                 1.0953                 1.0624
 Frc consts  --     5.5843                 6.0191                 5.8587
 IR Inten    --    75.6675                82.9711                15.4628

                    88                     89                     90
                     A                      A                      A
 Frequencies --  3072.4176              3086.7676              3101.6707
 Red. masses --     1.0371                 1.1069                 1.1075
 Frc consts  --     5.7680                 6.2140                 6.2773
 IR Inten    --     2.1571                42.2835                17.1238

                    91                     92                     93
                     A                      A                      A
 Frequencies --  3134.5324              3136.3947              3155.0231
 Red. masses --     1.1006                 1.0983                 1.0998
 Frc consts  --     6.3711                 6.3653                 6.4501
 IR Inten    --     5.1766                33.3269                27.1313

                    94                     95                     96
                     A                      A                      A
 Frequencies --  3184.9453              3186.4199              3204.6872
 Red. masses --     1.1034                 1.0894                 1.0912
 Frc consts  --     6.5943                 6.5167                 6.6025
 IR Inten    --     8.6349                 7.9730                 9.2433

                    97                     98                     99
                     A                      A                      A
 Frequencies --  3230.1677              3230.6820              3245.4949
 Red. masses --     1.0914                 1.0882                 1.0947
 Frc consts  --     6.7096                 6.6921                 6.7934
 IR Inten    --    15.2102                 0.7122                 4.1881

 - Thermochemistry -
 -------------------
 Temperature   298.150 Kelvin.  Pressure   1.00000 Atm.
 Atom     1 has atomic number  6 and mass  12.00000

 Molecular mass:   260.10486 amu.
 Principal axes and moments of inertia in atomic units:
                           1         2         3
     Eigenvalues --  2291.749139495.13876**********
           X            0.99998  -0.00158  -0.00526
           Y            0.00156   0.99999  -0.00365
           Z            0.00527   0.00365   0.99998
 This molecule is an asymmetric top.
 Rotational symmetry number  1.
 Warning -- assumption of classical behavior for rotation
           may cause significant error
 Rotational temperatures (Kelvin)      0.03779     0.00912     0.00775
 Rotational constants (GHZ):           0.78750     0.19007     0.16140
 Zero-point vibrational energy     745022.4 (Joules/Mol)
                                  178.06464 (Kcal/Mol)
 Warning -- explicit consideration of  28 degrees of freedom as
           vibrations may cause significant error
 Vibrational temperatures:     37.19    53.51    66.55    88.04   102.20
          (Kelvin)            117.30   122.84   155.67   206.25   242.12
                              281.36   298.12   324.20   383.06   397.50
                              409.39   456.12   529.28   558.29   585.57
                              598.58   630.32   677.07   742.78   779.35
                              806.18   821.83   855.67   895.41   937.13
                              968.35  1037.03  1072.97  1108.25  1139.26
                             1170.39  1201.96  1269.62  1308.36  1313.64
                             1351.04  1363.95  1387.87  1422.56  1484.08
                             1494.25  1544.62  1546.53  1630.34  1641.28
                             1699.09  1703.02  1713.94  1717.15  1741.71
                             1749.96  1762.06  1796.14  1819.75  1856.85
                             1877.38  1915.40  1997.61  2026.92  2030.25
                             2047.12  2052.61  2096.38  2156.62  2158.27
                             2162.65  2164.31  2178.71  2192.52  2193.62
                             2201.26  2211.99  2216.14  2243.85  2338.13
                             2388.68  2425.01  2663.69  4317.34  4354.76
                             4394.01  4401.74  4420.52  4441.16  4462.61
                             4509.89  4512.57  4539.37  4582.42  4584.54
                             4610.82  4647.49  4648.23  4669.54

 Zero-point correction=                           0.283764 (Hartree/Particle)
 Thermal correction to Energy=                    0.302105
 Thermal correction to Enthalpy=                  0.303049
 Thermal correction to Gibbs Free Energy=         0.235411
 Sum of electronic and zero-point Energies=           -881.833750
 Sum of electronic and thermal Energies=              -881.815410
 Sum of electronic and thermal Enthalpies=            -881.814465
 Sum of electronic and thermal Free Energies=         -881.882104

                     E (Thermal)             CV                S
                      KCal/Mol        Cal/Mol-Kelvin    Cal/Mol-Kelvin
 Total                  189.574             67.640            142.357
 Electronic               0.000              0.000              0.000
 Translational            0.889              2.981             42.567
 Rotational               0.889              2.981             33.853
 Vibrational            187.796             61.679             65.937
 Vibration     1          0.593              1.985              6.125
 Vibration     2          0.594              1.982              5.403
 Vibration     3          0.595              1.979              4.971
 Vibration     4          0.597              1.973              4.418
 Vibration     5          0.598              1.968              4.125
 Vibration     6          0.600              1.962              3.854
 Vibration     7          0.601              1.959              3.763
 Vibration     8          0.606              1.943              3.301
 Vibration     9          0.616              1.910              2.759
 Vibration    10          0.625              1.882              2.455
 Vibration    11          0.636              1.846              2.175
 Vibration    12          0.641              1.830              2.068
 Vibration    13          0.650              1.802              1.916
 Vibration    14          0.672              1.735              1.620
 Vibration    15          0.678              1.717              1.557
 Vibration    16          0.683              1.702              1.506
 Vibration    17          0.704              1.641              1.325
 Vibration    18          0.740              1.538              1.089
 Vibration    19          0.756              1.496              1.008
 Vibration    20          0.772              1.455              0.937
 Vibration    21          0.779              1.435              0.906
 Vibration    22          0.798              1.387              0.833
 Vibration    23          0.828              1.315              0.736
 Vibration    24          0.871              1.214              0.619
 Vibration    25          0.897              1.158              0.562
 Vibration    26          0.916              1.117              0.523
 Vibration    27          0.927              1.094              0.502
 Vibration    28          0.952              1.043              0.459

 Optimization completed.
    -- Stationary point found.
 Normal termination of Gaussian 09 at Wed Sep 29 21:04:12 2021.
 Gaussian 09:  AM64L-G09RevA.02 11-Jun-2009

 ----------------------------------------------------------------------
 #p TD(NStates=10, Root=1) b3lyp/6-31G* volume pop=NPA density=current
 Geom=AllCheck Guess=Read
 ----------------------------------------------------------------------

 COCc1c(OC)ccc2c1ccc(c2)OC(=O)C_conf_0
 -------------------------------------
 Redundant internal coordinates taken from checkpoint file:
 C15H16O4_9bbe_conf_0.chk
 Charge =  0 Multiplicity = 1

                         Standard orientation:
 ---------------------------------------------------------------------
 Center     Atomic      Atomic             Coordinates (Angstroms)
 Number     Number       Type             X           Y           Z
 ---------------------------------------------------------------------
      1          6           0       -2.619273    2.675679    1.221535
      2          8           0       -2.064557    2.706787   -0.079522
      3          6           0       -2.434426    1.587965   -0.882886
      4          6           0       -1.852071    0.262577   -0.424366
      5          6           0       -2.689727   -0.791233   -0.067445
      6          8           0       -4.039056   -0.551472   -0.110770
      7          6           0       -4.939193   -1.591741    0.232508
      8          6           0       -2.159538   -2.052058    0.310559
      9          6           0       -0.799522   -2.250986    0.332301
     10          6           0        0.098173   -1.210544   -0.009405
     11          6           0       -0.437178    0.066520   -0.382360
     12          6           0        0.486471    1.102684   -0.709855
     13          6           0        1.844967    0.888587   -0.687676
     14          6           0        2.348914   -0.380773   -0.321720
     15          6           0        1.503823   -1.407531    0.012385
     16          8           0        3.717778   -0.665185   -0.372767
     17          6           0        4.605714    0.124600    0.310364
     18          8           0        4.292593    1.072592    0.986453
     19          6           0        6.010423   -0.379722    0.083191
     20          1           0       -2.303665    3.595762    1.720526
     21          1           0       -2.262226    1.813389    1.802802
     22          1           0       -3.720001    2.642735    1.189493
     23          1           0       -2.058810    1.830470   -1.883262
     24          1           0       -3.525936    1.511321   -0.941586
     25          1           0       -5.938434   -1.166010    0.122189
     26          1           0       -4.802632   -1.923511    1.270188
     27          1           0       -4.839966   -2.454629   -0.439053
     28          1           0       -2.822080   -2.865447    0.581776
     29          1           0       -0.399596   -3.220996    0.617402
     30          1           0        0.109596    2.089542   -0.949271
     31          1           0        2.533088    1.688694   -0.933494
     32          1           0        1.913277   -2.375098    0.287817
     33          1           0        6.247716   -0.362561   -0.985618
     34          1           0        6.096933   -1.418177    0.419293
     35          1           0        6.713334    0.248605    0.630874
 ---------------------------------------------------------------------

 SCF Done:  E(RB3LYP) =  -882.117514477     A.U. after    3 cycles

 Excitation energies and oscillator strengths:

 Excited State   1:      Singlet-A      3.9659 eV  312.62 nm  f=0.0731  <S**2>=0.000
      68 -> 70         0.11735
      68 -> 71         0.13479
      69 -> 70         0.66331
      69 -> 71        -0.12736
 This state for optimization and/or second-order correction.
 Total Energy, E(TD-HF/TD-KS) =  -881.971769996
 Copying the excited state density for this state as the 1-particle RhoCI density.

 Excited State   2:      Singlet-A      4.4264 eV  280.10 nm  f=0.0109  <S**2>=0.000
      68 -> 70         0.49708
      69 -> 70        -0.18710
      69 -> 71        -0.45029

 Excited State   3:      Singlet-A      4.7840 eV  259.16 nm  f=0.0023  <S**2>=0.000
      67 -> 70         0.69813

 Excited State   4:      Singlet-A      5.0725 eV  244.42 nm  f=0.2588  <S**2>=0.000
      68 -> 70        -0.27987
      69 -> 71        -0.41028
      69 -> 72         0.47851

 Excited State   5:      Singlet-A      5.4128 eV  229.06 nm  f=0.0057  <S**2>=0.000
      66 -> 70         0.56863
      69 -> 73        -0.36615

 Excited State   6:      Singlet-A      5.5632 eV  222.87 nm  f=0.2238  <S**2>=0.000
      65 -> 70         0.29537
      65 -> 71         0.22852
      65 -> 72        -0.23070
      66 -> 71         0.19049
      66 -> 72        -0.10076
      68 -> 70         0.13442
      68 -> 71         0.38242
      68 -> 72        -0.15648
      69 -> 71         0.17999
      69 -> 72         0.13582

 Excited State   7:      Singlet-A      5.6711 eV  218.63 nm  f=0.0549  <S**2>=0.000
      64 -> 70         0.10316
      65 -> 70         0.32806
      65 -> 71         0.16866
      65 -> 72        -0.10497
      66 -> 70         0.21512
      66 -> 72        -0.11502
      68 -> 71        -0.30089
      69 -> 72        -0.14686
      69 -> 73         0.36940

 Excited State   8:      Singlet-A      5.7275 eV  216.47 nm  f=0.7424  <S**2>=0.000
      65 -> 71        -0.12199
      65 -> 72         0.10519
      66 -> 71        -0.15961
      67 -> 71         0.16701
      68 -> 70         0.30842
      68 -> 73         0.10066
      69 -> 71         0.21538
      69 -> 72         0.42649
      69 -> 73         0.22529

 Excited State   9:      Singlet-A      5.8111 eV  213.36 nm  f=0.0927  <S**2>=0.000
      65 -> 70        -0.13531
      67 -> 71         0.59243
      67 -> 72         0.13708
      68 -> 70        -0.10767
      68 -> 71         0.23307
      69 -> 72        -0.11379

 Excited State  10:      Singlet-A      5.8766 eV  210.98 nm  f=0.0054  <S**2>=0.000
      65 -> 70         0.50343
      65 -> 71        -0.28628
      65 -> 72         0.20934
      66 -> 72         0.16312
      67 -> 71         0.14809
      69 -> 73        -0.16444

 The electronic state is 1-A.
 Alpha  occ. eigenvalues --  -19.19717 -19.18213 -19.13979 -19.13879 -10.32159
 Alpha  occ. eigenvalues --  -10.25181 -10.24702 -10.24648 -10.22473 -10.21569
 Alpha  occ. eigenvalues --  -10.19860 -10.19778 -10.19699 -10.19609 -10.19468
 Alpha  occ. eigenvalues --  -10.18970 -10.18957 -10.18932 -10.18499  -1.10443
 Alpha  occ. eigenvalues --   -1.06758  -1.02216  -1.01972  -0.87211  -0.82326
 Alpha  occ. eigenvalues --   -0.78458  -0.76774  -0.73909  -0.73632  -0.71179
 Alpha  occ. eigenvalues --   -0.68917  -0.64502  -0.63163  -0.62035  -0.58157
 Alpha  occ. eigenvalues --   -0.56772  -0.53270  -0.51936  -0.49717  -0.48471
 Alpha  occ. eigenvalues --   -0.47716  -0.47572  -0.47284  -0.46567  -0.46417
 Alpha  occ. eigenvalues --   -0.45543  -0.44912  -0.43857  -0.42652  -0.41321
 Alpha  occ. eigenvalues --   -0.41105  -0.40660  -0.40174  -0.39280  -0.38624
 Alpha  occ. eigenvalues --   -0.37567  -0.37097  -0.35568  -0.35334  -0.34635
 Alpha  occ. eigenvalues --   -0.32929  -0.31718  -0.30582  -0.29687  -0.27626
 Alpha  occ. eigenvalues --   -0.26746  -0.24508  -0.23223  -0.20171
 Alpha virt. eigenvalues --   -0.03995  -0.00593   0.01489   0.03126   0.08975
 Alpha virt. eigenvalues --    0.09761   0.10224   0.11005   0.11082   0.12864
 Alpha virt. eigenvalues --    0.12890   0.14474   0.14742   0.14945   0.15452

 Mulliken atomic charges:
              1
     1  C   -0.198218
     2  O   -0.449146
     3  C   -0.121060
     4  C    0.017475
     5  C    0.334793
     6  O   -0.477073
     7  C   -0.223516
     8  C   -0.215610
     9  C   -0.222698
    10  C    0.156820
    11  C    0.079739
    12  C   -0.223745
    13  C   -0.163778
    14  C    0.378317
    15  C   -0.264650
    16  O   -0.512882
    17  C    0.591609
    18  O   -0.435596
    19  C   -0.526080
    20  H    0.157168
    21  H    0.140761
    22  H    0.124953
    23  H    0.151011
    24  H    0.150580
    25  H    0.178192
    26  H    0.170967
    27  H    0.171455
    28  H    0.119788
    29  H    0.124626
    30  H    0.159380
    31  H    0.136244
    32  H    0.133772
    33  H    0.185810
    34  H    0.184729
    35  H    0.185861
 Sum of Mulliken atomic charges =  -0.00000

 Dipole moment (field-independent basis, Debye):
    X=             -2.4139    Y=             -3.3283    Z=             -0.0897  Tot=              4.1125
 Quadrupole moment (field-independent basis, Debye-Ang):
   XX=            -78.4415   YY=           -109.0307   ZZ=           -111.3868
   XY=              1.1958   XZ=             -6.9248   YZ=             -3.2431

 Summary of Natural Population Analysis:

                                       Natural Population
                Natural  -----------------------------------------------
    Atom  No    Charge         Core      Valence    Rydberg      Total
 -----------------------------------------------------------------------
      C    1   -0.31193      1.99946     4.29780    0.01468     6.31193
      O    2   -0.57291      1.99981     6.56084    0.01225     8.57291
      C    3   -0.13238      1.99921     4.11195    0.02122     6.13238
      C    4   -0.08990      1.99894     4.07405    0.01690     6.08990
      C    5    0.37589      1.99871     3.60374    0.02166     5.62411
      O    6   -0.46602      1.99974     6.45494    0.01134     8.46602
      C    7   -0.32067      1.99942     4.30720    0.01405     6.32067
      C    8   -0.37719      1.99904     4.36288    0.01526     6.37719
      C    9   -0.21679      1.99907     4.20139    0.01633     6.21679
      C   10   -0.04381      1.99903     4.02963    0.01514     6.04381
      C   11   -0.04939      1.99900     4.03514    0.01525     6.04939
      C   12   -0.21073      1.99909     4.19595    0.01569     6.21073
      C   13   -0.31665      1.99902     4.30205    0.01558     6.31665
      C   14    0.35123      1.99869     3.62784    0.02225     5.64877
      C   15   -0.26311      1.99896     4.24887    0.01528     6.26311
      O   16   -0.53859      1.99970     6.52752    0.01138     8.53859
      C   17    0.82496      1.99945     3.13234    0.04325     5.17504
      O   18   -0.56536      1.99978     6.54551    0.02007     8.56536
      C   19   -0.77544      1.99933     4.76943    0.00668     6.77544
      H   20    0.21953      0.00000     0.77979    0.00068     0.78047
      H   21    0.19515      0.00000     0.80288    0.00196     0.80485
      H   22    0.18603      0.00000     0.81187    0.00211     0.81397
      H   23    0.23324      0.00000     0.76435    0.00241     0.76676
      H   24    0.22042      0.00000     0.77748    0.00211     0.77958
      H   25    0.23245      0.00000     0.76700    0.00055     0.76755
      H   26    0.21646      0.00000     0.78159    0.00194     0.78354
      H   27    0.21678      0.00000     0.78128    0.00194     0.78322
      H   28    0.23247      0.00000     0.76664    0.00089     0.76753
      H   29    0.23153      0.00000     0.76738    0.00109     0.76847
      H   30    0.24926      0.00000     0.74870    0.00204     0.75074
      H   31    0.24812      0.00000     0.75101    0.00087     0.75188
      H   32    0.24111      0.00000     0.75740    0.00148     0.75889
      H   33    0.25929      0.00000     0.73986    0.00085     0.74071
      H   34    0.25858      0.00000     0.74055    0.00087     0.74142
      H   35    0.25835      0.00000     0.74073    0.00092     0.74165
 =======================================================================
   * Total *   -0.00000     37.98544    99.66759    0.34697   138.00000

 Normal termination of Gaussian 09 at Thu Sep 30 03:51:53 2021.
