 Gaussian 09, Revision A.02,

 -----------------------------------
 #p opt b3lyp/6-31G* scf=(xqc,tight)
 -----------------------------------

 ----------------------------------------
 Cc1cc(OC(=O)C(C)(C)C)c2c(n1)cccc2_conf_0
 ----------------------------------------
 Symbolic Z-matrix:
 Charge =  0 Multiplicity = 1

 SCF Done:  E(RB3LYP) =  -787.061005164     A.U. after   16 cycles
 SCF Done:  E(RB3LYP) =  -787.068810920     A.U. after   13 cycles
 SCF Done:  E(RB3LYP) =  -787.065580851     A.U. after   14 cycles
 SCF Done:  E(RB3LYP) =  -787.069316285     A.U. after   13 cycles
 SCF Done:  E(RB3LYP) =  -787.069604817     A.U. after   13 cycles
 SCF Done:  E(RB3LYP) =  -787.069686622     A.U. after   11 cycles
 SCF Done:  E(RB3LYP) =  -787.069762897     A.U. after   11 cycles
 SCF Done:  E(RB3LYP) =  -787.069766836     A.U. after   10 cycles
 SCF Done:  E(RB3LYP) =  -787.069769724     A.U. after   10 cycles
 SCF Done:  E(RB3LYP) =  -787.069773189     A.U. after   11 cycles
 SCF Done:  E(RB3LYP) =  -787.070456958     A.U. after    7 cycles
 SCF Done:  E(RB3LYP) =  -787.070457049     A.U. after    8 cycles
 SCF Done:  E(RB3LYP) =  -787.070457230     A.U. after    9 cycles
 SCF Done:  E(RB3LYP) =  -787.070457636     A.U. after   11 cycles
 SCF Done:  E(RB3LYP) =  -787.070457489     A.U. after    9 cycles
 SCF Done:  E(RB3LYP) =  -787.070457629     A.U. after    8 cycles
 SCF Done:  E(RB3LYP) =  -787.070457817     A.U. after    9 cycles
 SCF Done:  E(RB3LYP) =  -787.070457908     A.U. after    8 cycles
 Optimization completed on the basis of negligible forces.
    -- Stationary point found.
 Normal termination of Gaussian 09 at Wed Sep 29 19:52:19 2021.

 ----------------------------------------------------------------------
 #p freq b3lyp/6-31G* volume NMR pop=NPA density=current Geom=AllCheck
 Guess=Read
 ----------------------------------------------------------------------

 Cc1cc(OC(=O)C(C)(C)C)c2c(n1)cccc2_conf_0
 ----------------------------------------
 Redundant internal coordinates taken from checkpoint file:
 C15H17NO2_e7ee_conf_0.chk
 Charge =  0 Multiplicity = 1

 SCF Done:  E(RB3LYP) =  -787.070457908     A.U. after    1 cycles

  1  C    Isotropic =   163.5416   Anisotropy =    42.3999

  2  C    Isotropic =    35.5362   Anisotropy =   165.0339

  3  C    Isotropic =    85.1901   Anisotropy =   129.4069

  4  C    Isotropic =    40.4742   Anisotropy =   109.8737

  5  O    Isotropic =   118.4308   Anisotropy =   221.1887

  6  C    Isotropic =    21.2592   Anisotropy =    77.8206

  7  O    Isotropic =   -83.2037   Anisotropy =   573.8119

  8  C    Isotropic =   147.1748   Anisotropy =    26.3446

  9  C    Isotropic =   161.8551   Anisotropy =    36.9881

 10  C    Isotropic =   162.9035   Anisotropy =    31.3106

 11  C    Isotropic =   162.1130   Anisotropy =    36.6325

 12  C    Isotropic =    76.1538   Anisotropy =   170.6871

 13  C    Isotropic =    46.9409   Anisotropy =   174.3443

 14  N    Isotropic =   -47.0379   Anisotropy =   453.6931

 15  C    Isotropic =    65.3678   Anisotropy =   146.8090

 16  C    Isotropic =    67.5829   Anisotropy =   165.4175

 17  C    Isotropic =    70.9159   Anisotropy =   161.9998

 18  C    Isotropic =    74.2563   Anisotropy =   161.4080

 19  H    Isotropic =    29.4818   Anisotropy =     6.5811

 20  H    Isotropic =    29.5050   Anisotropy =     6.5882

 21  H    Isotropic =    29.8025   Anisotropy =     7.8066

 22  H    Isotropic =    23.7703   Anisotropy =    12.9251

 23  H    Isotropic =    30.7552   Anisotropy =     7.4071

 24  H    Isotropic =    30.2531   Anisotropy =     7.5494

 25  H    Isotropic =    30.9584   Anisotropy =     8.0719

 26  H    Isotropic =    30.5634   Anisotropy =     8.0784

 27  H    Isotropic =    31.3995   Anisotropy =     7.9482

 28  H    Isotropic =    30.5672   Anisotropy =     8.1356

 29  H    Isotropic =    30.2690   Anisotropy =     7.1587

 30  H    Isotropic =    30.7583   Anisotropy =     7.5117

 31  H    Isotropic =    30.9723   Anisotropy =     8.0608

 32  H    Isotropic =    24.3190   Anisotropy =     6.1877

 33  H    Isotropic =    24.6034   Anisotropy =     5.0339

 34  H    Isotropic =    24.7726   Anisotropy =     6.1069

 35  H    Isotropic =    24.0440   Anisotropy =     9.7691

  Exact polarizability: 210.646  10.492 212.996   0.158   0.247  89.328
 Approx polarizability: 302.375  19.271 358.072   0.395  -0.331 133.398

                     1                      2                      3
                     A                      A                      A
 Frequencies --     8.8670                39.3611                46.7309
 Red. masses --     4.1543                 3.9084                 5.2566
 Frc consts  --     0.0002                 0.0036                 0.0068
 IR Inten    --     0.8720                 0.2278                 0.4654

                     4                      5                      6
                     A                      A                      A
 Frequencies --    81.5938                88.3361               117.2689
 Red. masses --     1.1146                 4.0141                 2.9179
 Frc consts  --     0.0044                 0.0185                 0.0236
 IR Inten    --     0.7232                 0.5151                 0.4506

                     7                      8                      9
                     A                      A                      A
 Frequencies --   163.5860               188.7698               196.6300
 Red. masses --     3.9321                 2.0068                 3.2832
 Frc consts  --     0.0620                 0.0421                 0.0748
 IR Inten    --     2.0586                 0.2375                 0.0908

                    10                     11                     12
                     A                      A                      A
 Frequencies --   206.4120               214.9845               250.0921
 Red. masses --     1.4650                 3.6968                 1.4811
 Frc consts  --     0.0368                 0.1007                 0.0546
 IR Inten    --     0.1224                 0.9471                 0.3848

                    13                     14                     15
                     A                      A                      A
 Frequencies --   260.0584               283.5509               298.2093
 Red. masses --     1.1126                 1.7641                 3.1090
 Frc consts  --     0.0443                 0.0836                 0.1629
 IR Inten    --     0.1372                 0.6914                 2.1591

                    16                     17                     18
                     A                      A                      A
 Frequencies --   322.3537               324.6912               363.1459
 Red. masses --     5.0843                 3.0924                 3.5572
 Frc consts  --     0.3113                 0.1921                 0.2764
 IR Inten    --     3.2976                 4.5588                 7.0958

                    19                     20                     21
                     A                      A                      A
 Frequencies --   378.5989               436.7628               444.0342
 Red. masses --     2.3371                 3.5055                 3.4426
 Frc consts  --     0.1974                 0.3940                 0.3999
 IR Inten    --     0.7370                 4.7410                 0.7168

                    22                     23                     24
                     A                      A                      A
 Frequencies --   470.2551               501.9326               532.3020
 Red. masses --     4.6126                 4.2930                 3.2007
 Frc consts  --     0.6010                 0.6372                 0.5343
 IR Inten    --     0.8057                 2.3513                 0.0883

                    25                     26                     27
                     A                      A                      A
 Frequencies --   544.4118               584.4659               626.5433
 Red. masses --     6.0102                 5.3067                 5.0422
 Frc consts  --     1.0495                 1.0680                 1.1662
 IR Inten    --     1.4447                 7.4126                 2.5890

                    28                     29                     30
                     A                      A                      A
 Frequencies --   633.9860               660.8066               664.8452
 Red. masses --     4.4678                 3.4656                 5.5932
 Frc consts  --     1.0580                 0.8916                 1.4566
 IR Inten    --     2.7730                 0.4502                 8.7845

                    31                     32                     33
                     A                      A                      A
 Frequencies --   754.7233               768.7908               784.6132
 Red. masses --     6.8399                 5.3111                 1.3853
 Frc consts  --     2.2955                 1.8495                 0.5025
 IR Inten    --     4.7459                 1.8799                44.1928

                    34                     35                     36
                     A                      A                      A
 Frequencies --   796.7480               821.2702               868.1552
 Red. masses --     3.4209                 3.8558                 4.5023
 Frc consts  --     1.2795                 1.5323                 1.9993
 IR Inten    --     0.0064                 0.7741                12.3402

                    37                     38                     39
                     A                      A                      A
 Frequencies --   889.0595               902.9400               910.1386
 Red. masses --     1.6320                 4.3725                 1.3572
 Frc consts  --     0.7600                 2.1004                 0.6624
 IR Inten    --     1.5519                 1.2921                17.6340

                    40                     41                     42
                     A                      A                      A
 Frequencies --   948.7945               955.6906               964.3221
 Red. masses --     1.7687                 1.6524                 1.3269
 Frc consts  --     0.9381                 0.8892                 0.7270
 IR Inten    --     1.4144                 4.5722                 1.3909

                    43                     44                     45
                     A                      A                      A
 Frequencies --   980.8765               988.4554               997.9398
 Red. masses --     1.1978                 4.7690                 1.2728
 Frc consts  --     0.6790                 2.7453                 0.7468
 IR Inten    --     0.0005                 3.6917                 0.1256

                    46                     47                     48
                     A                      A                      A
 Frequencies --  1023.7241              1050.6246              1056.5752
 Red. masses --     1.7267                 2.1986                 1.7247
 Frc consts  --     1.0662                 1.4298                 1.1344
 IR Inten    --     4.9236                12.4523                45.3931

                    49                     50                     51
                     A                      A                      A
 Frequencies --  1059.7815              1070.0383              1086.4083
 Red. masses --     1.4248                 1.5661                 2.5471
 Frc consts  --     0.9429                 1.0565                 1.7712
 IR Inten    --     0.1848                 3.0380                 4.7773

                    52                     53                     54
                     A                      A                      A
 Frequencies --  1155.7210              1159.2722              1187.1364
 Red. masses --     1.6774                 4.5380                 1.2172
 Frc consts  --     1.3200                 3.5932                 1.0107
 IR Inten    --    76.4846               774.1686                 0.6922

                    55                     56                     57
                     A                      A                      A
 Frequencies --  1208.8538              1241.0273              1261.4710
 Red. masses --     1.5127                 2.6559                 2.7853
 Frc consts  --     1.3024                 2.4100                 2.6114
 IR Inten    --    14.8650                 1.9543                 0.7092

                    58                     59                     60
                     A                      A                      A
 Frequencies --  1265.8513              1296.1659              1305.6627
 Red. masses --     2.4367                 2.2029                 3.0821
 Frc consts  --     2.3005                 2.1806                 3.0957
 IR Inten    --    29.2048                19.0561                58.9908

                    61                     62                     63
                     A                      A                      A
 Frequencies --  1368.6863              1383.7504              1415.7837
 Red. masses --     5.3852                 3.6048                 6.3366
 Frc consts  --     5.9438                 4.0668                 7.4835
 IR Inten    --    73.7216                 3.3721                34.5187

                    64                     65                     66
                     A                      A                      A
 Frequencies --  1424.8356              1430.7451              1432.5491
 Red. masses --     1.2066                 1.2336                 1.3382
 Frc consts  --     1.4433                 1.4878                 1.6180
 IR Inten    --     3.8305                 4.1338                11.0266

                    67                     68                     69
                     A                      A                      A
 Frequencies --  1457.1480              1461.0669              1500.3910
 Red. masses --     1.9148                 1.3781                 1.4223
 Frc consts  --     2.3954                 1.7333                 1.8865
 IR Inten    --    97.4623                 0.6303                 2.4209

                    70                     71                     72
                     A                      A                      A
 Frequencies --  1507.4285              1513.1545              1515.0217
 Red. masses --     1.0482                 1.0452                 1.0449
 Frc consts  --     1.4033                 1.4100                 1.4130
 IR Inten    --     0.0242                 6.9023                 0.2660

                    73                     74                     75
                     A                      A                      A
 Frequencies --  1519.3910              1519.4389              1529.1987
 Red. masses --     1.7731                 1.0945                 1.0487
 Frc consts  --     2.4117                 1.4888                 1.4448
 IR Inten    --    12.2749                 1.1038                 5.9667

                    76                     77                     78
                     A                      A                      A
 Frequencies --  1532.1664              1549.3154              1553.2282
 Red. masses --     1.0542                 1.1848                 2.4247
 Frc consts  --     1.4581                 1.6756                 3.4465
 IR Inten    --     6.7704                61.1942                37.6180

                    79                     80                     81
                     A                      A                      A
 Frequencies --  1615.3265              1653.4183              1674.9955
 Red. masses --     6.8116                 7.0885                 6.1243
 Frc consts  --    10.4718                11.4175                10.1237
 IR Inten    --    48.0408               116.7524                12.9701

                    82                     83                     84
                     A                      A                      A
 Frequencies --  1825.2692              3047.8152              3052.3747
 Red. masses --    12.5837                 1.0392                 1.0354
 Frc consts  --    24.7010                 5.6876                 5.6838
 IR Inten    --   195.6383                19.8126                26.1253

                    85                     86                     87
                     A                      A                      A
 Frequencies --  3054.2683              3063.2332              3098.9541
 Red. masses --     1.0360                 1.0363                 1.1004
 Frc consts  --     5.6942                 5.7294                 6.2262
 IR Inten    --    10.0062                25.6441                16.1597

                    88                     89                     90
                     A                      A                      A
 Frequencies --  3116.7254              3118.2496              3131.3948
 Red. masses --     1.1031                 1.1025                 1.1020
 Frc consts  --     6.3136                 6.3162                 6.3668
 IR Inten    --    11.1716                19.2586                34.6174

                    91                     92                     93
                     A                      A                      A
 Frequencies --  3138.6028              3140.8308              3143.2315
 Red. masses --     1.1023                 1.1026                 1.1010
 Frc consts  --     6.3976                 6.4085                 6.4093
 IR Inten    --     1.6167                24.0658                47.2092

                    94                     95                     96
                     A                      A                      A
 Frequencies --  3161.2797              3188.0778              3202.3558
 Red. masses --     1.0998                 1.0863                 1.0908
 Frc consts  --     6.4756                 6.5053                 6.5904
 IR Inten    --     8.7638                 4.2100                19.3779

                    97                     98                     99
                     A                      A                      A
 Frequencies --  3220.3464              3226.6900              3291.6747
 Red. masses --     1.0940                 1.0936                 1.0916
 Frc consts  --     6.6847                 6.7086                 6.9689
 IR Inten    --    16.1947                12.6700                 4.3101

 - Thermochemistry -
 -------------------
 Temperature   298.150 Kelvin.  Pressure   1.00000 Atm.
 Atom     1 has atomic number  6 and mass  12.00000

 Molecular mass:   243.12593 amu.
 Principal axes and moments of inertia in atomic units:
                           1         2         3
     Eigenvalues --  2694.379186454.047388733.47873
           X            0.99978  -0.02109   0.00043
           Y            0.02109   0.99978   0.00077
           Z           -0.00045  -0.00076   1.00000
 This molecule is an asymmetric top.
 Rotational symmetry number  1.
 Warning -- assumption of classical behavior for rotation
           may cause significant error
 Rotational temperatures (Kelvin)      0.03215     0.01342     0.00992
 Rotational constants (GHZ):           0.66982     0.27963     0.20665
 Zero-point vibrational energy     762456.8 (Joules/Mol)
                                  182.23156 (Kcal/Mol)
 Warning -- explicit consideration of  26 degrees of freedom as
           vibrations may cause significant error
 Vibrational temperatures:     12.76    56.63    67.24   117.40   127.10
          (Kelvin)            168.72   235.36   271.60   282.91   296.98
                              309.31   359.83   374.17   407.97   429.06
                              463.79   467.16   522.49   544.72   628.40
                              638.87   676.59   722.17   765.86   783.29
                              840.92   901.45   912.16   950.75   956.56
                             1085.88  1106.12  1128.88  1146.34  1181.62
                             1249.08  1279.16  1299.13  1309.48  1365.10
                             1375.02  1387.44  1411.26  1422.17  1435.81
                             1472.91  1511.61  1520.17  1524.79  1539.54
                             1563.10  1662.82  1667.93  1708.02  1739.27
                             1785.56  1814.97  1821.28  1864.89  1878.56
                             1969.23  1990.91  2036.99  2050.02  2058.52
                             2061.12  2096.51  2102.15  2158.73  2168.85
                             2177.09  2179.78  2186.06  2186.13  2200.17
                             2204.44  2229.12  2234.75  2324.09  2378.90
                             2409.94  2626.15  4385.12  4391.68  4394.41
                             4407.30  4458.70  4484.27  4486.46  4505.37
                             4515.74  4518.95  4522.40  4548.37  4586.93
                             4607.47  4633.35  4642.48  4735.98

 Zero-point correction=                           0.290404 (Hartree/Particle)
 Thermal correction to Energy=                    0.307654
 Thermal correction to Enthalpy=                  0.308598
 Thermal correction to Gibbs Free Energy=         0.243740
 Sum of electronic and zero-point Energies=           -786.780053
 Sum of electronic and thermal Energies=              -786.762804
 Sum of electronic and thermal Enthalpies=            -786.761860
 Sum of electronic and thermal Free Energies=         -786.826717

                     E (Thermal)             CV                S
                      KCal/Mol        Cal/Mol-Kelvin    Cal/Mol-Kelvin
 Total                  193.056             65.784            136.505
 Electronic               0.000              0.000              0.000
 Translational            0.889              2.981             42.366
 Rotational               0.889              2.981             33.385
 Vibrational            191.278             59.822             60.754
 Vibration     1          0.593              1.987              8.250
 Vibration     2          0.594              1.981              5.291
 Vibration     3          0.595              1.979              4.951
 Vibration     4          0.600              1.962              3.852
 Vibration     5          0.601              1.957              3.697
 Vibration     6          0.608              1.935              3.145
 Vibration     7          0.623              1.887              2.508
 Vibration     8          0.633              1.855              2.240
 Vibration     9          0.636              1.845              2.164
 Vibration    10          0.641              1.831              2.075
 Vibration    11          0.645              1.818              2.001
 Vibration    12          0.663              1.763              1.730
 Vibration    13          0.668              1.746              1.661
 Vibration    14          0.682              1.704              1.512
 Vibration    15          0.691              1.677              1.427
 Vibration    16          0.707              1.631              1.298
 Vibration    17          0.709              1.626              1.286
 Vibration    18          0.737              1.548              1.109
 Vibration    19          0.749              1.516              1.045
 Vibration    20          0.797              1.390              0.837
 Vibration    21          0.804              1.374              0.814
 Vibration    22          0.827              1.316              0.737
 Vibration    23          0.857              1.246              0.653
 Vibration    24          0.887              1.179              0.582
 Vibration    25          0.900              1.152              0.556
 Vibration    26          0.941              1.065              0.477

 Optimization completed on the basis of negligible forces.
    -- Stationary point found.
 Normal termination of Gaussian 09 at Wed Sep 29 21:36:47 2021.
 Gaussian 09:  AM64L-G09RevA.02 11-Jun-2009

 ----------------------------------------------------------------------
 #p TD(NStates=10, Root=1) b3lyp/6-31G* volume pop=NPA density=current
 Geom=AllCheck Guess=Read
 ----------------------------------------------------------------------

 Cc1cc(OC(=O)C(C)(C)C)c2c(n1)cccc2_conf_0
 ----------------------------------------
 Redundant internal coordinates taken from checkpoint file:
 C15H17NO2_e7ee_conf_0.chk
 Charge =  0 Multiplicity = 1

                         Standard orientation:
 ---------------------------------------------------------------------
 Center     Atomic      Atomic             Coordinates (Angstroms)
 Number     Number       Type             X           Y           Z
 ---------------------------------------------------------------------
      1          6           0       -2.438769    3.520054    0.019148
      2          6           0       -2.054470    2.060695    0.013913
      3          6           0       -0.670369    1.714277    0.021502
      4          6           0       -0.326284    0.384115    0.016106
      5          8           0        0.960284   -0.130836    0.032914
      6          6           0        2.120127    0.602302   -0.036727
      7          8           0        2.160514    1.805527   -0.124085
      8          6           0        3.337274   -0.328509    0.009824
      9          6           0        3.287879   -1.287647   -1.201522
     10          6           0        4.609272    0.532393   -0.052228
     11          6           0        3.309117   -1.139286    1.325286
     12          6           0       -1.344799   -0.617297    0.004687
     13          6           0       -2.695481   -0.151140   -0.002365
     14          7           0       -3.030347    1.174136    0.002020
     15          6           0       -3.745374   -1.105370   -0.014471
     16          6           0       -3.470102   -2.455038   -0.019106
     17          6           0       -2.131211   -2.911088   -0.011638
     18          6           0       -1.086991   -2.011109    0.000239
     19          1           0       -2.031589    4.038386   -0.858002
     20          1           0       -2.041805    4.029589    0.906106
     21          1           0       -3.526446    3.614423    0.013401
     22          1           0        0.083171    2.486534    0.027563
     23          1           0        3.293614   -0.733389   -2.147037
     24          1           0        2.395799   -1.919810   -1.180583
     25          1           0        4.169744   -1.938199   -1.188632
     26          1           0        4.647002    1.120471   -0.973986
     27          1           0        5.493168   -0.113903   -0.016915
     28          1           0        4.657732    1.230871    0.788516
     29          1           0        2.414798   -1.764569    1.394763
     30          1           0        3.334903   -0.478815    2.199585
     31          1           0        4.188802   -1.791268    1.371365
     32          1           0       -4.762705   -0.726987   -0.019755
     33          1           0       -4.283102   -3.176062   -0.028414
     34          1           0       -1.925671   -3.978032   -0.015300
     35          1           0       -0.060287   -2.359825    0.006664
 ---------------------------------------------------------------------

 SCF Done:  E(RB3LYP) =  -787.070457908     A.U. after    2 cycles

 Excitation energies and oscillator strengths:

 Excited State   1:      Singlet-A      4.3576 eV  284.52 nm  f=0.0016  <S**2>=0.000
      63 -> 66         0.69574
 This state for optimization and/or second-order correction.
 Total Energy, E(TD-HF/TD-KS) =  -786.910318282
 Copying the excited state density for this state as the 1-particle RhoCI density.

 Excited State   2:      Singlet-A      4.3763 eV  283.31 nm  f=0.1047  <S**2>=0.000
      64 -> 66         0.14002
      64 -> 67         0.13798
      65 -> 66         0.66100
      65 -> 67        -0.11648

 Excited State   3:      Singlet-A      4.5135 eV  274.70 nm  f=0.0174  <S**2>=0.000
      64 -> 66         0.53496
      65 -> 66        -0.17619
      65 -> 67        -0.41215

 Excited State   4:      Singlet-A      5.1808 eV  239.31 nm  f=0.0012  <S**2>=0.000
      62 -> 66        -0.36338
      62 -> 68         0.20113
      63 -> 67         0.55619

 Excited State   5:      Singlet-A      5.2402 eV  236.60 nm  f=0.0011  <S**2>=0.000
      62 -> 66         0.46040
      62 -> 68        -0.23820
      63 -> 67         0.42315
      63 -> 68        -0.18292

 Excited State   6:      Singlet-A      5.3992 eV  229.63 nm  f=0.0026  <S**2>=0.000
      61 -> 66        -0.16561
      64 -> 67         0.16271
      65 -> 67         0.12704
      65 -> 68         0.64726

 Excited State   7:      Singlet-A      5.6346 eV  220.04 nm  f=0.2911  <S**2>=0.000
      61 -> 66         0.15601
      64 -> 66        -0.31494
      64 -> 67         0.12321
      64 -> 68         0.46160
      65 -> 67        -0.34569
      65 -> 68         0.10889

 Excited State   8:      Singlet-A      5.7432 eV  215.88 nm  f=0.0790  <S**2>=0.000
      61 -> 66         0.62140
      64 -> 68        -0.17143
      65 -> 68         0.14861
      65 -> 69         0.20486

 Excited State   9:      Singlet-A      5.8752 eV  211.03 nm  f=0.0012  <S**2>=0.000
      62 -> 66         0.29118
      62 -> 68         0.14855
      63 -> 68         0.61075

 Excited State  10:      Singlet-A      6.0889 eV  203.62 nm  f=0.6366  <S**2>=0.000
      61 -> 68         0.10468
      64 -> 66         0.25216
      64 -> 67         0.38873
      64 -> 68         0.31625
      65 -> 67         0.36103
      65 -> 68        -0.11286

 The electronic state is 1-A.
 Alpha  occ. eigenvalues --  -19.21718 -19.15507 -14.31834 -10.33081 -10.27127
 Alpha  occ. eigenvalues --  -10.23043 -10.22289 -10.22212 -10.20411 -10.19566
 Alpha  occ. eigenvalues --  -10.19438 -10.19391 -10.19069 -10.19022 -10.18987
 Alpha  occ. eigenvalues --  -10.18746 -10.18131 -10.17795  -1.12143  -1.04061
 Alpha  occ. eigenvalues --   -0.93905  -0.84911  -0.83599  -0.80336  -0.76774
 Alpha  occ. eigenvalues --   -0.74029  -0.70340  -0.69969  -0.69813  -0.68509
 Alpha  occ. eigenvalues --   -0.62985  -0.60811  -0.59303  -0.55044  -0.53213
 Alpha  occ. eigenvalues --   -0.51843  -0.49380  -0.48434  -0.48086  -0.46652
 Alpha  occ. eigenvalues --   -0.45411  -0.44373  -0.44211  -0.43184  -0.42583
 Alpha  occ. eigenvalues --   -0.41884  -0.41065  -0.39952  -0.39915  -0.39473
 Alpha  occ. eigenvalues --   -0.38908  -0.37996  -0.37600  -0.36454  -0.35986
 Alpha  occ. eigenvalues --   -0.35362  -0.34858  -0.34201  -0.34040  -0.32877
 Alpha  occ. eigenvalues --   -0.28282  -0.28194  -0.24911  -0.24471  -0.22577
 Alpha virt. eigenvalues --   -0.04845  -0.01389  -0.00502   0.03572   0.06648
 Alpha virt. eigenvalues --    0.09078   0.09850   0.11117   0.11937   0.12644
 Alpha virt. eigenvalues --    0.13094   0.14484   0.15091   0.15320   0.16517

 Mulliken atomic charges:
              1
     1  C   -0.524813
     2  C    0.338203
     3  C   -0.230628
     4  C    0.291232
     5  O   -0.524294
     6  C    0.632988
     7  O   -0.468945
     8  C   -0.007819
     9  C   -0.453616
    10  C   -0.434098
    11  C   -0.452223
    12  C    0.107246
    13  C    0.290281
    14  N   -0.507399
    15  C   -0.202428
    16  C   -0.136191
    17  C   -0.138297
    18  C   -0.212868
    19  H    0.182379
    20  H    0.182263
    21  H    0.170683
    22  H    0.195518
    23  H    0.152763
    24  H    0.165628
    25  H    0.147705
    26  H    0.156069
    27  H    0.137804
    28  H    0.155380
    29  H    0.165381
    30  H    0.151742
    31  H    0.147105
    32  H    0.130297
    33  H    0.124424
    34  H    0.121940
    35  H    0.146587
 Sum of Mulliken atomic charges =  -0.00000

 Dipole moment (field-independent basis, Debye):
    X=             -0.1227    Y=              0.3093    Z=              0.1219  Tot=              0.3544
 Quadrupole moment (field-independent basis, Debye-Ang):
   XX=            -97.1301   YY=            -99.7896   ZZ=           -108.0941
   XY=             -9.9345   XZ=              0.4276   YZ=              0.5036

 Summary of Natural Population Analysis:

                                       Natural Population
                Natural  -----------------------------------------------
    Atom  No    Charge         Core      Valence    Rydberg      Total
 -----------------------------------------------------------------------
      C    1   -0.69532      1.99937     4.68829    0.00765     6.69532
      C    2    0.17792      1.99911     3.80289    0.02008     5.82208
      C    3   -0.34923      1.99892     4.33704    0.01328     6.34923
      C    4    0.28704      1.99866     3.69200    0.02230     5.71296
      O    5   -0.52936      1.99968     6.51873    0.01095     8.52936
      C    6    0.82719      1.99927     3.12550    0.04803     5.17281
      O    7   -0.58335      1.99976     6.56357    0.02002     8.58335
      C    8   -0.14653      1.99906     4.13512    0.01235     6.14653
      C    9   -0.66825      1.99938     4.65906    0.00981     6.66825
      C   10   -0.66997      1.99939     4.65957    0.01100     6.66997
      C   11   -0.66881      1.99938     4.65963    0.00980     6.66881
      C   12   -0.08102      1.99893     4.06788    0.01421     6.08102
      C   13    0.14891      1.99892     3.83387    0.01829     5.85109
      N   14   -0.15353      1.99885     5.14177    0.01291     7.15353
      C   15   -0.29438      1.99905     4.28039    0.01494     6.29438
      C   16   -0.23568      1.99910     4.22238    0.01420     6.23568
      C   17   -0.23912      1.99910     4.22584    0.01417     6.23912
      C   18   -0.27040      1.99904     4.25658    0.01479     6.27040
      H   19    0.25422      0.00000     0.74500    0.00078     0.74578
      H   20    0.25450      0.00000     0.74474    0.00076     0.74550
      H   21    0.24722      0.00000     0.75196    0.00082     0.75278
      H   22    0.28710      0.00000     0.71137    0.00153     0.71290
      H   23    0.23702      0.00000     0.76207    0.00091     0.76298
      H   24    0.24186      0.00000     0.75703    0.00111     0.75814
      H   25    0.23407      0.00000     0.76479    0.00114     0.76593
      H   26    0.24271      0.00000     0.75625    0.00103     0.75729
      H   27    0.23036      0.00000     0.76873    0.00090     0.76964
      H   28    0.24233      0.00000     0.75664    0.00103     0.75767
      H   29    0.24303      0.00000     0.75584    0.00113     0.75697
      H   30    0.23652      0.00000     0.76257    0.00091     0.76348
      H   31    0.23374      0.00000     0.76511    0.00115     0.76626
      H   32    0.24029      0.00000     0.75892    0.00079     0.75971
      H   33    0.23619      0.00000     0.76303    0.00077     0.76381
      H   34    0.23408      0.00000     0.76514    0.00078     0.76592
      H   35    0.24865      0.00000     0.75028    0.00107     0.75135
 =======================================================================
   * Total *   -0.00000     35.98499    93.70959    0.30542   130.00000

 Normal termination of Gaussian 09 at Thu Sep 30 04:17:04 2021.
