 Gaussian 09, Revision A.02,

 -----------------------------------
 #p opt b3lyp/6-31G* scf=(xqc,tight)
 -----------------------------------

 ---------------------------------------
 CCN(C(=O)Oc1cccc2c1OC(C2)(C)C)CC_conf_0
 ---------------------------------------
 Symbolic Z-matrix:
 Charge =  0 Multiplicity = 1

 SCF Done:  E(RB3LYP) =  -864.685576291     A.U. after   15 cycles
 SCF Done:  E(RB3LYP) =  -864.693609521     A.U. after   12 cycles
 SCF Done:  E(RB3LYP) =  -864.694561937     A.U. after   12 cycles
 SCF Done:  E(RB3LYP) =  -864.694541874     A.U. after   13 cycles
 SCF Done:  E(RB3LYP) =  -864.695309445     A.U. after   12 cycles
 SCF Done:  E(RB3LYP) =  -864.695773627     A.U. after   12 cycles
 SCF Done:  E(RB3LYP) =  -864.696051456     A.U. after   12 cycles
 SCF Done:  E(RB3LYP) =  -864.696224237     A.U. after   11 cycles
 SCF Done:  E(RB3LYP) =  -864.696338595     A.U. after   12 cycles
 SCF Done:  E(RB3LYP) =  -864.696408368     A.U. after   11 cycles
 SCF Done:  E(RB3LYP) =  -864.696448151     A.U. after   11 cycles
 SCF Done:  E(RB3LYP) =  -864.696465523     A.U. after   11 cycles
 SCF Done:  E(RB3LYP) =  -864.696469095     A.U. after    9 cycles
 SCF Done:  E(RB3LYP) =  -864.696470862     A.U. after    9 cycles
 SCF Done:  E(RB3LYP) =  -864.696470661     A.U. after    9 cycles
 SCF Done:  E(RB3LYP) =  -864.696471457     A.U. after   10 cycles
 SCF Done:  E(RB3LYP) =  -864.696471412     A.U. after    9 cycles
 SCF Done:  E(RB3LYP) =  -864.696471507     A.U. after    6 cycles
 Optimization completed.
    -- Stationary point found.
 Normal termination of Gaussian 09 at Thu Sep 30 21:10:08 2021.

 ----------------------------------------------------------------------
 #p freq b3lyp/6-31G* volume NMR pop=NPA density=current Geom=AllCheck
 Guess=Read
 ----------------------------------------------------------------------

 CCN(C(=O)Oc1cccc2c1OC(C2)(C)C)CC_conf_0
 ---------------------------------------
 Redundant internal coordinates taken from checkpoint file:
 C15H21NO3_6df1_conf_0.chk
 Charge =  0 Multiplicity = 1

 SCF Done:  E(RB3LYP) =  -864.696471507     A.U. after    1 cycles

  1  C    Isotropic =   173.1482   Anisotropy =    22.7988

  2  C    Isotropic =   141.3919   Anisotropy =    49.6393

  3  N    Isotropic =   158.2370   Anisotropy =    68.7234

  4  C    Isotropic =    46.3876   Anisotropy =    76.2230

  5  O    Isotropic =    60.1192   Anisotropy =   381.2536

  6  O    Isotropic =   156.5268   Anisotropy =   162.9701

  7  C    Isotropic =    59.5834   Anisotropy =    88.7178

  8  C    Isotropic =    70.0323   Anisotropy =   149.4543

  9  C    Isotropic =    76.1858   Anisotropy =   147.5465

 10  C    Isotropic =    74.9236   Anisotropy =   151.4042

 11  C    Isotropic =    67.8048   Anisotropy =   116.1594

 12  C    Isotropic =    45.7508   Anisotropy =    92.9547

 13  O    Isotropic =   181.0729   Anisotropy =    40.7300

 14  C    Isotropic =   103.5574   Anisotropy =    80.0598

 15  C    Isotropic =   146.3976   Anisotropy =    38.2564

 16  C    Isotropic =   161.8237   Anisotropy =    36.8451

 17  C    Isotropic =   161.2490   Anisotropy =    36.0047

 18  C    Isotropic =   142.4395   Anisotropy =    46.1237

 19  C    Isotropic =   172.6470   Anisotropy =    24.3461

 20  H    Isotropic =    31.3965   Anisotropy =    10.6754

 21  H    Isotropic =    31.0489   Anisotropy =     6.0786

 22  H    Isotropic =    30.5441   Anisotropy =     5.1833

 23  H    Isotropic =    29.6247   Anisotropy =     7.0857

 24  H    Isotropic =    28.1865   Anisotropy =     6.9094

 25  H    Isotropic =    25.1955   Anisotropy =     7.8141

 26  H    Isotropic =    25.5033   Anisotropy =     3.5297

 27  H    Isotropic =    25.3642   Anisotropy =     5.4865

 28  H    Isotropic =    29.3124   Anisotropy =     6.7156

 29  H    Isotropic =    29.0990   Anisotropy =     7.0135

 30  H    Isotropic =    30.5801   Anisotropy =     5.4815

 31  H    Isotropic =    30.8447   Anisotropy =     7.1468

 32  H    Isotropic =    31.2324   Anisotropy =     8.9902

 33  H    Isotropic =    30.6400   Anisotropy =     7.0348

 34  H    Isotropic =    30.9122   Anisotropy =     8.6814

 35  H    Isotropic =    30.5759   Anisotropy =     7.1755

 36  H    Isotropic =    29.5244   Anisotropy =     6.6063

 37  H    Isotropic =    28.2414   Anisotropy =     4.9431

 38  H    Isotropic =    31.0177   Anisotropy =     6.1404

 39  H    Isotropic =    31.3567   Anisotropy =     9.5506

 40  H    Isotropic =    29.9019   Anisotropy =    10.1983

  Exact polarizability: 203.900  -3.058 187.472  -4.688   3.460 119.832
 Approx polarizability: 277.656  -6.761 277.962 -16.248  13.024 179.525

                     1                      2                      3
                     A                      A                      A
 Frequencies --    15.6283                37.1551                44.3119
 Red. masses --     3.8727                 3.6792                 3.3698
 Frc consts  --     0.0006                 0.0030                 0.0039
 IR Inten    --     0.0668                 1.4068                 0.2390

                     4                      5                      6
                     A                      A                      A
 Frequencies --    52.1420                73.6012                92.9906
 Red. masses --     2.9671                 3.4262                 3.8789
 Frc consts  --     0.0048                 0.0109                 0.0198
 IR Inten    --     0.2898                 2.5745                 1.4577

                     7                      8                      9
                     A                      A                      A
 Frequencies --    97.4662               129.7503               141.6089
 Red. masses --     3.2846                 3.5765                 3.7758
 Frc consts  --     0.0184                 0.0355                 0.0446
 IR Inten    --     0.5835                 0.1419                 0.6310

                    10                     11                     12
                     A                      A                      A
 Frequencies --   202.7276               218.6306               235.1495
 Red. masses --     2.6505                 2.9361                 2.8085
 Frc consts  --     0.0642                 0.0827                 0.0915
 IR Inten    --     0.6534                 2.1399                 1.0133

                    13                     14                     15
                     A                      A                      A
 Frequencies --   238.1743               242.3639               266.6280
 Red. masses --     1.1196                 1.1617                 1.2336
 Frc consts  --     0.0374                 0.0402                 0.0517
 IR Inten    --     0.8446                 1.5313                 0.6539

                    16                     17                     18
                     A                      A                      A
 Frequencies --   276.3671               290.7804               314.5819
 Red. masses --     1.4207                 2.4950                 2.5090
 Frc consts  --     0.0639                 0.1243                 0.1463
 IR Inten    --     0.0680                 1.4945                 0.8403

                    19                     20                     21
                     A                      A                      A
 Frequencies --   319.9967               343.8571               386.6803
 Red. masses --     3.0978                 2.8407                 3.1675
 Frc consts  --     0.1869                 0.1979                 0.2790
 IR Inten    --     4.1534                 0.4439                 0.9900

                    22                     23                     24
                     A                      A                      A
 Frequencies --   400.2988               445.7114               456.4749
 Red. masses --     2.6452                 3.5198                 2.8451
 Frc consts  --     0.2497                 0.4120                 0.3493
 IR Inten    --     9.9048                 3.2083                 2.6691

                    25                     26                     27
                     A                      A                      A
 Frequencies --   478.1604               504.7606               532.5789
 Red. masses --     3.1288                 3.2251                 4.3870
 Frc consts  --     0.4215                 0.4841                 0.7331
 IR Inten    --     3.5889                 0.4880                 1.4093

                    28                     29                     30
                     A                      A                      A
 Frequencies --   544.1679               557.3431               603.2708
 Red. masses --     3.9906                 4.2392                 5.8736
 Frc consts  --     0.6962                 0.7758                 1.2594
 IR Inten    --     0.5172                 1.5811                 1.4821

                    31                     32                     33
                     A                      A                      A
 Frequencies --   616.0980               653.4240               710.7606
 Red. masses --     4.6121                 4.6496                 5.4801
 Frc consts  --     1.0314                 1.1697                 1.6311
 IR Inten    --     8.7221                 0.2084                 7.9313

                    34                     35                     36
                     A                      A                      A
 Frequencies --   750.4680               759.4211               767.8387
 Red. masses --     9.3990                 3.9703                 1.4124
 Frc consts  --     3.1189                 1.3491                 0.4906
 IR Inten    --    20.7589                 5.1314                24.6224

                    37                     38                     39
                     A                      A                      A
 Frequencies --   788.4086               790.4784               795.0517
 Red. masses --     2.9507                 1.4703                 1.3807
 Frc consts  --     1.0806                 0.5413                 0.5142
 IR Inten    --    14.5834                 5.3558                12.2208

                    40                     41                     42
                     A                      A                      A
 Frequencies --   839.6551               856.1253               896.5821
 Red. masses --     3.0475                 3.5915                 1.5369
 Frc consts  --     1.2659                 1.5510                 0.7279
 IR Inten    --     5.6290                 5.8032                 5.0712

                    43                     44                     45
                     A                      A                      A
 Frequencies --   900.7659               930.8363               938.4499
 Red. masses --     3.6417                 1.7790                 2.3044
 Frc consts  --     1.7409                 0.9082                 1.1957
 IR Inten    --    60.6251                 1.9126                 9.6151

                    46                     47                     48
                     A                      A                      A
 Frequencies --   945.2830               962.5101               963.6757
 Red. masses --     1.2516                 2.3323                 1.4995
 Frc consts  --     0.6589                 1.2730                 0.8205
 IR Inten    --     0.7209                10.2486                 6.6680

                    49                     50                     51
                     A                      A                      A
 Frequencies --   990.7016              1029.0797              1040.5363
 Red. masses --     1.8351                 3.2392                 1.4137
 Frc consts  --     1.0612                 2.0211                 0.9018
 IR Inten    --     9.4826                28.6024                 1.1807

                    52                     53                     54
                     A                      A                      A
 Frequencies --  1082.0212              1090.0371              1105.0326
 Red. masses --     3.1857                 1.9336                 1.9344
 Frc consts  --     2.1975                 1.3537                 1.3917
 IR Inten    --    72.5234                19.2379                 2.4844

                    55                     56                     57
                     A                      A                      A
 Frequencies --  1122.6512              1126.2146              1140.2541
 Red. masses --     1.7777                 1.6496                 1.3685
 Frc consts  --     1.3201                 1.2327                 1.0483
 IR Inten    --    24.1464                41.7315                19.2643

                    58                     59                     60
                     A                      A                      A
 Frequencies --  1172.1545              1192.3998              1196.8234
 Red. masses --     2.0394                 2.4384                 1.3487
 Frc consts  --     1.6509                 2.0427                 1.1382
 IR Inten    --   174.1059               202.6932                97.8114

                    61                     62                     63
                     A                      A                      A
 Frequencies --  1232.9380              1260.2951              1272.8266
 Red. masses --     2.0774                 2.6027                 2.0012
 Frc consts  --     1.8606                 2.4356                 1.9102
 IR Inten    --    53.0675                76.2904                49.2674

                    64                     65                     66
                     A                      A                      A
 Frequencies --  1275.4535              1295.8280              1311.3986
 Red. masses --     3.5758                 2.0597                 2.5796
 Frc consts  --     3.4273                 2.0378                 2.6138
 IR Inten    --   104.9525                20.6422                59.6568

                    67                     68                     69
                     A                      A                      A
 Frequencies --  1318.0309              1334.7706              1366.3668
 Red. masses --     1.7053                 2.2955                 1.3672
 Frc consts  --     1.7454                 2.4096                 1.5039
 IR Inten    --   195.9658                77.2846                32.4438

                    70                     71                     72
                     A                      A                      A
 Frequencies --  1379.8342              1401.1514              1419.4510
 Red. masses --     5.4020                 1.2486                 1.3173
 Frc consts  --     6.0598                 1.4442                 1.5637
 IR Inten    --    12.0927                 9.9856                33.9881

                    73                     74                     75
                     A                      A                      A
 Frequencies --  1429.7628              1436.3481              1442.3624
 Red. masses --     1.3039                 1.2851                 1.2852
 Frc consts  --     1.5705                 1.5621                 1.5754
 IR Inten    --    11.8129                28.4911                42.1036

                    76                     77                     78
                     A                      A                      A
 Frequencies --  1445.0224              1458.3140              1504.3837
 Red. masses --     1.2563                 1.8028                 1.0738
 Frc consts  --     1.5455                 2.2590                 1.4318
 IR Inten    --     4.9568               184.7631                 8.0289

                    79                     80                     81
                     A                      A                      A
 Frequencies --  1507.6763              1509.2765              1514.8472
 Red. masses --     1.0553                 2.5344                 1.0914
 Frc consts  --     1.4133                 3.4014                 1.4757
 IR Inten    --     1.4196                64.8392                 5.1229

                    82                     83                     84
                     A                      A                      A
 Frequencies --  1519.5099              1520.0616              1523.0467
 Red. masses --     1.1214                 1.0676                 1.1506
 Frc consts  --     1.5255                 1.4533                 1.5725
 IR Inten    --     5.9482                 1.5985                69.5431

                    85                     86                     87
                     A                      A                      A
 Frequencies --  1526.2328              1529.2978              1533.9912
 Red. masses --     1.0754                 1.0512                 1.0626
 Frc consts  --     1.4759                 1.4485                 1.4732
 IR Inten    --     3.8521                14.5191                 7.3851

                    88                     89                     90
                     A                      A                      A
 Frequencies --  1535.2633              1536.5367              1544.5287
 Red. masses --     2.4936                 1.0986                 1.0756
 Frc consts  --     3.4629                 1.5282                 1.5118
 IR Inten    --    58.9342                 6.6962                 5.9464

                    91                     92                     93
                     A                      A                      A
 Frequencies --  1655.4561              1670.5483              1811.8133
 Red. masses --     6.7805                 8.3911                11.5296
 Frc consts  --    10.9483                13.7971                22.2992
 IR Inten    --    21.6231                12.9000               333.8374

                    94                     95                     96
                     A                      A                      A
 Frequencies --  3038.3348              3051.5669              3053.1923
 Red. masses --     1.0647                 1.0351                 1.0372
 Frc consts  --     5.7912                 5.6792                 5.6968
 IR Inten    --    29.8432                12.5737                11.7076

                    97                     98                     99
                     A                      A                      A
 Frequencies --  3055.9564              3058.0974              3066.3413
 Red. masses --     1.0369                 1.0364                 1.0646
 Frc consts  --     5.7051                 5.7105                 5.8977
 IR Inten    --    32.3784                23.2648                 4.5044

                   100                    101                    102
                     A                      A                      A
 Frequencies --  3075.4424              3085.1665              3110.6492
 Red. masses --     1.0630                 1.0985                 1.1027
 Frc consts  --     5.9237                 6.1605                 6.2864
 IR Inten    --    70.0374                17.5614                17.8043

                   103                    104                    105
                     A                      A                      A
 Frequencies --  3116.3651              3121.4657              3125.0305
 Red. masses --     1.1025                 1.1022                 1.0994
 Frc consts  --     6.3088                 6.3275                 6.3258
 IR Inten    --    16.5330                 6.7851                47.8793

                   106                    107                    108
                     A                      A                      A
 Frequencies --  3127.4660              3129.6678              3132.6112
 Red. masses --     1.1025                 1.0988                 1.1037
 Frc consts  --     6.3533                 6.3414                 6.3814
 IR Inten    --    31.9794                16.0086                14.1551

                   109                    110                    111
                     A                      A                      A
 Frequencies --  3135.4776              3146.7287              3152.1903
 Red. masses --     1.1030                 1.1040                 1.1036
 Frc consts  --     6.3891                 6.4407                 6.4607
 IR Inten    --    33.1251                16.9519                25.2002

                   112                    113                    114
                     A                      A                      A
 Frequencies --  3188.4703              3206.9563              3235.5884
 Red. masses --     1.0877                 1.0929                 1.0933
 Frc consts  --     6.5151                 6.6224                 6.7439
 IR Inten    --     6.1222                25.1767                 4.9359

 - Thermochemistry -
 -------------------
 Temperature   298.150 Kelvin.  Pressure   1.00000 Atm.
 Atom     1 has atomic number  6 and mass  12.00000

 Molecular mass:   263.15214 amu.
 Principal axes and moments of inertia in atomic units:
                           1         2         3
     Eigenvalues --  3162.483607152.803728957.92666
           X            1.00000  -0.00045  -0.00022
           Y            0.00045   1.00000  -0.00109
           Z            0.00022   0.00109   1.00000
 This molecule is an asymmetric top.
 Rotational symmetry number  1.
 Warning -- assumption of classical behavior for rotation
           may cause significant error
 Rotational temperatures (Kelvin)      0.02739     0.01211     0.00967
 Rotational constants (GHZ):           0.57067     0.25231     0.20147
 Zero-point vibrational energy     897991.7 (Joules/Mol)
                                  214.62516 (Kcal/Mol)
 Warning -- explicit consideration of  31 degrees of freedom as
           vibrations may cause significant error
 Vibrational temperatures:     22.49    53.46    63.75    75.02   105.90
          (Kelvin)            133.79   140.23   186.68   203.74   291.68
                              314.56   338.33   342.68   348.71   383.62
                              397.63   418.37   452.61   460.40   494.73
                              556.35   575.94   641.28   656.76   687.97
                              726.24   766.26   782.94   801.89   867.97
                              886.43   940.13  1022.62  1079.75  1092.64
                             1104.75  1134.34  1137.32  1143.90  1208.07
                             1231.77  1289.98  1296.00  1339.26  1350.22
                             1360.05  1384.84  1386.51  1425.40  1480.61
                             1497.10  1556.79  1568.32  1589.89  1615.24
                             1620.37  1640.57  1686.47  1715.60  1721.96
                             1773.92  1813.28  1831.31  1835.09  1864.41
                             1886.81  1896.35  1920.43  1965.89  1985.27
                             2015.94  2042.27  2057.11  2066.58  2075.24
                             2079.06  2098.19  2164.47  2169.21  2171.51
                             2179.52  2186.23  2187.03  2191.32  2195.91
                             2200.32  2207.07  2208.90  2210.73  2222.23
                             2381.83  2403.54  2606.79  4371.48  4390.52
                             4392.86  4396.83  4399.91  4411.78  4424.87
                             4438.86  4475.52  4483.75  4491.09  4496.22
                             4499.72  4502.89  4507.12  4511.25  4527.44
                             4535.29  4587.49  4614.09  4655.28

 Zero-point correction=                           0.342027 (Hartree/Particle)
 Thermal correction to Energy=                    0.361279
 Thermal correction to Enthalpy=                  0.362223
 Thermal correction to Gibbs Free Energy=         0.293110
 Sum of electronic and zero-point Energies=           -864.354445
 Sum of electronic and thermal Energies=              -864.335193
 Sum of electronic and thermal Enthalpies=            -864.334249
 Sum of electronic and thermal Free Energies=         -864.403361

                     E (Thermal)             CV                S
                      KCal/Mol        Cal/Mol-Kelvin    Cal/Mol-Kelvin
 Total                  226.706             73.005            145.460
 Electronic               0.000              0.000              0.000
 Translational            0.889              2.981             42.602
 Rotational               0.889              2.981             33.671
 Vibrational            224.928             67.043             69.187
 Vibration     1          0.593              1.986              7.124
 Vibration     2          0.594              1.982              5.405
 Vibration     3          0.595              1.980              5.056
 Vibration     4          0.596              1.977              4.734
 Vibration     5          0.599              1.966              4.055
 Vibration     6          0.602              1.954              3.596
 Vibration     7          0.603              1.951              3.504
 Vibration     8          0.612              1.924              2.950
 Vibration     9          0.615              1.912              2.782
 Vibration    10          0.639              1.836              2.108
 Vibration    11          0.646              1.813              1.970
 Vibration    12          0.655              1.787              1.839
 Vibration    13          0.656              1.782              1.816
 Vibration    14          0.659              1.775              1.785
 Vibration    15          0.672              1.734              1.618
 Vibration    16          0.678              1.717              1.556
 Vibration    17          0.687              1.691              1.469
 Vibration    18          0.702              1.646              1.338
 Vibration    19          0.706              1.635              1.310
 Vibration    20          0.723              1.588              1.194
 Vibration    21          0.755              1.499              1.013
 Vibration    22          0.766              1.469              0.962
 Vibration    23          0.805              1.370              0.809
 Vibration    24          0.815              1.347              0.776
 Vibration    25          0.835              1.299              0.715
 Vibration    26          0.860              1.239              0.646
 Vibration    27          0.888              1.178              0.581
 Vibration    28          0.899              1.152              0.556
 Vibration    29          0.913              1.124              0.529
 Vibration    30          0.962              1.025              0.444
 Vibration    31          0.976              0.998              0.423

 Normal termination of Gaussian 09 at Thu Sep 30 23:01:47 2021.
 Gaussian 09:  AM64L-G09RevA.02 11-Jun-2009

 ----------------------------------------------------------------------
 #p TD(NStates=10, Root=1) b3lyp/6-31G* volume pop=NPA density=current
 Geom=AllCheck Guess=Read
 ----------------------------------------------------------------------

 CCN(C(=O)Oc1cccc2c1OC(C2)(C)C)CC_conf_0
 ---------------------------------------
 Redundant internal coordinates taken from checkpoint file:
 C15H21NO3_6df1_conf_0.chk
 Charge =  0 Multiplicity = 1

                         Standard orientation:
 ---------------------------------------------------------------------
 Center     Atomic      Atomic             Coordinates (Angstroms)
 Number     Number       Type             X           Y           Z
 ---------------------------------------------------------------------
      1          6           0        4.292027   -0.653169    1.669575
      2          6           0        4.252675    0.183302    0.387111
      3          7           0        3.010872    0.048113   -0.382860
      4          6           0        1.959127    0.819483    0.012383
      5          8           0        1.969452    1.616603    0.931407
      6          8           0        0.862063    0.588140   -0.796725
      7          6           0       -0.346053    1.185647   -0.464410
      8          6           0       -0.535005    2.568245   -0.436772
      9          6           0       -1.797566    3.102375   -0.167496
     10          6           0       -2.893723    2.263315    0.069144
     11          6           0       -2.704150    0.886612    0.038467
     12          6           0       -1.439741    0.357219   -0.222080
     13          8           0       -1.396400   -1.004127   -0.219986
     14          6           0       -2.694311   -1.501203    0.276204
     15          6           0       -3.655383   -0.273548    0.211679
     16          6           0       -2.466032   -1.968085    1.715044
     17          6           0       -3.107024   -2.645415   -0.642617
     18          6           0        2.892734   -0.973553   -1.432854
     19          6           0        2.194478   -2.264920   -0.992314
     20          1           0        5.232832   -0.477166    2.204669
     21          1           0        4.218867   -1.725284    1.457679
     22          1           0        3.466098   -0.368687    2.328001
     23          1           0        5.078338   -0.092956   -0.277796
     24          1           0        4.367296    1.240452    0.639416
     25          1           0        0.316528    3.215600   -0.611631
     26          1           0       -1.924660    4.180482   -0.141482
     27          1           0       -3.874693    2.684595    0.273286
     28          1           0       -4.266389   -0.199993    1.118555
     29          1           0       -4.346569   -0.354668   -0.638292
     30          1           0       -2.144929   -1.130915    2.344012
     31          1           0       -1.691144   -2.740610    1.747863
     32          1           0       -3.389376   -2.382138    2.136646
     33          1           0       -3.206088   -2.293042   -1.674344
     34          1           0       -4.069097   -3.062476   -0.323912
     35          1           0       -2.360871   -3.446546   -0.621662
     36          1           0        3.911524   -1.190523   -1.771176
     37          1           0        2.358176   -0.537919   -2.281004
     38          1           0        2.726832   -2.746601   -0.165076
     39          1           0        2.160413   -2.971898   -1.830197
     40          1           0        1.167570   -2.059251   -0.677483
 ---------------------------------------------------------------------

 SCF Done:  E(RB3LYP) =  -864.696471507     A.U. after    2 cycles

 Excitation energies and oscillator strengths:

 Excited State   1:      Singlet-A      4.9358 eV  251.19 nm  f=0.0678  <S**2>=0.000
      69 -> 73        -0.16078
      70 -> 73        -0.23497
      71 -> 72         0.64452
 This state for optimization and/or second-order correction.
 Total Energy, E(TD-HF/TD-KS) =  -864.515082628
 Copying the excited state density for this state as the 1-particle RhoCI density.

 Excited State   2:      Singlet-A      5.6912 eV  217.85 nm  f=0.0319  <S**2>=0.000
      70 -> 72         0.40150
      71 -> 73         0.56731

 Excited State   3:      Singlet-A      5.8629 eV  211.47 nm  f=0.0280  <S**2>=0.000
      69 -> 72         0.58607
      70 -> 72        -0.35170
      71 -> 73         0.15837

 Excited State   4:      Singlet-A      6.3011 eV  196.77 nm  f=0.0882  <S**2>=0.000
      68 -> 72         0.17566
      69 -> 73        -0.31982
      70 -> 72         0.11298
      70 -> 73         0.50735
      71 -> 72         0.10185
      71 -> 74        -0.25239

 Excited State   5:      Singlet-A      6.3618 eV  194.89 nm  f=0.0162  <S**2>=0.000
      68 -> 72         0.40323
      68 -> 74        -0.16740
      69 -> 73         0.31673
      70 -> 72         0.11932
      70 -> 73        -0.19973
      71 -> 74        -0.35640

 Excited State   6:      Singlet-A      6.4187 eV  193.16 nm  f=0.0875  <S**2>=0.000
      67 -> 72         0.11208
      68 -> 72         0.42520
      69 -> 73        -0.27014
      70 -> 73        -0.11541
      71 -> 72        -0.10058
      71 -> 74         0.41306

 Excited State   7:      Singlet-A      6.4742 eV  191.51 nm  f=0.3389  <S**2>=0.000
      67 -> 72         0.14277
      68 -> 72        -0.27465
      69 -> 72         0.29890
      69 -> 73        -0.22016
      70 -> 72         0.29974
      70 -> 73        -0.19207
      70 -> 74        -0.10368
      71 -> 72        -0.11000
      71 -> 73        -0.24979
      71 -> 74        -0.18047

 Excited State   8:      Singlet-A      6.6714 eV  185.85 nm  f=0.4056  <S**2>=0.000
      66 -> 72         0.16510
      69 -> 72         0.16712
      69 -> 73         0.35037
      70 -> 72         0.26988
      70 -> 73         0.23576
      71 -> 72         0.17958
      71 -> 73        -0.23226
      71 -> 74         0.27305

 Excited State   9:      Singlet-A      6.8304 eV  181.52 nm  f=0.0229  <S**2>=0.000
      68 -> 72         0.17022
      68 -> 73         0.47707
      68 -> 74         0.34875
      71 -> 75        -0.30998

 Excited State  10:      Singlet-A      6.8905 eV  179.93 nm  f=0.0015  <S**2>=0.000
      68 -> 73         0.27588
      68 -> 74         0.12764
      71 -> 75         0.60965

 The electronic state is 1-A.
 Alpha  occ. eigenvalues --  -19.18551 -19.16902 -19.10881 -14.35716 -10.32214
 Alpha  occ. eigenvalues --  -10.25573 -10.23956 -10.23571 -10.21972 -10.21698
 Alpha  occ. eigenvalues --  -10.19678 -10.18840 -10.18585 -10.18387 -10.18298
 Alpha  occ. eigenvalues --  -10.18063 -10.18034 -10.17353 -10.17209  -1.09731
 Alpha  occ. eigenvalues --   -1.06005  -1.00512  -0.93208  -0.84622  -0.81046
 Alpha  occ. eigenvalues --   -0.76761  -0.76161  -0.74650  -0.72443  -0.69780
 Alpha  occ. eigenvalues --   -0.68382  -0.65660  -0.63239  -0.60609  -0.60048
 Alpha  occ. eigenvalues --   -0.56791  -0.55046  -0.52061  -0.50284  -0.48257
 Alpha  occ. eigenvalues --   -0.47680  -0.47094  -0.46511  -0.45556  -0.44260
 Alpha  occ. eigenvalues --   -0.43850  -0.42983  -0.42736  -0.41661  -0.40934
 Alpha  occ. eigenvalues --   -0.40636  -0.40182  -0.38988  -0.38493  -0.38098
 Alpha  occ. eigenvalues --   -0.37842  -0.37419  -0.36667  -0.36120  -0.35830
 Alpha  occ. eigenvalues --   -0.35308  -0.35101  -0.34385  -0.33592  -0.32517
 Alpha  occ. eigenvalues --   -0.30883  -0.29805  -0.26384  -0.23665  -0.23160
 Alpha  occ. eigenvalues --   -0.20630
 Alpha virt. eigenvalues --    0.00327   0.02014   0.05762   0.07800   0.09239
 Alpha virt. eigenvalues --    0.10444   0.10916   0.11583   0.13119   0.13534
 Alpha virt. eigenvalues --    0.13766   0.14232   0.14366   0.15520   0.15918

 Mulliken atomic charges:
              1
     1  C   -0.446304
     2  C   -0.134671
     3  N   -0.447231
     4  C    0.787395
     5  O   -0.516862
     6  O   -0.557252
     7  C    0.287088
     8  C   -0.177744
     9  C   -0.129112
    10  C   -0.227949
    11  C    0.098215
    12  C    0.319130
    13  O   -0.485052
    14  C    0.287124
    15  C   -0.368905
    16  C   -0.449655
    17  C   -0.463450
    18  C   -0.127336
    19  C   -0.456726
    20  H    0.143630
    21  H    0.144150
    22  H    0.175850
    23  H    0.137838
    24  H    0.177871
    25  H    0.135060
    26  H    0.135072
    27  H    0.114422
    28  H    0.151388
    29  H    0.149839
    30  H    0.170698
    31  H    0.160055
    32  H    0.154687
    33  H    0.163979
    34  H    0.156703
    35  H    0.159439
    36  H    0.140789
    37  H    0.170845
    38  H    0.146740
    39  H    0.140137
    40  H    0.180105
 Sum of Mulliken atomic charges =  -0.00000

 Dipole moment (field-independent basis, Debye):
    X=             -0.9205    Y=             -3.6006    Z=             -0.7364  Tot=              3.7886
 Quadrupole moment (field-independent basis, Debye-Ang):
   XX=            -95.9936   YY=           -110.4690   ZZ=           -114.6966
   XY=              0.3159   XZ=             -5.2352   YZ=             -2.8217

 Summary of Natural Population Analysis:

                                       Natural Population
                Natural  -----------------------------------------------
    Atom  No    Charge         Core      Valence    Rydberg      Total
 -----------------------------------------------------------------------
      C    1   -0.68768      1.99945     4.68097    0.00727     6.68768
      C    2   -0.25179      1.99935     4.23675    0.01569     6.25179
      N    3   -0.50055      1.99930     5.48811    0.01314     7.50055
      C    4    0.93749      1.99937     3.01740    0.04575     5.06251
      O    5   -0.64404      1.99978     6.62522    0.01904     8.64404
      O    6   -0.54989      1.99970     6.53917    0.01102     8.54989
      C    7    0.23307      1.99865     3.74249    0.02579     5.76693
      C    8   -0.32579      1.99906     4.30830    0.01843     6.32579
      C    9   -0.15245      1.99914     4.13782    0.01549     6.15245
      C   10   -0.30492      1.99905     4.28660    0.01927     6.30492
      C   11   -0.12111      1.99901     4.10394    0.01816     6.12111
      C   12    0.31543      1.99864     3.66164    0.02429     5.68457
      O   13   -0.43010      1.99975     6.41759    0.01276     8.43010
      C   14    0.28209      1.99902     3.69787    0.02101     5.71791
      C   15   -0.47982      1.99919     4.46828    0.01235     6.47982
      C   16   -0.69228      1.99930     4.68307    0.00991     6.69228
      C   17   -0.69127      1.99930     4.68182    0.01014     6.69127
      C   18   -0.25694      1.99935     4.24237    0.01522     6.25694
      C   19   -0.68940      1.99944     4.68265    0.00731     6.68940
      H   20    0.23291      0.00000     0.76616    0.00094     0.76709
      H   21    0.22101      0.00000     0.77797    0.00102     0.77899
      H   22    0.24436      0.00000     0.75432    0.00132     0.75564
      H   23    0.22493      0.00000     0.77362    0.00145     0.77507
      H   24    0.25425      0.00000     0.74368    0.00207     0.74575
      H   25    0.24749      0.00000     0.75154    0.00097     0.75251
      H   26    0.23383      0.00000     0.76536    0.00081     0.76617
      H   27    0.23010      0.00000     0.76903    0.00088     0.76990
      H   28    0.24280      0.00000     0.75382    0.00338     0.75720
      H   29    0.23622      0.00000     0.75930    0.00447     0.76378
      H   30    0.24930      0.00000     0.74960    0.00110     0.75070
      H   31    0.24274      0.00000     0.75610    0.00115     0.75726
      H   32    0.24156      0.00000     0.75768    0.00076     0.75844
      H   33    0.24521      0.00000     0.75376    0.00103     0.75479
      H   34    0.24336      0.00000     0.75596    0.00068     0.75664
      H   35    0.24251      0.00000     0.75630    0.00119     0.75749
      H   36    0.22899      0.00000     0.76951    0.00150     0.77101
      H   37    0.24809      0.00000     0.75007    0.00184     0.75191
      H   38    0.22316      0.00000     0.77579    0.00105     0.77684
      H   39    0.23080      0.00000     0.76819    0.00101     0.76920
      H   40    0.24632      0.00000     0.75195    0.00173     0.75368
 =======================================================================
   * Total *    0.00000     37.98584   103.66177    0.35239   142.00000

 Normal termination of Gaussian 09 at Fri Oct  1 05:05:18 2021.
