 Gaussian 09, Revision A.02,

 -----------------------------------
 #p opt b3lyp/6-31G* scf=(xqc,tight)
 -----------------------------------

 ---------------------------------------
 CC([Si](Oc1ccc2c(c1)cccc2)(C)C)C_conf_0
 ---------------------------------------
 Symbolic Z-matrix:
 Charge =  0 Multiplicity = 1

 SCF Done:  E(RB3LYP) =  -948.439118857     A.U. after   14 cycles
 SCF Done:  E(RB3LYP) =  -948.446285057     A.U. after   12 cycles
 SCF Done:  E(RB3LYP) =  -948.447205541     A.U. after   12 cycles
 SCF Done:  E(RB3LYP) =  -948.447293000     A.U. after   11 cycles
 SCF Done:  E(RB3LYP) =  -948.447317141     A.U. after   10 cycles
 SCF Done:  E(RB3LYP) =  -948.447326199     A.U. after    9 cycles
 SCF Done:  E(RB3LYP) =  -948.447336915     A.U. after    9 cycles
 SCF Done:  E(RB3LYP) =  -948.447350225     A.U. after    9 cycles
 SCF Done:  E(RB3LYP) =  -948.447361257     A.U. after   10 cycles
 SCF Done:  E(RB3LYP) =  -948.447365090     A.U. after    9 cycles
 SCF Done:  E(RB3LYP) =  -948.447366114     A.U. after    7 cycles
 SCF Done:  E(RB3LYP) =  -948.447366402     A.U. after    7 cycles
 SCF Done:  E(RB3LYP) =  -948.447366481     A.U. after    6 cycles
 Optimization completed.
    -- Stationary point found.
 Normal termination of Gaussian 09 at Tue Sep 28 15:13:20 2021.

 ----------------------------------------------------------------------
 #p freq b3lyp/6-31G* volume NMR pop=NPA density=current Geom=AllCheck
 Guess=Read
 ----------------------------------------------------------------------

 CC([Si](Oc1ccc2c(c1)cccc2)(C)C)C_conf_0
 ---------------------------------------
 Redundant internal coordinates taken from checkpoint file:
 C15H20OSi_a8a8_conf_0.chk
 Charge =  0 Multiplicity = 1

 SCF Done:  E(RB3LYP) =  -948.447366481     A.U. after    1 cycles

  1  C    Isotropic =   172.0851   Anisotropy =    26.0374

  2  C    Isotropic =   170.6504   Anisotropy =     5.6746

  3  Si   Isotropic =   389.7856   Anisotropy =    29.9850

  4  O    Isotropic =   216.0050   Anisotropy =    84.3117

  5  C    Isotropic =    42.6119   Anisotropy =   117.9498

  6  C    Isotropic =    77.6404   Anisotropy =   129.6210

  7  C    Isotropic =    66.5480   Anisotropy =   141.4639

  8  C    Isotropic =    68.2134   Anisotropy =   192.3201

  9  C    Isotropic =    61.7539   Anisotropy =   195.4058

 10  C    Isotropic =    79.6111   Anisotropy =   111.0148

 11  C    Isotropic =    68.9398   Anisotropy =   142.6858

 12  C    Isotropic =    69.9492   Anisotropy =   161.6119

 13  C    Isotropic =    72.9564   Anisotropy =   157.2677

 14  C    Isotropic =    68.0148   Anisotropy =   145.4354

 15  C    Isotropic =   190.6077   Anisotropy =     9.7171

 16  C    Isotropic =   193.9202   Anisotropy =     5.0381

 17  C    Isotropic =   171.9418   Anisotropy =    25.0674

 18  H    Isotropic =    31.0720   Anisotropy =     8.4085

 19  H    Isotropic =    31.3630   Anisotropy =     7.0899

 20  H    Isotropic =    31.0475   Anisotropy =    10.0415

 21  H    Isotropic =    30.9592   Anisotropy =     6.4763

 22  H    Isotropic =    25.2266   Anisotropy =    10.1346

 23  H    Isotropic =    24.7233   Anisotropy =     7.7189

 24  H    Isotropic =    25.1954   Anisotropy =     9.5791

 25  H    Isotropic =    24.7156   Anisotropy =     7.8261

 26  H    Isotropic =    24.8980   Anisotropy =     5.1516

 27  H    Isotropic =    24.9989   Anisotropy =     4.8741

 28  H    Isotropic =    24.6991   Anisotropy =     7.1364

 29  H    Isotropic =    32.0040   Anisotropy =     8.7009

 30  H    Isotropic =    31.5754   Anisotropy =     9.2713

 31  H    Isotropic =    32.0455   Anisotropy =     9.1336

 32  H    Isotropic =    31.8673   Anisotropy =     8.2156

 33  H    Isotropic =    32.2116   Anisotropy =     9.4834

 34  H    Isotropic =    31.6808   Anisotropy =     9.5574

 35  H    Isotropic =    31.2359   Anisotropy =     6.5981

 36  H    Isotropic =    30.3661   Anisotropy =     8.6469

 37  H    Isotropic =    31.0682   Anisotropy =    10.0780

  Exact polarizability: 276.191  -9.380 177.250  -1.777  -8.199 103.067
 Approx polarizability: 385.046 -17.088 297.107  -2.732 -21.203 152.594

 ******    1 imaginary frequencies (negative Signs) ******

                     1                      2                      3
                     A                      A                      A
 Frequencies --    -7.1501                35.6357                44.6635
 Red. masses --     4.0706                 3.4191                 2.6710
 Frc consts  --     0.0001                 0.0026                 0.0031
 IR Inten    --     0.3614                 0.1373                 0.1253

                     4                      5                      6
                     A                      A                      A
 Frequencies --    55.8856               110.3882               121.9093
 Red. masses --     3.8152                 2.1073                 1.5455
 Frc consts  --     0.0070                 0.0151                 0.0135
 IR Inten    --     0.0162                 0.0239                 0.1610

                     7                      8                      9
                     A                      A                      A
 Frequencies --   131.5000               133.9796               158.8683
 Red. masses --     1.1292                 2.8342                 2.5130
 Frc consts  --     0.0115                 0.0300                 0.0374
 IR Inten    --     0.1261                 0.5803                 0.1455

                    10                     11                     12
                     A                      A                      A
 Frequencies --   177.5810               192.6251               218.6861
 Red. masses --     2.8086                 3.5032                 2.1248
 Frc consts  --     0.0522                 0.0766                 0.0599
 IR Inten    --     0.5503                 0.9853                 1.7049

                    13                     14                     15
                     A                      A                      A
 Frequencies --   226.2318               229.4232               239.5227
 Red. masses --     2.2804                 1.6196                 1.6256
 Frc consts  --     0.0688                 0.0502                 0.0549
 IR Inten    --     0.5720                 1.4376                 1.5587

                    16                     17                     18
                     A                      A                      A
 Frequencies --   260.9627               309.8427               321.8957
 Red. masses --     1.5324                 4.3703                 4.2250
 Frc consts  --     0.0615                 0.2472                 0.2579
 IR Inten    --     1.3085                 1.4073                 5.8084

                    19                     20                     21
                     A                      A                      A
 Frequencies --   346.0269               388.7862               413.9489
 Red. masses --     2.7561                 4.1165                 3.3804
 Frc consts  --     0.1944                 0.3666                 0.3413
 IR Inten    --     7.7827                 3.7853                 0.2015

                    22                     23                     24
                     A                      A                      A
 Frequencies --   422.3606               487.7185               501.8650
 Red. masses --     2.6715                 2.5660                 6.4780
 Frc consts  --     0.2808                 0.3596                 0.9613
 IR Inten    --     6.6198                 8.5275                 3.5311

                    25                     26                     27
                     A                      A                      A
 Frequencies --   536.4222               543.7596               570.9933
 Red. masses --     6.1369                 3.5929                 3.6670
 Frc consts  --     1.0404                 0.6259                 0.7044
 IR Inten    --     2.3449                 0.3982                 3.9765

                    28                     29                     30
                     A                      A                      A
 Frequencies --   618.0170               654.2415               663.1960
 Red. masses --     5.1597                 2.8762                 4.4545
 Frc consts  --     1.1611                 0.7254                 1.1543
 IR Inten    --     2.9877                 0.1376                 9.3777

                    31                     32                     33
                     A                      A                      A
 Frequencies --   692.2339               694.0801               761.6692
 Red. masses --     2.0786                 4.0009                 1.3402
 Frc consts  --     0.5869                 1.1356                 0.4581
 IR Inten    --     7.8732                28.5624                 7.4292

                    34                     35                     36
                     A                      A                      A
 Frequencies --   765.0017               769.1948               781.8682
 Red. masses --     1.3151                 2.6072                 4.7972
 Frc consts  --     0.4535                 0.9089                 1.7278
 IR Inten    --    19.5667                 0.1939                 4.3939

                    37                     38                     39
                     A                      A                      A
 Frequencies --   795.6818               805.8325               821.1436
 Red. masses --     1.9555                 3.1480                 1.4351
 Frc consts  --     0.7295                 1.2044                 0.5701
 IR Inten    --    55.9220                 5.0389                49.1204

                    40                     41                     42
                     A                      A                      A
 Frequencies --   867.4811               868.3689               880.3895
 Red. masses --     2.0259                 1.4813                 1.7107
 Frc consts  --     0.8982                 0.6581                 0.7812
 IR Inten    --   257.9787                27.0301                93.2743

                    43                     44                     45
                     A                      A                      A
 Frequencies --   893.7468               901.2924               940.2589
 Red. masses --     1.6058                 2.2750                 1.1741
 Frc consts  --     0.7557                 1.0888                 0.6116
 IR Inten    --    13.9728                83.5944                 2.7679

                    46                     47                     48
                     A                      A                      A
 Frequencies --   944.2763               945.8495               955.9030
 Red. masses --     1.2839                 4.8168                 1.3436
 Frc consts  --     0.6745                 2.5390                 0.7234
 IR Inten    --     1.5661                94.0236                 1.8210

                    49                     50                     51
                     A                      A                      A
 Frequencies --   985.4216               991.4543               998.0369
 Red. masses --     1.2646                 1.4309                 3.4141
 Frc consts  --     0.7235                 0.8287                 2.0036
 IR Inten    --     0.0488                 0.0400               173.2471

                    52                     53                     54
                     A                      A                      A
 Frequencies --  1040.3016              1049.9008              1098.4308
 Red. masses --     1.2250                 2.2823                 2.5390
 Frc consts  --     0.7811                 1.4822                 1.8049
 IR Inten    --    31.9875                 0.5366                 7.0415

                    55                     56                     57
                     A                      A                      A
 Frequencies --  1157.7435              1185.5020              1189.6093
 Red. masses --     1.6794                 1.2309                 1.1829
 Frc consts  --     1.3262                 1.0192                 0.9863
 IR Inten    --    22.8897                 2.4826                 0.9863

                    58                     59                     60
                     A                      A                      A
 Frequencies --  1200.9134              1209.6540              1263.2107
 Red. masses --     1.7940                 1.5162                 2.1126
 Frc consts  --     1.5244                 1.3071                 1.9862
 IR Inten    --     0.0938               121.5624                78.8223

                    61                     62                     63
                     A                      A                      A
 Frequencies --  1293.5113              1294.2999              1309.1825
 Red. masses --     1.5827                 1.7593                 2.8673
 Frc consts  --     1.5603                 1.7364                 2.8955
 IR Inten    --     1.7066                16.1405               374.3164

                    64                     65                     66
                     A                      A                      A
 Frequencies --  1332.9984              1339.5149              1341.5916
 Red. masses --     1.2468                 1.2494                 1.3069
 Frc consts  --     1.3053                 1.3209                 1.3859
 IR Inten    --    42.5739                57.0032                11.4369

                    67                     68                     69
                     A                      A                      A
 Frequencies --  1394.1411              1414.1569              1419.5789
 Red. masses --     2.4195                 4.0584                 4.2552
 Frc consts  --     2.7707                 4.7818                 5.0522
 IR Inten    --    44.9536                22.5859                 9.4140

                    70                     71                     72
                     A                      A                      A
 Frequencies --  1428.7138              1449.6575              1486.2090
 Red. masses --     1.2087                 1.2083                 2.5663
 Frc consts  --     1.4537                 1.4960                 3.3397
 IR Inten    --     0.6683                 2.1077                 4.3713

                    73                     74                     75
                     A                      A                      A
 Frequencies --  1489.0091              1492.0460              1497.0380
 Red. masses --     1.0525                 1.0533                 1.0567
 Frc consts  --     1.3749                 1.3815                 1.3953
 IR Inten    --     0.1474                 0.7250                10.4812

                    76                     77                     78
                     A                      A                      A
 Frequencies --  1502.9527              1520.1827              1521.7032
 Red. masses --     1.0565                 1.5870                 1.3089
 Frc consts  --     1.4061                 2.1609                 1.7857
 IR Inten    --     0.0159                62.6640                40.4737

                    79                     80                     81
                     A                      A                      A
 Frequencies --  1529.6395              1539.3350              1539.9706
 Red. masses --     1.0466                 1.0478                 1.0422
 Frc consts  --     1.4428                 1.4629                 1.4562
 IR Inten    --     2.3960                 4.5501                11.4054

                    82                     83                     84
                     A                      A                      A
 Frequencies --  1561.6743              1623.0617              1661.1541
 Red. masses --     3.3258                 6.9258                 5.3278
 Frc consts  --     4.7788                10.7495                 8.6621
 IR Inten    --    82.1628                 2.6405               107.6019

                    85                     86                     87
                     A                      A                      A
 Frequencies --  1687.3717              3008.0855              3030.7161
 Red. masses --     6.2789                 1.0822                 1.0363
 Frc consts  --    10.5331                 5.7695                 5.6081
 IR Inten    --   112.4378                14.7970                27.9463

                    88                     89                     90
                     A                      A                      A
 Frequencies --  3034.1746              3046.4521              3048.2072
 Red. masses --     1.0373                 1.0364                 1.0361
 Frc consts  --     5.6266                 5.6671                 5.6722
 IR Inten    --    53.1982                 3.4184                 4.5924

                    91                     92                     93
                     A                      A                      A
 Frequencies --  3085.9030              3089.7763              3102.6096
 Red. masses --     1.1017                 1.1009                 1.1012
 Frc consts  --     6.1814                 6.1921                 6.2453
 IR Inten    --     5.2094                72.3814                38.4101

                    94                     95                     96
                     A                      A                      A
 Frequencies --  3116.2921              3117.9655              3122.9669
 Red. masses --     1.0995                 1.0998                 1.0996
 Frc consts  --     6.2908                 6.2994                 6.3186
 IR Inten    --     4.3210                29.9584                24.2026

                    97                     98                     99
                     A                      A                      A
 Frequencies --  3125.4406              3126.2496              3175.1339
 Red. masses --     1.1000                 1.1004                 1.0858
 Frc consts  --     6.3308                 6.3367                 6.4492
 IR Inten    --    12.6731                22.5803                 3.0111

                   100                    101                    102
                     A                      A                      A
 Frequencies --  3179.7748              3182.3594              3193.9722
 Red. masses --     1.0879                 1.0882                 1.0933
 Frc consts  --     6.4808                 6.4929                 6.5711
 IR Inten    --     2.6858                10.7471                33.0646

                   103                    104                    105
                     A                      A                      A
 Frequencies --  3203.2196              3207.3526              3216.2033
 Red. masses --     1.0908                 1.0969                 1.0922
 Frc consts  --     6.5946                 6.6480                 6.6566
 IR Inten    --    15.4704                34.5385                21.0363

 - Thermochemistry -
 -------------------
 Temperature   298.150 Kelvin.  Pressure   1.00000 Atm.
 Atom     1 has atomic number  6 and mass  12.00000

 Molecular mass:   244.12834 amu.
 Principal axes and moments of inertia in atomic units:
                           1         2         3
     Eigenvalues --  1589.897779723.65156**********
           X            1.00000   0.00184   0.00089
           Y           -0.00184   0.99999   0.00500
           Z           -0.00088  -0.00500   0.99999
 This molecule is an asymmetric top.
 Rotational symmetry number  1.
 Warning -- assumption of classical behavior for rotation
           may cause significant error
 Rotational temperatures (Kelvin)      0.05448     0.00891     0.00817
 Rotational constants (GHZ):           1.13513     0.18560     0.17018
    1 imaginary frequencies ignored.
 Zero-point vibrational energy     817366.1 (Joules/Mol)
                                  195.35518 (Kcal/Mol)
 Warning -- explicit consideration of  27 degrees of freedom as
           vibrations may cause significant error
 Vibrational temperatures:     51.27    64.26    80.41   158.82   175.40
          (Kelvin)            189.20   192.77   228.58   255.50   277.14
                              314.64   325.50   330.09   344.62   375.47
                              445.79   463.14   497.85   559.38   595.58
                              607.68   701.72   722.07   771.79   782.35
                              821.53   889.19   941.31   954.19   995.97
                              998.63  1095.87  1100.67  1106.70  1124.93
                             1144.81  1159.41  1181.44  1248.11  1249.39
                             1266.68  1285.90  1296.76  1352.82  1358.60
                             1360.86  1375.33  1417.80  1426.48  1435.95
                             1496.76  1510.57  1580.39  1665.73  1705.67
                             1711.58  1727.84  1740.42  1817.48  1861.07
                             1862.21  1883.62  1917.89  1927.26  1930.25
                             2005.86  2034.65  2042.45  2055.60  2085.73
                             2138.32  2142.35  2146.72  2153.90  2162.41
                             2187.20  2189.39  2200.81  2214.76  2215.67
                             2246.90  2335.22  2390.03  2427.75  4327.96
                             4360.52  4365.49  4383.16  4385.68  4439.92
                             4445.49  4463.96  4483.64  4486.05  4493.25
                             4496.81  4497.97  4568.30  4574.98  4578.70
                             4595.41  4608.71  4614.66  4627.39

 Zero-point correction=                           0.311318 (Hartree/Particle)
 Thermal correction to Energy=                    0.329025
 Thermal correction to Enthalpy=                  0.329970
 Thermal correction to Gibbs Free Energy=         0.265955
 Sum of electronic and zero-point Energies=           -948.136048
 Sum of electronic and thermal Energies=              -948.118341
 Sum of electronic and thermal Enthalpies=            -948.117397
 Sum of electronic and thermal Free Energies=         -948.181411

                     E (Thermal)             CV                S
                      KCal/Mol        Cal/Mol-Kelvin    Cal/Mol-Kelvin
 Total                  206.467             68.506            134.730
 Electronic               0.000              0.000              0.000
 Translational            0.889              2.981             42.379
 Rotational               0.889              2.981             33.461
 Vibrational            204.689             62.544             58.891
 Vibration     1          0.594              1.982              5.488
 Vibration     2          0.595              1.980              5.041
 Vibration     3          0.596              1.975              4.597
 Vibration     4          0.606              1.941              3.262
 Vibration     5          0.609              1.931              3.070
 Vibration     6          0.612              1.922              2.924
 Vibration     7          0.613              1.919              2.888
 Vibration     8          0.621              1.893              2.563
 Vibration     9          0.628              1.870              2.354
 Vibration    10          0.635              1.850              2.202
 Vibration    11          0.646              1.813              1.970
 Vibration    12          0.650              1.801              1.909
 Vibration    13          0.652              1.796              1.883
 Vibration    14          0.657              1.780              1.806
 Vibration    15          0.669              1.744              1.655
 Vibration    16          0.699              1.655              1.363
 Vibration    17          0.707              1.632              1.300
 Vibration    18          0.724              1.583              1.184
 Vibration    19          0.757              1.494              1.005
 Vibration    20          0.778              1.440              0.913
 Vibration    21          0.785              1.422              0.884
 Vibration    22          0.844              1.277              0.690
 Vibration    23          0.857              1.246              0.653
 Vibration    24          0.891              1.169              0.573
 Vibration    25          0.899              1.153              0.557
 Vibration    26          0.927              1.094              0.502
 Vibration    27          0.978              0.994              0.420

 Normal termination of Gaussian 09 at Tue Sep 28 16:02:51 2021.
 Gaussian 09:  AM64L-G09RevA.02 11-Jun-2009

 ----------------------------------------------------------------------
 #p TD(NStates=10, Root=1) b3lyp/6-31G* volume pop=NPA density=current
 Geom=AllCheck Guess=Read
 ----------------------------------------------------------------------

 CC([Si](Oc1ccc2c(c1)cccc2)(C)C)C_conf_0
 ---------------------------------------
 Redundant internal coordinates taken from checkpoint file:
 C15H20OSi_a8a8_conf_0.chk
 Charge =  0 Multiplicity = 1

                         Standard orientation:
 ---------------------------------------------------------------------
 Center     Atomic      Atomic             Coordinates (Angstroms)
 Number     Number       Type             X           Y           Z
 ---------------------------------------------------------------------
      1          6           0        5.178574    0.464674   -0.320130
      2          6           0        3.725971    0.981190   -0.317888
      3         14           0        2.466854   -0.416545   -0.073507
      4          8           0        0.982838    0.393105   -0.159967
      5          6           0       -0.322607    0.012939   -0.068607
      6          6           0       -0.712133   -1.338075    0.144755
      7          6           0       -2.044650   -1.671013    0.226793
      8          6           0       -3.061602   -0.689121    0.103378
      9          6           0       -2.667694    0.673003   -0.110207
     10          6           0       -1.289696    0.991831   -0.191887
     11          6           0       -3.682984    1.661989   -0.233793
     12          6           0       -5.014103    1.321888   -0.151087
     13          6           0       -5.401430   -0.025174    0.059690
     14          6           0       -4.443772   -1.006113    0.183796
     15          6           0        2.597277   -1.678774   -1.471782
     16          6           0        2.668009   -1.247030    1.610731
     17          6           0        3.546929    2.122481    0.700881
     18          1           0        5.346838   -0.303364   -1.084482
     19          1           0        5.453771    0.033176    0.651062
     20          1           0        5.882918    1.283283   -0.518414
     21          1           0        3.513524    1.390057   -1.318171
     22          1           0        0.045042   -2.108974    0.243961
     23          1           0       -2.332580   -2.707081    0.390058
     24          1           0       -0.977775    2.019450   -0.354768
     25          1           0       -3.387911    2.696069   -0.395804
     26          1           0       -5.777087    2.089939   -0.247803
     27          1           0       -6.456079   -0.278909    0.122848
     28          1           0       -4.733350   -2.042096    0.346050
     29          1           0        2.502538   -1.188132   -2.447675
     30          1           0        1.820904   -2.449668   -1.415280
     31          1           0        3.567920   -2.189132   -1.448661
     32          1           0        2.555211   -0.520865    2.423829
     33          1           0        3.664530   -1.696793    1.702303
     34          1           0        1.933563   -2.042727    1.776458
     35          1           0        3.747254    1.780421    1.724505
     36          1           0        2.530771    2.529113    0.677792
     37          1           0        4.244789    2.944846    0.493172
 ---------------------------------------------------------------------

 SCF Done:  E(RB3LYP) =  -948.447366481     A.U. after    1 cycles

 Excitation energies and oscillator strengths:

 Excited State   1:      Singlet-A      4.1388 eV  299.57 nm  f=0.0466  <S**2>=0.000
      65 -> 67         0.15853
      65 -> 68         0.16576
      66 -> 67         0.64272
      66 -> 68        -0.17486
 This state for optimization and/or second-order correction.
 Total Energy, E(TD-HF/TD-KS) =  -948.295269065
 Copying the excited state density for this state as the 1-particle RhoCI density.

 Excited State   2:      Singlet-A      4.5326 eV  273.54 nm  f=0.0115  <S**2>=0.000
      65 -> 67         0.49091
      66 -> 67        -0.24095
      66 -> 68        -0.44098

 Excited State   3:      Singlet-A      5.5917 eV  221.73 nm  f=0.4356  <S**2>=0.000
      63 -> 67         0.39946
      65 -> 67         0.30547
      66 -> 68         0.30728
      66 -> 69        -0.38006

 Excited State   4:      Singlet-A      5.8091 eV  213.43 nm  f=0.8349  <S**2>=0.000
      63 -> 67        -0.24757
      65 -> 67         0.29357
      65 -> 68         0.32412
      66 -> 68         0.38163
      66 -> 69         0.27804

 Excited State   5:      Singlet-A      5.9265 eV  209.20 nm  f=0.2222  <S**2>=0.000
      62 -> 67        -0.18574
      63 -> 67        -0.12159
      63 -> 68         0.17657
      65 -> 67        -0.17776
      65 -> 68         0.44347
      65 -> 69        -0.14026
      66 -> 67        -0.10637
      66 -> 68        -0.10585
      66 -> 69        -0.36382

 Excited State   6:      Singlet-A      5.9980 eV  206.71 nm  f=0.0004  <S**2>=0.000
      64 -> 67         0.69329

 Excited State   7:      Singlet-A      6.2279 eV  199.08 nm  f=0.2031  <S**2>=0.000
      63 -> 67         0.35204
      63 -> 68        -0.20093
      65 -> 67        -0.11540
      65 -> 68         0.36498
      65 -> 69         0.31812
      66 -> 69         0.21815

 Excited State   8:      Singlet-A      6.4795 eV  191.35 nm  f=0.0010  <S**2>=0.000
      66 -> 70         0.66800
      66 -> 71        -0.16514

 Excited State   9:      Singlet-A      6.4940 eV  190.92 nm  f=0.1010  <S**2>=0.000
      62 -> 67        -0.39527
      63 -> 67        -0.28304
      63 -> 68        -0.15945
      65 -> 69         0.42595
      66 -> 69        -0.12607

 Excited State  10:      Singlet-A      6.6564 eV  186.26 nm  f=0.0011  <S**2>=0.000
      59 -> 67        -0.16275
      60 -> 67         0.42732
      61 -> 67         0.46238
      62 -> 67        -0.15304

 The electronic state is 1-A.
 Alpha  occ. eigenvalues --  -66.14741 -19.15420 -10.24742 -10.19282 -10.19059
 Alpha  occ. eigenvalues --  -10.18921 -10.18861 -10.18510 -10.18495 -10.18290
 Alpha  occ. eigenvalues --  -10.18273 -10.17883 -10.17648 -10.17465 -10.17236
 Alpha  occ. eigenvalues --  -10.16653 -10.16631  -5.28855  -3.64982  -3.64637
 Alpha  occ. eigenvalues --   -3.64616  -1.02610  -0.86354  -0.80965  -0.77722
 Alpha  occ. eigenvalues --   -0.76513  -0.73011  -0.71457  -0.70142  -0.68397
 Alpha  occ. eigenvalues --   -0.67848  -0.62160  -0.61297  -0.59051  -0.57962
 Alpha  occ. eigenvalues --   -0.53928  -0.50934  -0.49698  -0.46618  -0.45325
 Alpha  occ. eigenvalues --   -0.44396  -0.43776  -0.42462  -0.42261  -0.41686
 Alpha  occ. eigenvalues --   -0.41145  -0.40931  -0.40316  -0.39608  -0.39364
 Alpha  occ. eigenvalues --   -0.39241  -0.38797  -0.37802  -0.37478  -0.36674
 Alpha  occ. eigenvalues --   -0.34401  -0.33779  -0.33538  -0.33099  -0.31152
 Alpha  occ. eigenvalues --   -0.31088  -0.29324  -0.27243  -0.27111  -0.22763
 Alpha  occ. eigenvalues --   -0.19991
 Alpha virt. eigenvalues --   -0.03090   0.00242   0.04008   0.06123   0.07519
 Alpha virt. eigenvalues --    0.08645   0.09425   0.10615   0.11436   0.11708
 Alpha virt. eigenvalues --    0.11984   0.12779   0.13348   0.14254   0.15181

 Mulliken atomic charges:
              1
     1  C   -0.459308
     2  C   -0.273737
     3  Si   0.910040
     4  O   -0.595496
     5  C    0.414373
     6  C   -0.222626
     7  C   -0.219154
     8  C    0.154947
     9  C    0.140251
    10  C   -0.259512
    11  C   -0.204855
    12  C   -0.159213
    13  C   -0.113086
    14  C   -0.217872
    15  C   -0.688884
    16  C   -0.693413
    17  C   -0.454239
    18  H    0.147281
    19  H    0.145835
    20  H    0.147466
    21  H    0.149298
    22  H    0.123780
    23  H    0.125247
    24  H    0.141120
    25  H    0.118310
    26  H    0.115053
    27  H    0.129420
    28  H    0.120959
    29  H    0.172853
    30  H    0.175498
    31  H    0.166971
    32  H    0.174619
    33  H    0.166375
    34  H    0.174825
    35  H    0.142699
    36  H    0.163287
    37  H    0.140890
 Sum of Mulliken atomic charges =  -0.00000

 Dipole moment (field-independent basis, Debye):
    X=              3.0641    Y=             -0.7835    Z=              0.0006  Tot=              3.1627
 Quadrupole moment (field-independent basis, Debye-Ang):
   XX=           -103.7256   YY=           -104.2025   ZZ=           -112.3457
   XY=             -0.1214   XZ=             -0.6469   YZ=             -1.4259

 Summary of Natural Population Analysis:

                                       Natural Population
                Natural  -----------------------------------------------
    Atom  No    Charge         Core      Valence    Rydberg      Total
 -----------------------------------------------------------------------
      C    1   -0.67596      1.99945     4.66645    0.01007     6.67596
      C    2   -0.75765      1.99927     4.74290    0.01548     6.75765
     Si    3    2.05371      9.99765     1.90261    0.04603    11.94629
      O    4   -0.81115      1.99975     6.79967    0.01174     8.81115
      C    5    0.39514      1.99878     3.58394    0.02214     5.60486
      C    6   -0.37224      1.99905     4.35790    0.01529     6.37224
      C    7   -0.21027      1.99907     4.19508    0.01611     6.21027
      C    8   -0.04858      1.99902     4.03451    0.01505     6.04858
      C    9   -0.05837      1.99903     4.04412    0.01522     6.05837
      C   10   -0.23062      1.99899     4.21603    0.01560     6.23062
      C   11   -0.22710      1.99906     4.21255    0.01548     6.22710
      C   12   -0.29716      1.99912     4.28171    0.01634     6.29716
      C   13   -0.16895      1.99910     4.15524    0.01460     6.16895
      C   14   -0.25229      1.99907     4.23775    0.01547     6.25229
      C   15   -1.22993      1.99946     5.22065    0.00982     7.22993
      C   16   -1.23342      1.99946     5.22348    0.01049     7.23342
      C   17   -0.67490      1.99945     4.66500    0.01044     6.67490
      H   18    0.22981      0.00000     0.76918    0.00100     0.77019
      H   19    0.22418      0.00000     0.77444    0.00137     0.77582
      H   20    0.23446      0.00000     0.76418    0.00136     0.76554
      H   21    0.25446      0.00000     0.74344    0.00210     0.74554
      H   22    0.22532      0.00000     0.77370    0.00098     0.77468
      H   23    0.23124      0.00000     0.76762    0.00114     0.76876
      H   24    0.24118      0.00000     0.75719    0.00163     0.75882
      H   25    0.22647      0.00000     0.77239    0.00114     0.77353
      H   26    0.23049      0.00000     0.76871    0.00081     0.76951
      H   27    0.23188      0.00000     0.76725    0.00087     0.76812
      H   28    0.22811      0.00000     0.77075    0.00114     0.77189
      H   29    0.25903      0.00000     0.74017    0.00080     0.74097
      H   30    0.25908      0.00000     0.73979    0.00113     0.74092
      H   31    0.25615      0.00000     0.74330    0.00055     0.74385
      H   32    0.25973      0.00000     0.73949    0.00078     0.74027
      H   33    0.25641      0.00000     0.74295    0.00064     0.74359
      H   34    0.25906      0.00000     0.74001    0.00094     0.74094
      H   35    0.22245      0.00000     0.77623    0.00132     0.77755
      H   36    0.24013      0.00000     0.75851    0.00136     0.75987
      H   37    0.23010      0.00000     0.76854    0.00136     0.76990
 =======================================================================
   * Total *    0.00000     41.98478    89.71745    0.29777   132.00000

 Normal termination of Gaussian 09 at Tue Sep 28 21:35:26 2021.
