 Gaussian 09, Revision A.02,

 -----------------------------------
 #p opt b3lyp/6-31G* scf=(xqc,tight)
 -----------------------------------

 ------------------------------------
 CN(C(=O)Oc1ccc(cc1)c1ccccc1)C_conf_0
 ------------------------------------
 Symbolic Z-matrix:
 Charge =  0 Multiplicity = 1

 SCF Done:  E(RB3LYP) =  -785.846501198     A.U. after   15 cycles
 SCF Done:  E(RB3LYP) =  -785.850770625     A.U. after   12 cycles
 SCF Done:  E(RB3LYP) =  -785.851222181     A.U. after   11 cycles
 SCF Done:  E(RB3LYP) =  -785.851207285     A.U. after   11 cycles
 SCF Done:  E(RB3LYP) =  -785.851478190     A.U. after   11 cycles
 SCF Done:  E(RB3LYP) =  -785.851515547     A.U. after   10 cycles
 SCF Done:  E(RB3LYP) =  -785.851544170     A.U. after   11 cycles
 SCF Done:  E(RB3LYP) =  -785.851559829     A.U. after   10 cycles
 SCF Done:  E(RB3LYP) =  -785.851569835     A.U. after   10 cycles
 SCF Done:  E(RB3LYP) =  -785.851575810     A.U. after   10 cycles
 SCF Done:  E(RB3LYP) =  -785.851587964     A.U. after   10 cycles
 SCF Done:  E(RB3LYP) =  -785.851592884     A.U. after   10 cycles
 SCF Done:  E(RB3LYP) =  -785.851596254     A.U. after   10 cycles
 SCF Done:  E(RB3LYP) =  -785.851599957     A.U. after   10 cycles
 SCF Done:  E(RB3LYP) =  -785.851605510     A.U. after   10 cycles
 SCF Done:  E(RB3LYP) =  -785.851607355     A.U. after    9 cycles
 SCF Done:  E(RB3LYP) =  -785.851607531     A.U. after    9 cycles
 SCF Done:  E(RB3LYP) =  -785.851607661     A.U. after    7 cycles
 Optimization completed.
    -- Stationary point found.
 Normal termination of Gaussian 09 at Thu Sep 30 01:08:25 2021.

 ----------------------------------------------------------------------
 #p freq b3lyp/6-31G* volume NMR pop=NPA density=current Geom=AllCheck
 Guess=Read
 ----------------------------------------------------------------------

 CN(C(=O)Oc1ccc(cc1)c1ccccc1)C_conf_0
 ------------------------------------
 Redundant internal coordinates taken from checkpoint file:
 C15H15NO2_3378_conf_0.chk
 Charge =  0 Multiplicity = 1

 SCF Done:  E(RB3LYP) =  -785.851607661     A.U. after    1 cycles

  1  C    Isotropic =   155.5209   Anisotropy =    49.7170

  2  N    Isotropic =   180.2361   Anisotropy =    82.4849

  3  C    Isotropic =    47.0163   Anisotropy =    78.4747

  4  O    Isotropic =    68.2677   Anisotropy =   387.9619

  5  O    Isotropic =   146.0487   Anisotropy =   131.9040

  6  C    Isotropic =    45.1562   Anisotropy =   109.9102

  7  C    Isotropic =    75.8771   Anisotropy =   138.0398

  8  C    Isotropic =    68.4417   Anisotropy =   152.1727

  9  C    Isotropic =    57.6779   Anisotropy =   171.9086

 10  C    Isotropic =    68.0395   Anisotropy =   151.8975

 11  C    Isotropic =    72.4422   Anisotropy =   153.1129

 12  C    Isotropic =    54.3920   Anisotropy =   176.1447

 13  C    Isotropic =    69.1006   Anisotropy =   153.8483

 14  C    Isotropic =    67.9402   Anisotropy =   164.4608

 15  C    Isotropic =    69.7890   Anisotropy =   164.9444

 16  C    Isotropic =    67.7366   Anisotropy =   164.6493

 17  C    Isotropic =    68.7212   Anisotropy =   154.3834

 18  C    Isotropic =   155.2451   Anisotropy =    51.2873

 19  H    Isotropic =    28.2546   Anisotropy =     5.5348

 20  H    Isotropic =    29.7533   Anisotropy =     8.8779

 21  H    Isotropic =    29.6688   Anisotropy =     9.1293

 22  H    Isotropic =    25.4040   Anisotropy =     6.8202

 23  H    Isotropic =    24.8853   Anisotropy =     8.1658

 24  H    Isotropic =    24.8652   Anisotropy =     8.2749

 25  H    Isotropic =    24.7315   Anisotropy =     9.0991

 26  H    Isotropic =    24.8788   Anisotropy =     8.6498

 27  H    Isotropic =    24.9121   Anisotropy =     4.9735

 28  H    Isotropic =    25.0306   Anisotropy =     4.1768

 29  H    Isotropic =    24.9020   Anisotropy =     4.9895

 30  H    Isotropic =    24.8192   Anisotropy =     8.6719

 31  H    Isotropic =    29.8859   Anisotropy =     9.3151

 32  H    Isotropic =    29.9123   Anisotropy =     9.1604

 33  H    Isotropic =    28.1365   Anisotropy =     6.9749

  Exact polarizability: 288.699  -5.996 156.446  -3.090  -6.568  81.888
 Approx polarizability: 366.890 -11.832 278.231  -6.707 -15.462 129.605

                     1                      2                      3
                     A                      A                      A
 Frequencies --    24.7150                29.4227                44.3629
 Red. masses --     3.0873                 4.1064                 1.5066
 Frc consts  --     0.0011                 0.0021                 0.0017
 IR Inten    --     2.1342                 0.7821                 0.0527

                     4                      5                      6
                     A                      A                      A
 Frequencies --    54.2256                73.1370                91.0423
 Red. masses --     4.3709                 3.8204                 5.1988
 Frc consts  --     0.0076                 0.0120                 0.0254
 IR Inten    --     0.6782                 0.3230                 0.2970

                     7                      8                      9
                     A                      A                      A
 Frequencies --   106.6927               136.1166               147.8119
 Red. masses --     2.3946                 1.8252                 2.4520
 Frc consts  --     0.0161                 0.0199                 0.0316
 IR Inten    --     0.5747                 0.9191                 1.5778

                    10                     11                     12
                     A                      A                      A
 Frequencies --   199.6314               213.6836               228.9293
 Red. masses --     5.2819                 3.5498                 2.6476
 Frc consts  --     0.1240                 0.0955                 0.0818
 IR Inten    --     0.7638                 3.4723                 1.6624

                    13                     14                     15
                     A                      A                      A
 Frequencies --   294.7837               356.4190               381.9294
 Red. masses --     4.8979                 5.4370                 3.1448
 Frc consts  --     0.2508                 0.4069                 0.2703
 IR Inten    --     0.1630                 9.7109                 6.6323

                    16                     17                     18
                     A                      A                      A
 Frequencies --   390.9586               418.1301               427.6177
 Red. masses --     5.6360                 3.0388                 3.2137
 Frc consts  --     0.5076                 0.3130                 0.3462
 IR Inten    --     5.2695                 0.0571                 0.2695

                    19                     20                     21
                     A                      A                      A
 Frequencies --   428.9554               467.9855               519.1290
 Red. masses --     4.6344                 3.8180                 3.3969
 Frc consts  --     0.5024                 0.4927                 0.5394
 IR Inten    --     3.8169                 5.3860                 6.3536

                    22                     23                     24
                     A                      A                      A
 Frequencies --   562.3780               614.2643               632.9923
 Red. masses --     2.7224                 6.5619                 6.3335
 Frc consts  --     0.5073                 1.4588                 1.4952
 IR Inten    --     3.4386                 2.1706                 0.4305

                    25                     26                     27
                     A                      A                      A
 Frequencies --   636.9774               657.6062               714.6045
 Red. masses --     5.7756                 6.5446                 2.0621
 Frc consts  --     1.3807                 1.6675                 0.6204
 IR Inten    --     6.4260                 5.4293                18.2901

                    28                     29                     30
                     A                      A                      A
 Frequencies --   725.5374               737.5268               744.2947
 Red. masses --     3.4868                11.4393                 5.1547
 Frc consts  --     1.0814                 3.6661                 1.6824
 IR Inten    --     8.1083                15.2114                 4.4293

                    31                     32                     33
                     A                      A                      A
 Frequencies --   778.9676               830.7018               836.7027
 Red. masses --     1.9158                 2.5279                 1.3299
 Frc consts  --     0.6849                 1.0278                 0.5485
 IR Inten    --    44.5829                13.5871                 1.0615

                    34                     35                     36
                     A                      A                      A
 Frequencies --   858.6393               863.4156               875.5701
 Red. masses --     2.2055                 1.7899                 2.9060
 Frc consts  --     0.9580                 0.7862                 1.3126
 IR Inten    --    10.1946                 4.0900                37.2475

                    37                     38                     39
                     A                      A                      A
 Frequencies --   929.4170               958.4726               961.3625
 Red. masses --     1.4152                 1.3099                 1.3158
 Frc consts  --     0.7203                 0.7090                 0.7165
 IR Inten    --     1.1229                 0.3588                 0.9581

                    40                     41                     42
                     A                      A                      A
 Frequencies --   970.1547               995.3255              1016.9582
 Red. masses --     1.3453                 1.2444                 5.9829
 Frc consts  --     0.7460                 0.7263                 3.6456
 IR Inten    --     0.1696                 0.1438                 1.1885

                    43                     44                     45
                     A                      A                      A
 Frequencies --  1025.7046              1036.5577              1049.5053
 Red. masses --     6.1941                 3.1061                 2.4180
 Frc consts  --     3.8395                 1.9663                 1.5692
 IR Inten    --    19.7533                 6.7986                 4.0096

                    46                     47                     48
                     A                      A                      A
 Frequencies --  1070.9207              1094.2895              1113.5961
 Red. masses --     1.8709                 1.3618                 1.6095
 Frc consts  --     1.2642                 0.9608                 1.1760
 IR Inten    --     0.4985                 7.9405                 3.7226

                    49                     50                     51
                     A                      A                      A
 Frequencies --  1142.6398              1143.5098              1187.8168
 Red. masses --     1.3049                 1.2211                 2.2544
 Frc consts  --     1.0038                 0.9408                 1.8740
 IR Inten    --     5.3451                 0.7950               477.8369

                    52                     53                     54
                     A                      A                      A
 Frequencies --  1190.6446              1193.2261              1205.9592
 Red. masses --     1.4479                 1.0966                 1.2540
 Frc consts  --     1.2093                 0.9199                 1.0745
 IR Inten    --    70.3864                 0.2760               199.5236

                    55                     56                     57
                     A                      A                      A
 Frequencies --  1218.4334              1255.4501              1299.2279
 Red. masses --     1.1627                 3.5916                 5.6557
 Frc consts  --     1.0170                 3.3353                 5.6248
 IR Inten    --    27.9150               581.8422                16.9828

                    58                     59                     60
                     A                      A                      A
 Frequencies --  1313.6927              1314.8141              1342.4539
 Red. masses --     3.1733                 3.0218                 1.8273
 Frc consts  --     3.2267                 3.0778                 1.9403
 IR Inten    --     3.9888                14.7515                 0.9777

                    61                     62                     63
                     A                      A                      A
 Frequencies --  1349.5629              1370.7566              1440.0555
 Red. masses --     3.7100                 1.7246                 2.6647
 Frc consts  --     3.9812                 1.9092                 3.2558
 IR Inten    --     3.4840                 0.8649               354.6369

                    64                     65                     66
                     A                      A                      A
 Frequencies --  1450.9345              1459.4647              1489.5037
 Red. masses --     2.8274                 1.1854                 1.2161
 Frc consts  --     3.5069                 1.4876                 1.5896
 IR Inten    --     6.7968                29.2728                77.6015

                    67                     68                     69
                     A                      A                      A
 Frequencies --  1497.0734              1519.0368              1530.1117
 Red. masses --     2.3743                 1.0423                 1.0468
 Frc consts  --     3.1353                 1.4170                 1.4440
 IR Inten    --     2.2304                 0.7598                14.9772

                    70                     71                     72
                     A                      A                      A
 Frequencies --  1531.0710              1539.2012              1561.7058
 Red. masses --     1.0483                 2.1197                 1.6428
 Frc consts  --     1.4479                 2.9588                 2.3607
 IR Inten    --    17.6133                77.5437                88.1505

                    73                     74                     75
                     A                      A                      A
 Frequencies --  1568.4594              1625.1551              1641.8224
 Red. masses --     1.7023                 5.6919                 6.2919
 Frc consts  --     2.4674                 8.8572                 9.9927
 IR Inten    --     1.9358                 1.8923                 2.0417

                    76                     77                     78
                     A                      A                      A
 Frequencies --  1661.8166              1666.9848              1817.1959
 Red. masses --     5.5520                 5.8443                10.8914
 Frc consts  --     9.0337                 9.5686                21.1903
 IR Inten    --    15.8833                 4.6520               377.3861

                    79                     80                     81
                     A                      A                      A
 Frequencies --  3028.0656              3035.9013              3073.6490
 Red. masses --     1.0404                 1.0410                 1.1040
 Frc consts  --     5.6204                 5.6532                 6.1454
 IR Inten    --    27.6107               130.4846                54.8612

                    82                     83                     84
                     A                      A                      A
 Frequencies --  3079.1350              3179.7850              3186.1461
 Red. masses --     1.1048                 1.0845                 1.0873
 Frc consts  --     6.1717                 6.4609                 6.5033
 IR Inten    --    20.0525                 5.3684                 3.3305

                    85                     86                     87
                     A                      A                      A
 Frequencies --  3194.9244              3195.0975              3197.7695
 Red. masses --     1.0961                 1.0898                 1.0897
 Frc consts  --     6.5920                 6.5549                 6.5655
 IR Inten    --     0.8771                30.3136                 3.7588

                    88                     89                     90
                     A                      A                      A
 Frequencies --  3199.9637              3203.6620              3210.8208
 Red. masses --     1.0900                 1.0925                 1.0977
 Frc consts  --     6.5759                 6.6063                 6.6676
 IR Inten    --     2.5725                35.3566                24.4501

                    91                     92                     93
                     A                      A                      A
 Frequencies --  3212.6959              3216.5588              3253.9404
 Red. masses --     1.0942                 1.0943                 1.0929
 Frc consts  --     6.6540                 6.6709                 6.8182
 IR Inten    --     3.4034                 8.8496                 2.9019

 - Thermochemistry -
 -------------------
 Temperature   298.150 Kelvin.  Pressure   1.00000 Atm.
 Atom     1 has atomic number  6 and mass  12.00000

 Molecular mass:   241.11028 amu.
 Principal axes and moments of inertia in atomic units:
                           1         2         3
     Eigenvalues --  1021.32277********************
           X            1.00000  -0.00271  -0.00088
           Y            0.00270   0.99996  -0.00883
           Z            0.00090   0.00883   0.99996
 This molecule is an asymmetric top.
 Rotational symmetry number  1.
 Warning -- assumption of classical behavior for rotation
           may cause significant error
 Rotational temperatures (Kelvin)      0.08481     0.00710     0.00667
 Rotational constants (GHZ):           1.76706     0.14788     0.13899
 Zero-point vibrational energy     707734.8 (Joules/Mol)
                                  169.15267 (Kcal/Mol)
 Warning -- explicit consideration of  23 degrees of freedom as
           vibrations may cause significant error
 Vibrational temperatures:     35.56    42.33    63.83    78.02   105.23
          (Kelvin)            130.99   153.51   195.84   212.67   287.22
                              307.44   329.38   424.13   512.81   549.51
                              562.50   601.60   615.25   617.17   673.33
                              746.91   809.14   883.79   910.73   916.47
                              946.15  1028.16  1043.89  1061.14  1070.87
                             1120.76  1195.19  1203.83  1235.39  1242.26
                             1259.75  1337.22  1379.03  1383.18  1395.83
                             1432.05  1463.17  1475.76  1491.37  1510.00
                             1540.81  1574.44  1602.21  1644.00  1645.25
                             1709.00  1713.07  1716.78  1735.10  1753.05
                             1806.31  1869.30  1890.11  1891.72  1931.49
                             1941.72  1972.21  2071.92  2087.57  2099.84
                             2143.06  2153.95  2185.55  2201.49  2202.87
                             2214.56  2246.94  2256.66  2338.23  2362.21
                             2390.98  2398.42  2614.54  4356.71  4367.98
                             4422.29  4430.18  4575.00  4584.15  4596.78
                             4597.03  4600.87  4604.03  4609.35  4619.65
                             4622.35  4627.90  4681.69

 Zero-point correction=                           0.269562 (Hartree/Particle)
 Thermal correction to Energy=                    0.286017
 Thermal correction to Enthalpy=                  0.286961
 Thermal correction to Gibbs Free Energy=         0.222931
 Sum of electronic and zero-point Energies=           -785.582046
 Sum of electronic and thermal Energies=              -785.565591
 Sum of electronic and thermal Enthalpies=            -785.564647
 Sum of electronic and thermal Free Energies=         -785.628677

                     E (Thermal)             CV                S
                      KCal/Mol        Cal/Mol-Kelvin    Cal/Mol-Kelvin
 Total                  179.478             61.447            134.763
 Electronic               0.000              0.000              0.000
 Translational            0.889              2.981             42.341
 Rotational               0.889              2.981             33.448
 Vibrational            177.701             55.485             58.974
 Vibration     1          0.593              1.985              6.214
 Vibration     2          0.593              1.984              5.868
 Vibration     3          0.595              1.980              5.054
 Vibration     4          0.596              1.976              4.657
 Vibration     5          0.599              1.967              4.067
 Vibration     6          0.602              1.956              3.638
 Vibration     7          0.606              1.944              3.328
 Vibration     8          0.614              1.917              2.858
 Vibration     9          0.617              1.905              2.700
 Vibration    10          0.638              1.840              2.136
 Vibration    11          0.644              1.820              2.012
 Vibration    12          0.652              1.797              1.887
 Vibration    13          0.689              1.683              1.446
 Vibration    14          0.732              1.562              1.138
 Vibration    15          0.751              1.509              1.032
 Vibration    16          0.759              1.490              0.996
 Vibration    17          0.781              1.431              0.898
 Vibration    18          0.789              1.410              0.866
 Vibration    19          0.790              1.407              0.862
 Vibration    20          0.825              1.321              0.743
 Vibration    21          0.874              1.208              0.612
 Vibration    22          0.918              1.113              0.519
 Vibration    23          0.974              1.002              0.426

 Normal termination of Gaussian 09 at Thu Sep 30 02:27:04 2021.
 Gaussian 09:  AM64L-G09RevA.02 11-Jun-2009

 ----------------------------------------------------------------------
 #p TD(NStates=10, Root=1) b3lyp/6-31G* volume pop=NPA density=current
 Geom=AllCheck Guess=Read
 ----------------------------------------------------------------------

 CN(C(=O)Oc1ccc(cc1)c1ccccc1)C_conf_0
 ------------------------------------
 Redundant internal coordinates taken from checkpoint file:
 C15H15NO2_3378_conf_0.chk
 Charge =  0 Multiplicity = 1

                         Standard orientation:
 ---------------------------------------------------------------------
 Center     Atomic      Atomic             Coordinates (Angstroms)
 Number     Number       Type             X           Y           Z
 ---------------------------------------------------------------------
      1          6           0       -5.092795    1.370661    0.377285
      2          7           0       -4.705133    0.014259    0.021865
      3          6           0       -3.419484   -0.420588   -0.126067
      4          8           0       -3.089557   -1.546648   -0.445923
      5          8           0       -2.528745    0.599064    0.137783
      6          6           0       -1.158726    0.363955    0.082424
      7          6           0       -0.391375    1.359941   -0.518914
      8          6           0        0.996055    1.246024   -0.537933
      9          6           0        1.642070    0.138817    0.036207
     10          6           0        0.840566   -0.847100    0.636171
     11          6           0       -0.548055   -0.744684    0.669098
     12          6           0        3.121476    0.014338    0.010287
     13          6           0        3.945326    1.140248    0.179752
     14          6           0        5.334286    1.023870    0.153058
     15          6           0        5.932156   -0.222651   -0.041072
     16          6           0        5.127208   -1.350793   -0.209595
     17          6           0        3.738315   -1.233175   -0.185515
     18          6           0       -5.788612   -0.919571   -0.241220
     19          1           0       -4.211466    1.976395    0.571622
     20          1           0       -5.722900    1.358001    1.276444
     21          1           0       -5.670851    1.829365   -0.436721
     22          1           0       -0.890199    2.210736   -0.972592
     23          1           0        1.584056    2.014600   -1.031285
     24          1           0        1.313345   -1.700969    1.112873
     25          1           0       -1.147939   -1.514962    1.135944
     26          1           0        3.491193    2.110850    0.359773
     27          1           0        5.950619    1.908096    0.293909
     28          1           0        7.014799   -0.314011   -0.060881
     29          1           0        5.581219   -2.325239   -0.370307
     30          1           0        3.121780   -2.113232   -0.346409
     31          1           0       -6.398750   -0.574572   -1.086900
     32          1           0       -6.438192   -1.005494    0.639584
     33          1           0       -5.364826   -1.894465   -0.476790
 ---------------------------------------------------------------------

 SCF Done:  E(RB3LYP) =  -785.851607661     A.U. after    1 cycles

 Excitation energies and oscillator strengths:

 Excited State   1:      Singlet-A      4.8583 eV  255.20 nm  f=0.6853  <S**2>=0.000
      64 -> 65         0.69519
 This state for optimization and/or second-order correction.
 Total Energy, E(TD-HF/TD-KS) =  -785.673068657
 Copying the excited state density for this state as the 1-particle RhoCI density.

 Excited State   2:      Singlet-A      4.9337 eV  251.30 nm  f=0.0047  <S**2>=0.000
      61 -> 65        -0.31232
      62 -> 65         0.22763
      64 -> 66         0.57637

 Excited State   3:      Singlet-A      5.0312 eV  246.43 nm  f=0.0008  <S**2>=0.000
      61 -> 65         0.26773
      62 -> 65         0.36036
      64 -> 67         0.52735

 Excited State   4:      Singlet-A      5.5726 eV  222.49 nm  f=0.0006  <S**2>=0.000
      63 -> 65         0.69775

 Excited State   5:      Singlet-A      5.7070 eV  217.25 nm  f=0.0205  <S**2>=0.000
      60 -> 67        -0.22185
      61 -> 65        -0.17493
      62 -> 65         0.48583
      64 -> 66        -0.30052
      64 -> 67        -0.27170

 Excited State   6:      Singlet-A      5.8281 eV  212.73 nm  f=0.0703  <S**2>=0.000
      59 -> 65         0.14090
      60 -> 66        -0.24604
      61 -> 65         0.48261
      64 -> 66         0.20624
      64 -> 67        -0.32951

 Excited State   7:      Singlet-A      5.8655 eV  211.38 nm  f=0.0088  <S**2>=0.000
      60 -> 65         0.55474
      64 -> 68         0.42039

 Excited State   8:      Singlet-A      6.0415 eV  205.22 nm  f=0.0018  <S**2>=0.000
      62 -> 66        -0.10914
      63 -> 66         0.64306
      63 -> 67        -0.24842

 Excited State   9:      Singlet-A      6.0537 eV  204.81 nm  f=0.0112  <S**2>=0.000
      61 -> 66         0.14291
      62 -> 66         0.62500
      62 -> 67        -0.22913
      63 -> 66         0.10879
      64 -> 68        -0.12596

 Excited State  10:      Singlet-A      6.1080 eV  202.99 nm  f=0.0058  <S**2>=0.000
      59 -> 65         0.63818
      59 -> 68        -0.14841
      60 -> 66         0.15980

 The electronic state is 1-A.
 Alpha  occ. eigenvalues --  -19.19573 -19.11689 -14.37150 -10.33443 -10.24911
 Alpha  occ. eigenvalues --  -10.22378 -10.21830 -10.19616 -10.19539 -10.19059
 Alpha  occ. eigenvalues --  -10.18968 -10.18926 -10.18771 -10.18756 -10.18743
 Alpha  occ. eigenvalues --  -10.18659 -10.18626 -10.18584  -1.10628  -1.01507
 Alpha  occ. eigenvalues --   -0.94298  -0.86362  -0.84200  -0.77596  -0.74892
 Alpha  occ. eigenvalues --   -0.73935  -0.73390  -0.72482  -0.69599  -0.63309
 Alpha  occ. eigenvalues --   -0.61914  -0.59401  -0.58598  -0.56008  -0.53420
 Alpha  occ. eigenvalues --   -0.52175  -0.49021  -0.48734  -0.47892  -0.46578
 Alpha  occ. eigenvalues --   -0.45534  -0.44046  -0.43939  -0.43071  -0.42529
 Alpha  occ. eigenvalues --   -0.42235  -0.41442  -0.40817  -0.40739  -0.40296
 Alpha  occ. eigenvalues --   -0.38745  -0.37694  -0.36463  -0.36126  -0.34564
 Alpha  occ. eigenvalues --   -0.33790  -0.33609  -0.31352  -0.27337  -0.26312
 Alpha  occ. eigenvalues --   -0.24895  -0.24702  -0.24510  -0.21490
 Alpha virt. eigenvalues --   -0.02285  -0.00163   0.00315   0.03040   0.05729
 Alpha virt. eigenvalues --    0.08994   0.09790   0.10212   0.12812   0.13217
 Alpha virt. eigenvalues --    0.14171   0.14333   0.15066   0.15624   0.15861

 Mulliken atomic charges:
              1
     1  C   -0.318873
     2  N   -0.430284
     3  C    0.779005
     4  O   -0.505944
     5  O   -0.533665
     6  C    0.346669
     7  C   -0.162677
     8  C   -0.183446
     9  C    0.093119
    10  C   -0.184766
    11  C   -0.133544
    12  C    0.067531
    13  C   -0.175881
    14  C   -0.131675
    15  C   -0.145975
    16  C   -0.134753
    17  C   -0.171884
    18  C   -0.320522
    19  H    0.199504
    20  H    0.161232
    21  H    0.160716
    22  H    0.143563
    23  H    0.141893
    24  H    0.145511
    25  H    0.163346
    26  H    0.118552
    27  H    0.121832
    28  H    0.118128
    29  H    0.122259
    30  H    0.123955
    31  H    0.159542
    32  H    0.158318
    33  H    0.209211
 Sum of Mulliken atomic charges =  -0.00000

 Dipole moment (field-independent basis, Debye):
    X=             -4.5097    Y=              2.0056    Z=              0.7079  Tot=              4.9861
 Quadrupole moment (field-independent basis, Debye-Ang):
   XX=            -83.3921   YY=           -100.3699   ZZ=           -107.0347
   XY=             -6.0743   XZ=             -2.1942   YZ=             -2.9544

 Summary of Natural Population Analysis:

                                       Natural Population
                Natural  -----------------------------------------------
    Atom  No    Charge         Core      Valence    Rydberg      Total
 -----------------------------------------------------------------------
      C    1   -0.47175      1.99946     4.46076    0.01153     6.47175
      N    2   -0.47408      1.99932     5.46375    0.01101     7.47408
      C    3    0.93000      1.99937     3.02580    0.04483     5.07000
      O    4   -0.64301      1.99978     6.62396    0.01927     8.64301
      O    5   -0.52601      1.99969     6.51587    0.01045     8.52601
      C    6    0.30528      1.99869     3.67312    0.02291     5.69472
      C    7   -0.24396      1.99903     4.22994    0.01499     6.24396
      C    8   -0.22658      1.99906     4.21264    0.01489     6.22658
      C    9   -0.01240      1.99902     3.99647    0.01691     6.01240
      C   10   -0.20597      1.99906     4.19248    0.01442     6.20597
      C   11   -0.25486      1.99902     4.24113    0.01471     6.25486
      C   12   -0.09042      1.99902     4.07446    0.01694     6.09042
      C   13   -0.22972      1.99905     4.21610    0.01457     6.22972
      C   14   -0.23239      1.99911     4.21841    0.01487     6.23239
      C   15   -0.25809      1.99909     4.24208    0.01692     6.25809
      C   16   -0.23982      1.99911     4.22565    0.01505     6.23982
      C   17   -0.21700      1.99905     4.20370    0.01425     6.21700
      C   18   -0.47055      1.99947     4.45911    0.01197     6.47055
      H   19    0.25688      0.00000     0.74224    0.00087     0.74312
      H   20    0.22508      0.00000     0.77338    0.00154     0.77492
      H   21    0.22339      0.00000     0.77502    0.00159     0.77661
      H   22    0.24719      0.00000     0.75163    0.00118     0.75281
      H   23    0.24224      0.00000     0.75643    0.00133     0.75776
      H   24    0.24325      0.00000     0.75547    0.00128     0.75675
      H   25    0.26143      0.00000     0.73742    0.00115     0.73857
      H   26    0.22782      0.00000     0.77071    0.00147     0.77218
      H   27    0.23235      0.00000     0.76672    0.00093     0.76765
      H   28    0.22861      0.00000     0.77030    0.00109     0.77139
      H   29    0.23279      0.00000     0.76629    0.00092     0.76721
      H   30    0.22982      0.00000     0.76880    0.00138     0.77018
      H   31    0.22253      0.00000     0.77605    0.00142     0.77747
      H   32    0.22280      0.00000     0.77580    0.00140     0.77720
      H   33    0.26515      0.00000     0.73335    0.00150     0.73485
 =======================================================================
   * Total *   -0.00000     35.98540    91.69506    0.31954   128.00000

 Normal termination of Gaussian 09 at Thu Sep 30 08:10:16 2021.
