 Gaussian 09, Revision A.02,

 -----------------------------------
 #p opt b3lyp/6-31G* scf=(xqc,tight)
 -----------------------------------

 -----------------------------------------
 CN(C(=O)Oc1ccc2c(c1)cc(cc2)N(C)C)C_conf_0
 -----------------------------------------
 Symbolic Z-matrix:
 Charge =  0 Multiplicity = 1

 SCF Done:  E(RB3LYP) =  -842.391174134     A.U. after   15 cycles
 SCF Done:  E(RB3LYP) =  -842.399398366     A.U. after   12 cycles
 SCF Done:  E(RB3LYP) =  -842.400248612     A.U. after   12 cycles
 SCF Done:  E(RB3LYP) =  -842.400943686     A.U. after   12 cycles
 SCF Done:  E(RB3LYP) =  -842.401966340     A.U. after   11 cycles
 SCF Done:  E(RB3LYP) =  -842.402476377     A.U. after   12 cycles
 SCF Done:  E(RB3LYP) =  -842.402824631     A.U. after   12 cycles
 SCF Done:  E(RB3LYP) =  -842.402937786     A.U. after   12 cycles
 SCF Done:  E(RB3LYP) =  -842.403011433     A.U. after   11 cycles
 SCF Done:  E(RB3LYP) =  -842.403069346     A.U. after   10 cycles
 SCF Done:  E(RB3LYP) =  -842.404958560     A.U. after    9 cycles
 SCF Done:  E(RB3LYP) =  -842.404960915     A.U. after    9 cycles
 SCF Done:  E(RB3LYP) =  -842.404961557     A.U. after    8 cycles
 SCF Done:  E(RB3LYP) =  -842.404961859     A.U. after    8 cycles
 SCF Done:  E(RB3LYP) =  -842.404961924     A.U. after    7 cycles
 SCF Done:  E(RB3LYP) =  -842.404962015     A.U. after    7 cycles
 SCF Done:  E(RB3LYP) =  -842.404962096     A.U. after    7 cycles
 SCF Done:  E(RB3LYP) =  -842.404962118     A.U. after    6 cycles
 Optimization completed.
    -- Stationary point found.
 Normal termination of Gaussian 09 at Thu Sep 30 11:51:27 2021.

 ----------------------------------------------------------------------
 #p freq b3lyp/6-31G* volume NMR pop=NPA density=current Geom=AllCheck
 Guess=Read
 ----------------------------------------------------------------------

 CN(C(=O)Oc1ccc2c(c1)cc(cc2)N(C)C)C_conf_0
 -----------------------------------------
 Redundant internal coordinates taken from checkpoint file:
 C15H18N2O2_794e_conf_0.chk
 Charge =  0 Multiplicity = 1

 SCF Done:  E(RB3LYP) =  -842.404962118     A.U. after    1 cycles

  1  C    Isotropic =   155.4418   Anisotropy =    49.5306

  2  N    Isotropic =   180.2301   Anisotropy =    84.1865

  3  C    Isotropic =    46.9260   Anisotropy =    77.9557

  4  O    Isotropic =    67.8244   Anisotropy =   390.9966

  5  O    Isotropic =   146.6447   Anisotropy =   137.4432

  6  C    Isotropic =    46.3658   Anisotropy =   103.4160

  7  C    Isotropic =    80.2307   Anisotropy =   129.0136

  8  C    Isotropic =    67.5670   Anisotropy =   142.2436

  9  C    Isotropic =    72.7150   Anisotropy =   185.0634

 10  C    Isotropic =    61.0757   Anisotropy =   190.8704

 11  C    Isotropic =    77.4477   Anisotropy =   127.6563

 12  C    Isotropic =    87.7135   Anisotropy =   113.5791

 13  C    Isotropic =    51.5576   Anisotropy =   146.6591

 14  C    Isotropic =    82.2661   Anisotropy =   140.6189

 15  C    Isotropic =    67.0692   Anisotropy =   141.9331

 16  N    Isotropic =   202.5192   Anisotropy =    81.1704

 17  C    Isotropic =   149.7823   Anisotropy =    53.0106

 18  C    Isotropic =   149.5777   Anisotropy =    51.9282

 19  C    Isotropic =   155.3021   Anisotropy =    50.8811

 20  H    Isotropic =    28.2280   Anisotropy =     5.4128

 21  H    Isotropic =    29.8115   Anisotropy =     8.8488

 22  H    Isotropic =    29.5990   Anisotropy =     9.3261

 23  H    Isotropic =    25.5692   Anisotropy =     6.7005

 24  H    Isotropic =    24.8343   Anisotropy =     6.5920

 25  H    Isotropic =    24.5509   Anisotropy =    12.1159

 26  H    Isotropic =    25.7170   Anisotropy =    11.8715

 27  H    Isotropic =    25.4153   Anisotropy =     9.3009

 28  H    Isotropic =    24.7878   Anisotropy =     7.0158

 29  H    Isotropic =    28.7579   Anisotropy =     9.2811

 30  H    Isotropic =    29.1983   Anisotropy =     9.3375

 31  H    Isotropic =    29.6298   Anisotropy =     8.1998

 32  H    Isotropic =    28.8959   Anisotropy =     8.6525

 33  H    Isotropic =    29.6240   Anisotropy =     8.0132

 34  H    Isotropic =    29.1632   Anisotropy =     8.6401

 35  H    Isotropic =    29.9464   Anisotropy =     9.1166

 36  H    Isotropic =    28.1023   Anisotropy =     6.8324

 37  H    Isotropic =    29.8636   Anisotropy =     9.4517

  Exact polarizability: 305.064 -17.443 186.810  -6.232  -5.667  89.631
 Approx polarizability: 424.982 -35.121 304.734 -11.415 -11.566 138.428

                     1                      2                      3
                     A                      A                      A
 Frequencies --    21.0994                31.7371                47.0427
 Red. masses --     3.9097                 3.7457                 3.3447
 Frc consts  --     0.0010                 0.0022                 0.0044
 IR Inten    --     1.7161                 2.6356                 1.3739

                     4                      5                      6
                     A                      A                      A
 Frequencies --    63.8937                68.5064                84.2958
 Red. masses --     2.8793                 1.4498                 3.5628
 Frc consts  --     0.0069                 0.0040                 0.0149
 IR Inten    --     1.0661                 0.6355                 2.9763

                     7                      8                      9
                     A                      A                      A
 Frequencies --   110.0693               122.8666               140.2861
 Red. masses --     2.7703                 1.7748                 1.9855
 Frc consts  --     0.0198                 0.0158                 0.0230
 IR Inten    --     0.6533                 7.2974                 0.1851

                    10                     11                     12
                     A                      A                      A
 Frequencies --   152.8380               170.7372               200.4947
 Red. masses --     1.7445                 2.9581                 2.0900
 Frc consts  --     0.0240                 0.0508                 0.0495
 IR Inten    --     0.4137                 0.9543                 2.8853

                    13                     14                     15
                     A                      A                      A
 Frequencies --   216.1073               223.3157               235.1194
 Red. masses --     1.9874                 2.0929                 1.9887
 Frc consts  --     0.0547                 0.0615                 0.0648
 IR Inten    --     0.3408                 4.6506                 0.4265

                    16                     17                     18
                     A                      A                      A
 Frequencies --   306.4350               310.8699               327.0577
 Red. masses --     3.9532                 4.8608                 3.6557
 Frc consts  --     0.2187                 0.2768                 0.2304
 IR Inten    --     1.5741                 0.2058                 2.1934

                    19                     20                     21
                     A                      A                      A
 Frequencies --   359.6442               383.6593               415.7483
 Red. masses --     3.5268                 3.4509                 4.0205
 Frc consts  --     0.2688                 0.2993                 0.4094
 IR Inten    --     5.5430                11.7416                11.4811

                    22                     23                     24
                     A                      A                      A
 Frequencies --   435.7652               446.9811               481.4776
 Red. masses --     3.4960                 3.5292                 2.5761
 Frc consts  --     0.3911                 0.4154                 0.3519
 IR Inten    --     6.8997                 1.5909                 6.9872

                    25                     26                     27
                     A                      A                      A
 Frequencies --   505.1424               534.6161               565.0645
 Red. masses --     3.4039                 3.3831                 6.3740
 Frc consts  --     0.5117                 0.5697                 1.1991
 IR Inten    --     0.3724                 0.3756                 1.8658

                    28                     29                     30
                     A                      A                      A
 Frequencies --   602.8579               635.4114               651.5887
 Red. masses --     5.4716                 4.9650                 4.8823
 Frc consts  --     1.1716                 1.1811                 1.2213
 IR Inten    --     3.1836                 0.4965                 7.1009

                    31                     32                     33
                     A                      A                      A
 Frequencies --   657.6450               692.4130               738.0432
 Red. masses --     2.9487                 5.1581                12.1309
 Frc consts  --     0.7514                 1.4570                 3.8932
 IR Inten    --     9.4303                 2.0651                17.5096

                    34                     35                     36
                     A                      A                      A
 Frequencies --   755.0678               792.0521               794.1285
 Red. masses --     2.9549                 3.2098                 2.3139
 Frc consts  --     0.9926                 1.1864                 0.8597
 IR Inten    --     1.4023                 0.8593                 0.1707

                    37                     38                     39
                     A                      A                      A
 Frequencies --   803.1911               832.6623               836.5326
 Red. masses --     3.2736                 1.6099                 1.8111
 Frc consts  --     1.2443                 0.6576                 0.7467
 IR Inten    --     3.2398                13.3392                39.0536

                    40                     41                     42
                     A                      A                      A
 Frequencies --   860.6526               894.1460               935.5158
 Red. masses --     4.0167                 1.7207                 4.3099
 Frc consts  --     1.7530                 0.8105                 2.2224
 IR Inten    --    16.3434                36.3421                18.1527

                    43                     44                     45
                     A                      A                      A
 Frequencies --   940.7625               954.0657               974.6540
 Red. masses --     1.2483                 1.3062                 3.8801
 Frc consts  --     0.6509                 0.7005                 2.1717
 IR Inten    --     0.0298                 0.6844                43.6838

                    46                     47                     48
                     A                      A                      A
 Frequencies --  1008.8069              1046.2559              1090.4618
 Red. masses --     2.6217                 2.4514                 1.5391
 Frc consts  --     1.5720                 1.5810                 1.0783
 IR Inten    --     4.1266                 6.2993                24.2214

                    49                     50                     51
                     A                      A                      A
 Frequencies --  1093.6841              1144.3527              1149.4190
 Red. masses --     1.3637                 1.2175                 1.3503
 Frc consts  --     0.9611                 0.9394                 1.0511
 IR Inten    --     7.8693                 0.5471                37.6242

                    52                     53                     54
                     A                      A                      A
 Frequencies --  1151.4835              1157.5075              1183.6330
 Red. masses --     1.3117                 1.3523                 1.8512
 Frc consts  --     1.0247                 1.0675                 1.5280
 IR Inten    --    17.7868                32.6354               242.0928

                    55                     56                     57
                     A                      A                      A
 Frequencies --  1191.3171              1195.6899              1200.9905
 Red. masses --     1.3950                 1.6001                 1.3012
 Frc consts  --     1.1665                 1.3478                 1.1058
 IR Inten    --     1.9895               124.6829                 7.9406

                    58                     59                     60
                     A                      A                      A
 Frequencies --  1210.5144              1243.8615              1280.8749
 Red. masses --     2.7317                 3.8959                 1.5501
 Frc consts  --     2.3585                 3.5515                 1.4983
 IR Inten    --   763.2071               243.9926                44.5276

                    61                     62                     63
                     A                      A                      A
 Frequencies --  1293.9534              1299.9954              1310.4277
 Red. masses --     3.8724                 4.0757                 2.0457
 Frc consts  --     3.8201                 4.0582                 2.0697
 IR Inten    --    22.5160                13.3444                 1.0122

                    64                     65                     66
                     A                      A                      A
 Frequencies --  1366.0865              1393.7701              1424.6119
 Red. masses --     2.7095                 2.2504                 5.4270
 Frc consts  --     2.9792                 2.5757                 6.4893
 IR Inten    --   139.3470                12.1878                99.5921

                    67                     68                     69
                     A                      A                      A
 Frequencies --  1429.7261              1438.3779              1459.5015
 Red. masses --     3.7248                 2.8837                 1.1785
 Frc consts  --     4.4860                 3.5152                 1.4791
 IR Inten    --   285.4927               165.1889                27.2847

                    70                     71                     72
                     A                      A                      A
 Frequencies --  1469.0662              1484.4194              1489.2632
 Red. masses --     1.4304                 2.1782                 1.2707
 Frc consts  --     1.8189                 2.8279                 1.6605
 IR Inten    --     9.5242                31.6474                52.2477

                    73                     74                     75
                     A                      A                      A
 Frequencies --  1507.2596              1511.8372              1518.0688
 Red. masses --     1.4628                 1.0826                 1.1086
 Frc consts  --     1.9580                 1.4579                 1.5052
 IR Inten    --    31.8165                10.2340                 6.9632

                    76                     77                     78
                     A                      A                      A
 Frequencies --  1519.2811              1530.7683              1531.0551
 Red. masses --     1.0444                 1.4947                 1.0753
 Frc consts  --     1.4204                 2.0636                 1.4851
 IR Inten    --     4.5797                 4.3474                17.4335

                    79                     80                     81
                     A                      A                      A
 Frequencies --  1531.9344              1543.5982              1560.7338
 Red. masses --     1.0943                 1.0751                 1.0832
 Frc consts  --     1.5130                 1.5093                 1.5546
 IR Inten    --    23.3818                 0.7261                85.6402

                    82                     83                     84
                     A                      A                      A
 Frequencies --  1564.3210              1571.7737              1622.1996
 Red. masses --     1.3079                 2.6479                 6.9538
 Frc consts  --     1.8858                 3.8542                10.7816
 IR Inten    --   106.1380                66.8492                 3.5777

                    85                     86                     87
                     A                      A                      A
 Frequencies --  1665.1504              1683.8106              1813.3676
 Red. masses --     5.6503                 6.0696                10.8714
 Frc consts  --     9.2305                10.1391                21.0624
 IR Inten    --    40.8502               275.8295               355.2626

                    88                     89                     90
                     A                      A                      A
 Frequencies --  2992.7194              3001.3981              3025.0936
 Red. masses --     1.0519                 1.0557                 1.0428
 Frc consts  --     5.5508                 5.6033                 5.6223
 IR Inten    --    65.2474               108.9822                31.6741

                    91                     92                     93
                     A                      A                      A
 Frequencies --  3032.7996              3074.8536              3075.2024
 Red. masses --     1.0433                 1.1002                 1.0858
 Frc consts  --     5.6541                 6.1286                 6.0499
 IR Inten    --   132.6710                62.5843                21.0589

                    94                     95                     96
                     A                      A                      A
 Frequencies --  3076.6908              3078.2338              3137.6097
 Red. masses --     1.0880                 1.1031                 1.0988
 Frc consts  --     6.0679                 6.1585                 6.3734
 IR Inten    --    59.4645                10.7534                 2.6945

                    97                     98                     99
                     A                      A                      A
 Frequencies --  3149.3207              3177.6764              3183.3063
 Red. masses --     1.0960                 1.0892                 1.0886
 Frc consts  --     6.4044                 6.4801                 6.4993
 IR Inten    --    52.9193                 5.8099                24.1293

                   100                    101                    102
                     A                      A                      A
 Frequencies --  3194.4635              3209.7940              3217.3437
 Red. masses --     1.0959                 1.0943                 1.0937
 Frc consts  --     6.5889                 6.6426                 6.6700
 IR Inten    --     0.9569                 3.5287                12.0787

                   103                    104                    105
                     A                      A                      A
 Frequencies --  3224.6862              3231.9388              3249.6344
 Red. masses --     1.0885                 1.0906                 1.0913
 Frc consts  --     6.6691                 6.7120                 6.7898
 IR Inten    --    10.9468                18.0790                 1.6289

 - Thermochemistry -
 -------------------
 Temperature   298.150 Kelvin.  Pressure   1.00000 Atm.
 Atom     1 has atomic number  6 and mass  12.00000

 Molecular mass:   258.13683 amu.
 Principal axes and moments of inertia in atomic units:
                           1         2         3
     Eigenvalues --  2052.86146********************
           X            0.99998  -0.00566  -0.00301
           Y            0.00565   0.99997  -0.00460
           Z            0.00304   0.00458   0.99998
 This molecule is an asymmetric top.
 Rotational symmetry number  1.
 Warning -- assumption of classical behavior for rotation
           may cause significant error
 Rotational temperatures (Kelvin)      0.04219     0.00767     0.00663
 Rotational constants (GHZ):           0.87913     0.15977     0.13815
 Zero-point vibrational energy     810638.9 (Joules/Mol)
                                  193.74734 (Kcal/Mol)
 Warning -- explicit consideration of  28 degrees of freedom as
           vibrations may cause significant error
 Vibrational temperatures:     30.36    45.66    67.68    91.93    98.57
          (Kelvin)            121.28   158.36   176.78   201.84   219.90
                              245.65   288.47   310.93   321.30   338.28
                              440.89   447.27   470.56   517.45   552.00
                              598.17   626.97   643.11   692.74   726.79
                              769.19   813.00   867.38   914.21   937.49
                              946.20   996.23  1061.88  1086.37  1139.58
                             1142.57  1155.61  1198.01  1203.58  1238.29
                             1286.47  1346.00  1353.55  1372.69  1402.31
                             1451.45  1505.33  1568.93  1573.57  1646.47
                             1653.76  1656.73  1665.39  1702.98  1714.04
                             1720.33  1727.96  1741.66  1789.64  1842.89
                             1861.71  1870.40  1885.41  1965.49  2005.32
                             2049.70  2057.05  2069.50  2099.89  2113.66
                             2135.75  2142.71  2168.61  2175.19  2184.16
                             2185.90  2202.43  2202.84  2204.11  2220.89
                             2245.55  2250.71  2261.43  2333.98  2395.78
                             2422.62  2609.03  4305.85  4318.34  4352.43
                             4363.52  4424.02  4424.52  4426.67  4428.89
                             4514.31  4531.16  4571.96  4580.06  4596.11
                             4618.17  4629.03  4639.60  4650.03  4675.49

 Zero-point correction=                           0.308756 (Hartree/Particle)
 Thermal correction to Energy=                    0.327570
 Thermal correction to Enthalpy=                  0.328514
 Thermal correction to Gibbs Free Energy=         0.259798
 Sum of electronic and zero-point Energies=           -842.096206
 Sum of electronic and thermal Energies=              -842.077392
 Sum of electronic and thermal Enthalpies=            -842.076448
 Sum of electronic and thermal Free Energies=         -842.145164

                     E (Thermal)             CV                S
                      KCal/Mol        Cal/Mol-Kelvin    Cal/Mol-Kelvin
 Total                  205.553             69.500            144.625
 Electronic               0.000              0.000              0.000
 Translational            0.889              2.981             42.545
 Rotational               0.889              2.981             34.071
 Vibrational            203.776             63.538             68.010
 Vibration     1          0.593              1.985              6.528
 Vibration     2          0.594              1.983              5.718
 Vibration     3          0.595              1.979              4.938
 Vibration     4          0.597              1.972              4.333
 Vibration     5          0.598              1.969              4.196
 Vibration     6          0.601              1.960              3.788
 Vibration     7          0.606              1.941              3.268
 Vibration     8          0.610              1.930              3.055
 Vibration     9          0.615              1.913              2.800
 Vibration    10          0.619              1.900              2.637
 Vibration    11          0.626              1.879              2.427
 Vibration    12          0.638              1.839              2.129
 Vibration    13          0.645              1.816              1.991
 Vibration    14          0.649              1.806              1.932
 Vibration    15          0.655              1.787              1.840
 Vibration    16          0.697              1.661              1.382
 Vibration    17          0.700              1.653              1.358
 Vibration    18          0.711              1.621              1.275
 Vibration    19          0.734              1.555              1.124
 Vibration    20          0.753              1.505              1.025
 Vibration    21          0.779              1.436              0.907
 Vibration    22          0.796              1.392              0.840
 Vibration    23          0.806              1.368              0.805
 Vibration    24          0.838              1.291              0.706
 Vibration    25          0.860              1.239              0.645
 Vibration    26          0.890              1.173              0.577
 Vibration    27          0.921              1.107              0.514
 Vibration    28          0.961              1.026              0.445

 Normal termination of Gaussian 09 at Thu Sep 30 13:18:28 2021.
 Gaussian 09:  AM64L-G09RevA.02 11-Jun-2009

 ----------------------------------------------------------------------
 #p TD(NStates=10, Root=1) b3lyp/6-31G* volume pop=NPA density=current
 Geom=AllCheck Guess=Read
 ----------------------------------------------------------------------

 CN(C(=O)Oc1ccc2c(c1)cc(cc2)N(C)C)C_conf_0
 -----------------------------------------
 Redundant internal coordinates taken from checkpoint file:
 C15H18N2O2_794e_conf_0.chk
 Charge =  0 Multiplicity = 1

                         Standard orientation:
 ---------------------------------------------------------------------
 Center     Atomic      Atomic             Coordinates (Angstroms)
 Number     Number       Type             X           Y           Z
 ---------------------------------------------------------------------
      1          6           0       -5.371085    0.356850    0.806173
      2          7           0       -4.633344   -0.674926    0.094073
      3          6           0       -3.309310   -0.600550   -0.240465
      4          8           0       -2.703925   -1.436050   -0.884976
      5          8           0       -2.751906    0.553964    0.258369
      6          6           0       -1.397051    0.837236    0.094572
      7          6           0       -1.112148    2.207784   -0.115455
      8          6           0        0.196514    2.619062   -0.212297
      9          6           0        1.262564    1.689750   -0.109139
     10          6           0        0.963340    0.306028    0.102381
     11          6           0       -0.396618   -0.099157    0.209809
     12          6           0        2.020145   -0.631899    0.201433
     13          6           0        3.357456   -0.245955    0.111320
     14          6           0        3.638220    1.141578   -0.111029
     15          6           0        2.626410    2.063882   -0.212736
     16          7           0        4.398379   -1.160852    0.244056
     17          6           0        5.744265   -0.784692   -0.158121
     18          6           0        4.079359   -2.577004    0.292007
     19          6           0       -5.411234   -1.797217   -0.404977
     20          1           0       -4.686894    1.096868    1.213602
     21          1           0       -5.936917   -0.096786    1.629914
     22          1           0       -6.085782    0.858696    0.138260
     23          1           0       -1.938029    2.907345   -0.194237
     24          1           0        0.426867    3.669853   -0.372425
     25          1           0       -0.635684   -1.143920    0.359800
     26          1           0        1.751967   -1.671664    0.346323
     27          1           0        4.663522    1.479111   -0.202148
     28          1           0        2.871740    3.110167   -0.381925
     29          1           0        6.116179    0.056101    0.438650
     30          1           0        5.816384   -0.507046   -1.222196
     31          1           0        6.414648   -1.628318    0.018865
     32          1           0        3.418579   -2.795975    1.138857
     33          1           0        4.999564   -3.147368    0.434858
     34          1           0        3.585106   -2.937722   -0.625105
     35          1           0       -5.924651   -2.299556    0.424904
     36          1           0       -4.740419   -2.499628   -0.897060
     37          1           0       -6.169741   -1.457188   -1.123841
 ---------------------------------------------------------------------

 SCF Done:  E(RB3LYP) =  -842.404962118     A.U. after    1 cycles

 Excitation energies and oscillator strengths:

 Excited State   1:      Singlet-A      3.7699 eV  328.88 nm  f=0.0712  <S**2>=0.000
      68 -> 71         0.14069
      69 -> 70         0.66954
      69 -> 71         0.13974
 This state for optimization and/or second-order correction.
 Total Energy, E(TD-HF/TD-KS) =  -842.266421480
 Copying the excited state density for this state as the 1-particle RhoCI density.

 Excited State   2:      Singlet-A      4.3246 eV  286.70 nm  f=0.0048  <S**2>=0.000
      68 -> 70         0.52150
      69 -> 70         0.17002
      69 -> 71        -0.43167

 Excited State   3:      Singlet-A      5.1111 eV  242.58 nm  f=0.9833  <S**2>=0.000
      66 -> 70        -0.10069
      67 -> 70         0.10170
      68 -> 70         0.43314
      69 -> 71         0.50465

 Excited State   4:      Singlet-A      5.2862 eV  234.54 nm  f=0.0664  <S**2>=0.000
      66 -> 70        -0.39481
      67 -> 70        -0.18491
      68 -> 71         0.52276

 Excited State   5:      Singlet-A      5.4136 eV  229.02 nm  f=0.0289  <S**2>=0.000
      67 -> 70         0.67119
      68 -> 71         0.14198

 Excited State   6:      Singlet-A      5.4335 eV  228.19 nm  f=0.0701  <S**2>=0.000
      64 -> 70         0.14372
      69 -> 71         0.10149
      69 -> 72         0.66312

 Excited State   7:      Singlet-A      5.8355 eV  212.47 nm  f=0.2397  <S**2>=0.000
      65 -> 70         0.50806
      66 -> 70        -0.33870
      68 -> 71        -0.20753
      68 -> 72        -0.12537
      69 -> 73         0.15753

 Excited State   8:      Singlet-A      5.9658 eV  207.82 nm  f=0.1356  <S**2>=0.000
      64 -> 70        -0.26094
      65 -> 70        -0.31595
      68 -> 71        -0.14894
      68 -> 72        -0.32567
      69 -> 73         0.40810

 Excited State   9:      Singlet-A      6.0039 eV  206.51 nm  f=0.1173  <S**2>=0.000
      65 -> 70         0.13286
      66 -> 70         0.21170
      68 -> 71         0.21947
      68 -> 72         0.26006
      69 -> 73         0.52648

 Excited State  10:      Singlet-A      6.0248 eV  205.79 nm  f=0.2157  <S**2>=0.000
      64 -> 70         0.33583
      65 -> 70        -0.28942
      66 -> 70        -0.30800
      67 -> 71        -0.10267
      68 -> 71        -0.20075
      68 -> 72         0.33512
      68 -> 73        -0.12553
      69 -> 73         0.10397

 The electronic state is 1-A.
 Alpha  occ. eigenvalues --  -19.18934 -19.11130 -14.36581 -14.34958 -10.32895
 Alpha  occ. eigenvalues --  -10.24052 -10.22114 -10.21922 -10.21648 -10.21399
 Alpha  occ. eigenvalues --  -10.21373 -10.18736 -10.18278 -10.18240 -10.17981
 Alpha  occ. eigenvalues --  -10.17955 -10.17869 -10.17338 -10.16885  -1.09969
 Alpha  occ. eigenvalues --   -1.00922  -0.94213  -0.93722  -0.85699  -0.80609
 Alpha  occ. eigenvalues --   -0.76154  -0.74338  -0.72683  -0.72310  -0.71411
 Alpha  occ. eigenvalues --   -0.69057  -0.65907  -0.62717  -0.59017  -0.58399
 Alpha  occ. eigenvalues --   -0.56020  -0.52998  -0.51742  -0.50238  -0.48368
 Alpha  occ. eigenvalues --   -0.47974  -0.47461  -0.46104  -0.45441  -0.44596
 Alpha  occ. eigenvalues --   -0.43985  -0.42724  -0.42016  -0.41600  -0.40794
 Alpha  occ. eigenvalues --   -0.40404  -0.40333  -0.40214  -0.39794  -0.38961
 Alpha  occ. eigenvalues --   -0.38125  -0.37974  -0.37338  -0.36471  -0.34328
 Alpha  occ. eigenvalues --   -0.32953  -0.32289  -0.30487  -0.27189  -0.26577
 Alpha  occ. eigenvalues --   -0.25392  -0.24010  -0.20685  -0.17943
 Alpha virt. eigenvalues --   -0.02274   0.01008   0.04438   0.06051   0.08880
 Alpha virt. eigenvalues --    0.09389   0.10562   0.11397   0.11968   0.12341
 Alpha virt. eigenvalues --    0.13390   0.13884   0.14500   0.14796   0.15609

 Mulliken atomic charges:
              1
     1  C   -0.312157
     2  N   -0.436066
     3  C    0.780572
     4  O   -0.519052
     5  O   -0.561095
     6  C    0.327086
     7  C   -0.155963
     8  C   -0.246025
     9  C    0.172025
    10  C    0.130021
    11  C   -0.249244
    12  C   -0.272890
    13  C    0.363089
    14  C   -0.215131
    15  C   -0.230614
    16  N   -0.421728
    17  C   -0.324238
    18  C   -0.327027
    19  C   -0.314179
    20  H    0.198596
    21  H    0.149090
    22  H    0.149649
    23  H    0.124148
    24  H    0.110282
    25  H    0.135774
    26  H    0.128488
    27  H    0.100562
    28  H    0.114248
    29  H    0.194625
    30  H    0.189465
    31  H    0.167429
    32  H    0.194620
    33  H    0.169722
    34  H    0.189523
    35  H    0.146995
    36  H    0.201041
    37  H    0.148360
 Sum of Mulliken atomic charges =  -0.00000

 Dipole moment (field-independent basis, Debye):
    X=              4.1494    Y=             -2.7243    Z=              1.1907  Tot=              5.1046
 Quadrupole moment (field-independent basis, Debye-Ang):
   XX=            -61.2450   YY=           -103.8560   ZZ=           -116.1748
   XY=            -14.3986   XZ=             -4.0475   YZ=             -3.3649

 Summary of Natural Population Analysis:

                                       Natural Population
                Natural  -----------------------------------------------
    Atom  No    Charge         Core      Valence    Rydberg      Total
 -----------------------------------------------------------------------
      C    1   -0.46881      1.99946     4.45787    0.01148     6.46881
      N    2   -0.49320      1.99932     5.48287    0.01100     7.49320
      C    3    0.94281      1.99938     3.01263    0.04518     5.05719
      O    4   -0.65683      1.99978     6.63809    0.01896     8.65683
      O    5   -0.56077      1.99969     6.55085    0.01023     8.56077
      C    6    0.25318      1.99872     3.72584    0.02226     5.74682
      C    7   -0.21640      1.99903     4.20302    0.01435     6.21640
      C    8   -0.28568      1.99907     4.27119    0.01542     6.28568
      C    9   -0.03690      1.99902     4.02318    0.01470     6.03690
      C   10   -0.04481      1.99904     4.03015    0.01562     6.04481
      C   11   -0.29915      1.99897     4.28554    0.01464     6.29915
      C   12   -0.22388      1.99903     4.21178    0.01306     6.22388
      C   13    0.17242      1.99903     3.80916    0.01939     5.82758
      C   14   -0.35514      1.99908     4.34093    0.01513     6.35514
      C   15   -0.23352      1.99907     4.21842    0.01603     6.23352
      N   16   -0.29306      1.99933     5.28325    0.01047     7.29306
      C   17   -0.48014      1.99945     4.46863    0.01206     6.48014
      C   18   -0.48399      1.99946     4.47215    0.01238     6.48399
      C   19   -0.46738      1.99947     4.45615    0.01176     6.46738
      H   20    0.25782      0.00000     0.74125    0.00093     0.74218
      H   21    0.21846      0.00000     0.78005    0.00149     0.78154
      H   22    0.21515      0.00000     0.78310    0.00175     0.78485
      H   23    0.23702      0.00000     0.76176    0.00122     0.76298
      H   24    0.22623      0.00000     0.77274    0.00104     0.77377
      H   25    0.24643      0.00000     0.75212    0.00145     0.75357
      H   26    0.22760      0.00000     0.77103    0.00137     0.77240
      H   27    0.22180      0.00000     0.77727    0.00093     0.77820
      H   28    0.22864      0.00000     0.77026    0.00110     0.77136
      H   29    0.24939      0.00000     0.74901    0.00160     0.75061
      H   30    0.24400      0.00000     0.75379    0.00222     0.75600
      H   31    0.23686      0.00000     0.76245    0.00070     0.76314
      H   32    0.24927      0.00000     0.74948    0.00125     0.75073
      H   33    0.23862      0.00000     0.76077    0.00061     0.76138
      H   34    0.24234      0.00000     0.75570    0.00196     0.75766
      H   35    0.21598      0.00000     0.78264    0.00138     0.78402
      H   36    0.26121      0.00000     0.73713    0.00165     0.73879
      H   37    0.21441      0.00000     0.78401    0.00159     0.78559
 =======================================================================
   * Total *    0.00000     37.98540    99.68626    0.32834   138.00000

 Normal termination of Gaussian 09 at Thu Sep 30 19:38:41 2021.
