 Gaussian 09, Revision A.02,

 -----------------------------------
 #p opt b3lyp/6-31G* scf=(xqc,tight)
 -----------------------------------

 -----------------------------------------
 COC(=O)c1c(ccc2c1cccc2)OC(=O)N(C)C_conf_0
 -----------------------------------------
 Symbolic Z-matrix:
 Charge =  0 Multiplicity = 1

 SCF Done:  E(RB3LYP) =  -936.295037064     A.U. after   15 cycles
 SCF Done:  E(RB3LYP) =  -936.303740626     A.U. after   13 cycles
 SCF Done:  E(RB3LYP) =  -936.304035629     A.U. after   13 cycles
 SCF Done:  E(RB3LYP) =  -936.304693695     A.U. after   12 cycles
 SCF Done:  E(RB3LYP) =  -936.305126913     A.U. after   12 cycles
 SCF Done:  E(RB3LYP) =  -936.305260953     A.U. after   12 cycles
 SCF Done:  E(RB3LYP) =  -936.305466086     A.U. after   12 cycles
 SCF Done:  E(RB3LYP) =  -936.305810125     A.U. after   12 cycles
 SCF Done:  E(RB3LYP) =  -936.306100196     A.U. after   11 cycles
 SCF Done:  E(RB3LYP) =  -936.306185604     A.U. after   10 cycles
 SCF Done:  E(RB3LYP) =  -936.306483626     A.U. after   10 cycles
 SCF Done:  E(RB3LYP) =  -936.306487592     A.U. after   10 cycles
 SCF Done:  E(RB3LYP) =  -936.306489298     A.U. after    9 cycles
 SCF Done:  E(RB3LYP) =  -936.306490069     A.U. after    8 cycles
 SCF Done:  E(RB3LYP) =  -936.306490238     A.U. after    8 cycles
 SCF Done:  E(RB3LYP) =  -936.306490254     A.U. after    7 cycles
 SCF Done:  E(RB3LYP) =  -936.306490268     A.U. after    7 cycles
 SCF Done:  E(RB3LYP) =  -936.306490300     A.U. after    7 cycles
 Optimization completed.
    -- Stationary point found.
 Normal termination of Gaussian 09 at Thu Sep 30 08:54:20 2021.

 ----------------------------------------------------------------------
 #p freq b3lyp/6-31G* volume NMR pop=NPA density=current Geom=AllCheck
 Guess=Read
 ----------------------------------------------------------------------

 COC(=O)c1c(ccc2c1cccc2)OC(=O)N(C)C_conf_0
 -----------------------------------------
 Redundant internal coordinates taken from checkpoint file:
 C15H15NO4_eba3_conf_0.chk
 Charge =  0 Multiplicity = 1

 SCF Done:  E(RB3LYP) =  -936.306490300     A.U. after    1 cycles

  1  C    Isotropic =   139.0231   Anisotropy =    62.0436

  2  O    Isotropic =   141.2717   Anisotropy =   139.2060

  3  C    Isotropic =    30.6464   Anisotropy =    82.7444

  4  O    Isotropic =   -85.8814   Anisotropy =   590.8786

  5  C    Isotropic =    73.6697   Anisotropy =   113.0302

  6  C    Isotropic =    45.4358   Anisotropy =   112.4403

  7  C    Isotropic =    73.1231   Anisotropy =   151.1873

  8  C    Isotropic =    64.1940   Anisotropy =   145.1761

  9  C    Isotropic =    66.3863   Anisotropy =   195.1837

 10  C    Isotropic =    64.1310   Anisotropy =   190.5186

 11  C    Isotropic =    69.5130   Anisotropy =   157.1086

 12  C    Isotropic =    69.2242   Anisotropy =   162.9483

 13  C    Isotropic =    71.3947   Anisotropy =   161.6729

 14  C    Isotropic =    67.2241   Anisotropy =   145.0809

 15  O    Isotropic =   144.8545   Anisotropy =   148.3017

 16  C    Isotropic =    46.7752   Anisotropy =    80.9600

 17  O    Isotropic =    70.1548   Anisotropy =   379.7949

 18  N    Isotropic =   178.3431   Anisotropy =    82.4844

 19  C    Isotropic =   155.3300   Anisotropy =    50.1158

 20  C    Isotropic =   155.1992   Anisotropy =    51.7497

 21  H    Isotropic =    28.2844   Anisotropy =     8.1535

 22  H    Isotropic =    28.1353   Anisotropy =     8.4403

 23  H    Isotropic =    28.6080   Anisotropy =     7.7679

 24  H    Isotropic =    24.4019   Anisotropy =     9.5611

 25  H    Isotropic =    24.5365   Anisotropy =     6.8429

 26  H    Isotropic =    24.2531   Anisotropy =    11.1720

 27  H    Isotropic =    24.7900   Anisotropy =     5.9535

 28  H    Isotropic =    24.8348   Anisotropy =     4.7400

 29  H    Isotropic =    24.5813   Anisotropy =     6.8423

 30  H    Isotropic =    27.8679   Anisotropy =     8.0066

 31  H    Isotropic =    29.9060   Anisotropy =     8.4985

 32  H    Isotropic =    29.5782   Anisotropy =     8.7492

 33  H    Isotropic =    28.2379   Anisotropy =     7.2586

 34  H    Isotropic =    29.7804   Anisotropy =     9.7106

 35  H    Isotropic =    29.9667   Anisotropy =     9.2266

  Exact polarizability: 266.837  -4.532 188.981   9.092  -2.723  90.327
 Approx polarizability: 383.368   1.210 307.987  24.521 -13.516 147.326

                     1                      2                      3
                     A                      A                      A
 Frequencies --    29.4804                33.2665                48.5149
 Red. masses --     4.9484                 3.5697                 4.7887
 Frc consts  --     0.0025                 0.0023                 0.0066
 IR Inten    --     0.5591                 3.1939                 0.3594

                     4                      5                      6
                     A                      A                      A
 Frequencies --    60.2721                84.1161                90.6977
 Red. masses --     5.5035                 3.4328                 1.5991
 Frc consts  --     0.0118                 0.0143                 0.0078
 IR Inten    --     2.4399                 2.6049                 0.2509

                     7                      8                      9
                     A                      A                      A
 Frequencies --   105.9792               122.3958               143.0029
 Red. masses --     3.1262                 2.6059                 2.2228
 Frc consts  --     0.0207                 0.0230                 0.0268
 IR Inten    --     0.4276                 1.7344                 0.2010

                    10                     11                     12
                     A                      A                      A
 Frequencies --   146.0416               146.3439               182.7337
 Red. masses --     1.5278                 1.3140                 3.9525
 Frc consts  --     0.0192                 0.0166                 0.0778
 IR Inten    --     0.0102                 1.0475                 3.8203

                    13                     14                     15
                     A                      A                      A
 Frequencies --   220.8315               222.7480               234.8456
 Red. masses --     3.2039                 3.4836                 3.4392
 Frc consts  --     0.0921                 0.1018                 0.1118
 IR Inten    --     2.2892                 2.1866                 0.2774

                    16                     17                     18
                     A                      A                      A
 Frequencies --   263.2057               272.5589               324.1464
 Red. masses --     7.2665                 5.1320                 4.2888
 Frc consts  --     0.2966                 0.2246                 0.2655
 IR Inten    --     1.1111                 3.9754                12.0502

                    19                     20                     21
                     A                      A                      A
 Frequencies --   360.6737               372.1870               395.2632
 Red. masses --     6.1832                 3.9818                 4.3672
 Frc consts  --     0.4739                 0.3250                 0.4020
 IR Inten    --     3.4419                13.1084                 9.4116

                    22                     23                     24
                     A                      A                      A
 Frequencies --   428.6942               445.9442               489.1795
 Red. masses --     3.4701                 3.8420                 4.3737
 Frc consts  --     0.3757                 0.4502                 0.6166
 IR Inten    --     2.2385                 4.1871                 7.5698

                    25                     26                     27
                     A                      A                      A
 Frequencies --   536.7078               539.7701               549.8360
 Red. masses --     4.2756                 5.7299                 5.0642
 Frc consts  --     0.7256                 0.9836                 0.9020
 IR Inten    --     1.3649                 1.1506                 2.9289

                    28                     29                     30
                     A                      A                      A
 Frequencies --   585.3766               627.2819               669.4185
 Red. masses --     5.0192                 5.6843                 6.4889
 Frc consts  --     1.0133                 1.3178                 1.7132
 IR Inten    --     6.1205                 7.7137                 5.1085

                    31                     32                     33
                     A                      A                      A
 Frequencies --   684.6650               737.0850               755.2576
 Red. masses --     4.2095                11.4831                 5.2535
 Frc consts  --     1.1626                 3.6757                 1.7656
 IR Inten    --     2.7527                20.1197                 4.5106

                    34                     35                     36
                     A                      A                      A
 Frequencies --   758.1503               768.6716               786.4883
 Red. masses --     2.0898                 2.7128                 4.2186
 Frc consts  --     0.7077                 0.9444                 1.5375
 IR Inten    --     4.5015                16.8799                 5.3680

                    37                     38                     39
                     A                      A                      A
 Frequencies --   806.3953               823.1467               857.0896
 Red. masses --     4.6389                 1.8588                 4.1183
 Frc consts  --     1.7773                 0.7420                 1.7824
 IR Inten    --     6.7131                35.2543                22.2255

                    40                     41                     42
                     A                      A                      A
 Frequencies --   867.4004               882.0298               952.9148
 Red. masses --     4.7848                 1.6555                 1.3084
 Frc consts  --     2.1211                 0.7588                 0.7000
 IR Inten    --     7.8867                 3.5188                 0.1693

                    43                     44                     45
                     A                      A                      A
 Frequencies --   966.4243               968.3261               981.8493
 Red. masses --     2.0531                 2.3604                 4.5304
 Frc consts  --     1.1298                 1.3040                 2.5732
 IR Inten    --     2.1598                 8.6523                18.4046

                    46                     47                     48
                     A                      A                      A
 Frequencies --   991.1903              1047.2347              1061.8222
 Red. masses --     1.3128                 3.6867                 2.5521
 Frc consts  --     0.7599                 2.3822                 1.6953
 IR Inten    --     0.1919                 8.4382                13.5002

                    49                     50                     51
                     A                      A                      A
 Frequencies --  1086.4387              1099.4930              1144.2169
 Red. masses --     3.1392                 1.4148                 1.2172
 Frc consts  --     2.1832                 1.0077                 0.9390
 IR Inten    --    76.4256                 2.2425                 0.7993

                    52                     53                     54
                     A                      A                      A
 Frequencies --  1165.1208              1183.1525              1183.8549
 Red. masses --     2.1984                 1.4137                 1.4266
 Frc consts  --     1.7583                 1.1660                 1.1781
 IR Inten    --   178.0339               100.6058               118.8366

                    55                     56                     57
                     A                      A                      A
 Frequencies --  1188.8204              1193.7325              1199.2051
 Red. masses --     1.3262                 1.4793                 1.3706
 Frc consts  --     1.1043                 1.2420                 1.1613
 IR Inten    --    72.6564               129.9005               204.0915

                    58                     59                     60
                     A                      A                      A
 Frequencies --  1219.4388              1246.6706              1262.4694
 Red. masses --     1.5190                 2.5612                 2.2671
 Frc consts  --     1.3308                 2.3453                 2.1289
 IR Inten    --    14.3471               105.1965               231.3348

                    61                     62                     63
                     A                      A                      A
 Frequencies --  1264.8985              1298.5864              1318.7168
 Red. masses --     3.5269                 4.9558                 2.3649
 Frc consts  --     3.3247                 4.9239                 2.4231
 IR Inten    --   492.3765                10.9513               116.0519

                    64                     65                     66
                     A                      A                      A
 Frequencies --  1373.6731              1407.0871              1422.6309
 Red. masses --     3.9464                 7.0221                 3.2760
 Frc consts  --     4.3875                 8.1914                 3.9064
 IR Inten    --    41.6492                 3.5876                90.2859

                    67                     68                     69
                     A                      A                      A
 Frequencies --  1442.3432              1461.5905              1477.7271
 Red. masses --     2.8284                 1.1628                 2.3062
 Frc consts  --     3.4668                 1.4636                 2.9671
 IR Inten    --   264.9408                15.8206                 6.8494

                    70                     71                     72
                     A                      A                      A
 Frequencies --  1488.8959              1496.3517              1511.9408
 Red. masses --     1.2101                 1.1994                 1.0790
 Frc consts  --     1.5806                 1.5822                 1.4533
 IR Inten    --     8.7022                58.8583                 7.3131

                    73                     74                     75
                     A                      A                      A
 Frequencies --  1515.4246              1522.6901              1524.4425
 Red. masses --     2.0717                 1.0551                 1.0614
 Frc consts  --     2.8032                 1.4414                 1.4532
 IR Inten    --    11.0496                 1.1106                 6.6321

                    76                     77                     78
                     A                      A                      A
 Frequencies --  1528.9305              1534.9609              1562.2650
 Red. masses --     1.0485                 1.0489                 1.9424
 Frc consts  --     1.4442                 1.4561                 2.7932
 IR Inten    --    16.8005                14.1932                91.6708

                    79                     80                     81
                     A                      A                      A
 Frequencies --  1566.3482              1626.2222              1654.0276
 Red. masses --     1.6568                 8.1564                 5.7987
 Frc consts  --     2.3950                12.7089                 9.3468
 IR Inten    --     5.3078                19.5591                19.3013

                    82                     83                     84
                     A                      A                      A
 Frequencies --  1679.6580              1798.7734              1818.2348
 Red. masses --     5.8860                11.6391                10.9058
 Frc consts  --     9.7838                22.1883                21.2426
 IR Inten    --     9.5762               146.3331               522.7380

                    85                     86                     87
                     A                      A                      A
 Frequencies --  3029.5198              3036.9642              3075.2562
 Red. masses --     1.0413                 1.0423                 1.0295
 Frc consts  --     5.6311                 5.6638                 5.7366
 IR Inten    --    26.2239               127.2461                34.4152

                    88                     89                     90
                     A                      A                      A
 Frequencies --  3081.5736              3084.2126              3149.6926
 Red. masses --     1.1026                 1.1018                 1.1074
 Frc consts  --     6.1691                 6.1749                 6.4730
 IR Inten    --    60.8370                10.1476                18.9536

                    91                     92                     93
                     A                      A                      A
 Frequencies --  3180.7995              3182.7965              3190.5361
 Red. masses --     1.0865                 1.1071                 1.0899
 Frc consts  --     6.4770                 6.6076                 6.5365
 IR Inten    --     1.0753                15.6816                 0.7358

                    94                     95                     96
                     A                      A                      A
 Frequencies --  3192.6989              3192.8390              3201.6073
 Red. masses --     1.0901                 1.0965                 1.0972
 Frc consts  --     6.5466                 6.5859                 6.6263
 IR Inten    --    28.0195                 1.1915                 0.4982

                    97                     98                     99
                     A                      A                      A
 Frequencies --  3208.4091              3242.5412              3264.1871
 Red. masses --     1.0959                 1.0917                 1.0931
 Frc consts  --     6.6464                 6.7626                 6.8619
 IR Inten    --    33.6493                 8.5233                 0.6729

 - Thermochemistry -
 -------------------
 Temperature   298.150 Kelvin.  Pressure   1.00000 Atm.
 Atom     1 has atomic number  6 and mass  12.00000

 Molecular mass:   273.10011 amu.
 Principal axes and moments of inertia in atomic units:
                           1         2         3
     Eigenvalues --  3099.266717842.88366**********
           X            0.99999  -0.00332   0.00271
           Y            0.00330   0.99996   0.00833
           Z           -0.00274  -0.00832   0.99996
 This molecule is an asymmetric top.
 Rotational symmetry number  1.
 Warning -- assumption of classical behavior for rotation
           may cause significant error
 Rotational temperatures (Kelvin)      0.02795     0.01104     0.00841
 Rotational constants (GHZ):           0.58231     0.23011     0.17514
 Zero-point vibrational energy     730980.0 (Joules/Mol)
                                  174.70842 (Kcal/Mol)
 Warning -- explicit consideration of  28 degrees of freedom as
           vibrations may cause significant error
 Vibrational temperatures:     42.42    47.86    69.80    86.72   121.02
          (Kelvin)            130.49   152.48   176.10   205.75   210.12
                              210.56   262.91   317.73   320.48   337.89
                              378.69   392.15   466.37   518.93   535.49
                              568.69   616.79   641.61   703.82   772.20
                              776.61   791.09   842.23   902.52   963.14
                              985.08  1060.50  1086.65  1090.81  1105.95
                             1131.58  1160.22  1184.32  1233.16  1247.99
                             1269.04  1371.03  1390.47  1393.20  1412.66
                             1426.10  1506.74  1527.72  1563.14  1581.92
                             1646.27  1676.35  1702.29  1703.30  1710.45
                             1717.51  1725.39  1754.50  1793.68  1816.41
                             1819.90  1868.37  1897.34  1976.41  2024.48
                             2046.85  2075.21  2102.90  2126.12  2142.19
                             2152.91  2175.34  2180.36  2190.81  2193.33
                             2199.79  2208.46  2247.75  2253.62  2339.77
                             2379.77  2416.65  2588.03  2616.03  4358.80
                             4369.51  4424.60  4433.69  4437.49  4531.70
                             4576.46  4579.33  4590.46  4593.58  4593.78
                             4606.39  4616.18  4665.29  4696.43

 Zero-point correction=                           0.278416 (Hartree/Particle)
 Thermal correction to Energy=                    0.297329
 Thermal correction to Enthalpy=                  0.298273
 Thermal correction to Gibbs Free Energy=         0.229681
 Sum of electronic and zero-point Energies=           -936.028075
 Sum of electronic and thermal Energies=              -936.009162
 Sum of electronic and thermal Enthalpies=            -936.008218
 Sum of electronic and thermal Free Energies=         -936.076809

                     E (Thermal)             CV                S
                      KCal/Mol        Cal/Mol-Kelvin    Cal/Mol-Kelvin
 Total                  186.576             69.321            144.363
 Electronic               0.000              0.000              0.000
 Translational            0.889              2.981             42.713
 Rotational               0.889              2.981             33.882
 Vibrational            184.799             63.360             67.768
 Vibration     1          0.593              1.984              5.864
 Vibration     2          0.594              1.983              5.624
 Vibration     3          0.595              1.978              4.877
 Vibration     4          0.597              1.973              4.448
 Vibration     5          0.601              1.960              3.792
 Vibration     6          0.602              1.956              3.645
 Vibration     7          0.605              1.944              3.341
 Vibration     8          0.610              1.930              3.062
 Vibration     9          0.616              1.910              2.763
 Vibration    10          0.617              1.907              2.723
 Vibration    11          0.617              1.907              2.719
 Vibration    12          0.630              1.863              2.300
 Vibration    13          0.648              1.809              1.952
 Vibration    14          0.648              1.806              1.937
 Vibration    15          0.655              1.788              1.842
 Vibration    16          0.670              1.740              1.640
 Vibration    17          0.676              1.724              1.580
 Vibration    18          0.709              1.627              1.289
 Vibration    19          0.735              1.553              1.119
 Vibration    20          0.744              1.529              1.071
 Vibration    21          0.762              1.480              0.980
 Vibration    22          0.790              1.408              0.863
 Vibration    23          0.805              1.370              0.808
 Vibration    24          0.845              1.274              0.686
 Vibration    25          0.892              1.169              0.572
 Vibration    26          0.895              1.162              0.566
 Vibration    27          0.905              1.140              0.545
 Vibration    28          0.942              1.063              0.476

 Normal termination of Gaussian 09 at Thu Sep 30 11:21:19 2021.
 Gaussian 09:  AM64L-G09RevA.02 11-Jun-2009

 ----------------------------------------------------------------------
 #p TD(NStates=10, Root=1) b3lyp/6-31G* volume pop=NPA density=current
 Geom=AllCheck Guess=Read
 ----------------------------------------------------------------------

 COC(=O)c1c(ccc2c1cccc2)OC(=O)N(C)C_conf_0
 -----------------------------------------
 Redundant internal coordinates taken from checkpoint file:
 C15H15NO4_eba3_conf_0.chk
 Charge =  0 Multiplicity = 1

                         Standard orientation:
 ---------------------------------------------------------------------
 Center     Atomic      Atomic             Coordinates (Angstroms)
 Number     Number       Type             X           Y           Z
 ---------------------------------------------------------------------
      1          6           0        0.334995    3.807457    0.789180
      2          8           0        0.728080    2.424709    0.775719
      3          6           0        0.206812    1.687874   -0.234691
      4          8           0       -0.547728    2.154527   -1.062730
      5          6           0        0.659294    0.259412   -0.176097
      6          6           0       -0.302733   -0.738975   -0.246587
      7          6           0        0.042701   -2.109775   -0.217454
      8          6           0        1.363777   -2.467766   -0.125883
      9          6           0        2.394073   -1.493837   -0.066444
     10          6           0        2.046054   -0.102452   -0.088402
     11          6           0        3.105374    0.847508   -0.058718
     12          6           0        4.420895    0.444148    0.002767
     13          6           0        4.758184   -0.928658    0.036640
     14          6           0        3.760488   -1.874422    0.001590
     15          8           0       -1.612464   -0.339455   -0.420002
     16          6           0       -2.642488   -0.918999    0.295207
     17          8           0       -2.491572   -1.816948    1.102376
     18          7           0       -3.824440   -0.329613   -0.036357
     19          6           0       -3.967600    0.743280   -1.014202
     20          6           0       -5.048919   -0.853354    0.548208
     21          1           0       -0.748830    3.895369    0.900943
     22          1           0        0.636460    4.304545   -0.136768
     23          1           0        0.846112    4.245829    1.646718
     24          1           0       -0.741815   -2.853095   -0.253524
     25          1           0        1.637538   -3.519646   -0.104787
     26          1           0        2.870947    1.904448   -0.073354
     27          1           0        5.209321    1.191692    0.025626
     28          1           0        5.800576   -1.230636    0.086761
     29          1           0        4.001849   -2.934572    0.020471
     30          1           0       -2.999898    1.187894   -1.238277
     31          1           0       -4.629675    1.515026   -0.603080
     32          1           0       -4.417275    0.367572   -1.943886
     33          1           0       -4.793788   -1.638331    1.258602
     34          1           0       -5.703258   -1.266003   -0.231603
     35          1           0       -5.593153   -0.054117    1.067064
 ---------------------------------------------------------------------

 SCF Done:  E(RB3LYP) =  -936.306490300     A.U. after    1 cycles

 Excitation energies and oscillator strengths:

 Excited State   1:      Singlet-A      4.1256 eV  300.52 nm  f=0.0858  <S**2>=0.000
      71 -> 74         0.11845
      72 -> 73         0.67674
 This state for optimization and/or second-order correction.
 Total Energy, E(TD-HF/TD-KS) =  -936.154877426
 Copying the excited state density for this state as the 1-particle RhoCI density.

 Excited State   2:      Singlet-A      4.3497 eV  285.04 nm  f=0.0272  <S**2>=0.000
      70 -> 73        -0.16019
      71 -> 73         0.54061
      72 -> 73        -0.11724
      72 -> 74        -0.40387

 Excited State   3:      Singlet-A      4.7562 eV  260.68 nm  f=0.0205  <S**2>=0.000
      70 -> 73         0.63515
      71 -> 73         0.27795
      72 -> 74         0.11559

 Excited State   4:      Singlet-A      4.9674 eV  249.60 nm  f=0.0024  <S**2>=0.000
      67 -> 73         0.13495
      68 -> 73        -0.19841
      68 -> 75        -0.11444
      69 -> 73         0.58398
      69 -> 75         0.19894
      72 -> 75        -0.16182

 Excited State   5:      Singlet-A      5.1008 eV  243.07 nm  f=0.0068  <S**2>=0.000
      68 -> 73        -0.15459
      69 -> 73         0.16032
      72 -> 75         0.65059

 Excited State   6:      Singlet-A      5.3457 eV  231.93 nm  f=0.0037  <S**2>=0.000
      68 -> 73         0.61033
      69 -> 73         0.29096

 Excited State   7:      Singlet-A      5.4270 eV  228.46 nm  f=0.5072  <S**2>=0.000
      67 -> 73         0.11690
      70 -> 73        -0.21050
      70 -> 75        -0.13926
      71 -> 73         0.26003
      71 -> 75         0.38134
      72 -> 74         0.41588

 Excited State   8:      Singlet-A      5.7520 eV  215.55 nm  f=0.1951  <S**2>=0.000
      70 -> 74         0.35474
      70 -> 75         0.10772
      71 -> 74         0.49464
      71 -> 75        -0.23374
      72 -> 74         0.15100

 Excited State   9:      Singlet-A      5.8448 eV  212.13 nm  f=0.0843  <S**2>=0.000
      67 -> 73         0.58779
      68 -> 73         0.12348
      69 -> 73        -0.10072
      72 -> 74        -0.10902
      72 -> 76        -0.27139

 Excited State  10:      Singlet-A      5.9337 eV  208.95 nm  f=0.4204  <S**2>=0.000
      66 -> 73        -0.10179
      68 -> 74        -0.15617
      69 -> 75        -0.13099
      70 -> 74         0.23822
      71 -> 73        -0.17566
      71 -> 74         0.17248
      71 -> 75         0.45952
      72 -> 74        -0.24674

 The electronic state is 1-A.
 Alpha  occ. eigenvalues --  -19.19654 -19.19446 -19.13708 -19.11817 -14.37011
 Alpha  occ. eigenvalues --  -10.33499 -10.31901 -10.26336 -10.24217 -10.21725
 Alpha  occ. eigenvalues --  -10.21537 -10.20963 -10.20866 -10.20118 -10.19901
 Alpha  occ. eigenvalues --  -10.19431 -10.19294 -10.19254 -10.19149 -10.18987
 Alpha  occ. eigenvalues --   -1.11089  -1.10221  -1.01885  -1.01208  -0.94172
 Alpha  occ. eigenvalues --   -0.87749  -0.82547  -0.78900  -0.75276  -0.73925
 Alpha  occ. eigenvalues --   -0.72587  -0.72020  -0.70087  -0.63992  -0.63254
 Alpha  occ. eigenvalues --   -0.61284  -0.57458  -0.56799  -0.53414  -0.52876
 Alpha  occ. eigenvalues --   -0.51314  -0.49017  -0.48482  -0.48238  -0.47962
 Alpha  occ. eigenvalues --   -0.47006  -0.46876  -0.44924  -0.43771  -0.43269
 Alpha  occ. eigenvalues --   -0.42460  -0.42397  -0.41916  -0.40446  -0.40289
 Alpha  occ. eigenvalues --   -0.39897  -0.39606  -0.38680  -0.38225  -0.37226
 Alpha  occ. eigenvalues --   -0.36371  -0.35025  -0.33979  -0.33213  -0.30901
 Alpha  occ. eigenvalues --   -0.30125  -0.29083  -0.27305  -0.26859  -0.24623
 Alpha  occ. eigenvalues --   -0.23769  -0.21602
 Alpha virt. eigenvalues --   -0.04887  -0.01065  -0.00126   0.04430   0.05266
 Alpha virt. eigenvalues --    0.09326   0.09416   0.10117   0.10364   0.11629
 Alpha virt. eigenvalues --    0.12787   0.13634   0.14544   0.15009   0.15455

 Mulliken atomic charges:
              1
     1  C   -0.213137
     2  O   -0.450976
     3  C    0.495723
     4  O   -0.493427
     5  C   -0.013382
     6  C    0.333075
     7  C   -0.145679
     8  C   -0.233895
     9  C    0.152673
    10  C    0.081838
    11  C   -0.161858
    12  C   -0.142311
    13  C   -0.113016
    14  C   -0.187033
    15  O   -0.531981
    16  C    0.783351
    17  O   -0.505516
    18  N   -0.431425
    19  C   -0.337145
    20  C   -0.318959
    21  H    0.165193
    22  H    0.162942
    23  H    0.158890
    24  H    0.156039
    25  H    0.127473
    26  H    0.162862
    27  H    0.137474
    28  H    0.146833
    29  H    0.149119
    30  H    0.237015
    31  H    0.153529
    32  H    0.155713
    33  H    0.204879
    34  H    0.157128
    35  H    0.157995
 Sum of Mulliken atomic charges =  -0.00000

 Dipole moment (field-independent basis, Debye):
    X=              0.8850    Y=              0.8154    Z=             -0.1192  Tot=              1.2093
 Quadrupole moment (field-independent basis, Debye-Ang):
   XX=            -82.6739   YY=           -105.9598   ZZ=           -121.2373
   XY=             -3.9555   XZ=              2.2178   YZ=              7.2276

 Summary of Natural Population Analysis:

                                       Natural Population
                Natural  -----------------------------------------------
    Atom  No    Charge         Core      Valence    Rydberg      Total
 -----------------------------------------------------------------------
      C    1   -0.32354      1.99942     4.30981    0.01431     6.32354
      O    2   -0.55425      1.99975     6.54341    0.01109     8.55425
      C    3    0.75632      1.99940     3.19821    0.04607     5.24368
      O    4   -0.61149      1.99977     6.59229    0.01943     8.61149
      C    5   -0.15105      1.99882     4.13337    0.01886     6.15105
      C    6    0.36297      1.99870     3.61613    0.02220     5.63703
      C    7   -0.28042      1.99903     4.26621    0.01519     6.28042
      C    8   -0.23618      1.99906     4.22122    0.01590     6.23618
      C    9   -0.06365      1.99903     4.04991    0.01471     6.06365
      C   10   -0.04802      1.99901     4.03383    0.01518     6.04802
      C   11   -0.13153      1.99907     4.11880    0.01366     6.13153
      C   12   -0.26588      1.99913     4.25145    0.01530     6.26588
      C   13   -0.18621      1.99910     4.17258    0.01453     6.18621
      C   14   -0.15511      1.99906     4.14182    0.01423     6.15511
      O   15   -0.52703      1.99968     6.51665    0.01071     8.52703
      C   16    0.94069      1.99936     3.01534    0.04462     5.05931
      O   17   -0.64054      1.99978     6.62170    0.01906     8.64054
      N   18   -0.47291      1.99932     5.46259    0.01100     7.47291
      C   19   -0.47839      1.99945     4.46712    0.01182     6.47839
      C   20   -0.46913      1.99947     4.45792    0.01174     6.46913
      H   21    0.21660      0.00000     0.78170    0.00170     0.78340
      H   22    0.21486      0.00000     0.78341    0.00173     0.78514
      H   23    0.21911      0.00000     0.78015    0.00074     0.78089
      H   24    0.26008      0.00000     0.73875    0.00117     0.73992
      H   25    0.23241      0.00000     0.76649    0.00110     0.76759
      H   26    0.24864      0.00000     0.74985    0.00151     0.75136
      H   27    0.24032      0.00000     0.75890    0.00078     0.75968
      H   28    0.24074      0.00000     0.75846    0.00080     0.75926
      H   29    0.23798      0.00000     0.76087    0.00115     0.76202
      H   30    0.27603      0.00000     0.72225    0.00172     0.72397
      H   31    0.22255      0.00000     0.77617    0.00128     0.77745
      H   32    0.21992      0.00000     0.77851    0.00157     0.78008
      H   33    0.26221      0.00000     0.73628    0.00151     0.73779
      H   34    0.22102      0.00000     0.77756    0.00143     0.77898
      H   35    0.22292      0.00000     0.77583    0.00125     0.77708
 =======================================================================
   * Total *    0.00000     39.98540   103.63556    0.37905   144.00000

 Normal termination of Gaussian 09 at Thu Sep 30 17:49:49 2021.
