 Gaussian 09, Revision A.02,

 -----------------------------------
 #p opt b3lyp/6-31G* scf=(xqc,tight)
 -----------------------------------

 -------------------------------------
 O=C(C(C)(C)C)Oc1ccc2c(c1)cccc2_conf_0
 -------------------------------------
 Symbolic Z-matrix:
 Charge =  0 Multiplicity = 1

 SCF Done:  E(RB3LYP) =  -731.704259962     A.U. after   15 cycles
 SCF Done:  E(RB3LYP) =  -731.709623924     A.U. after   16 cycles
 SCF Done:  E(RB3LYP) =  -731.708222392     A.U. after   14 cycles
 SCF Done:  E(RB3LYP) =  -731.709927340     A.U. after   13 cycles
 SCF Done:  E(RB3LYP) =  -731.710339384     A.U. after   12 cycles
 SCF Done:  E(RB3LYP) =  -731.710612967     A.U. after   16 cycles
 SCF Done:  E(RB3LYP) =  -731.710895143     A.U. after   12 cycles
 SCF Done:  E(RB3LYP) =  -731.711112575     A.U. after   14 cycles
 SCF Done:  E(RB3LYP) =  -731.711135859     A.U. after   10 cycles
 SCF Done:  E(RB3LYP) =  -731.711138922     A.U. after    9 cycles
 SCF Done:  E(RB3LYP) =  -731.711139454     A.U. after    8 cycles
 SCF Done:  E(RB3LYP) =  -731.711139743     A.U. after    8 cycles
 SCF Done:  E(RB3LYP) =  -731.711139880     A.U. after    8 cycles
 SCF Done:  E(RB3LYP) =  -731.711139884     A.U. after    7 cycles
 Optimization completed.
    -- Stationary point found.
 Normal termination of Gaussian 09 at Tue Sep 28 18:52:56 2021.

 ----------------------------------------------------------------------
 #p freq b3lyp/6-31G* volume NMR pop=NPA density=current Geom=AllCheck
 Guess=Read
 ----------------------------------------------------------------------

 O=C(C(C)(C)C)Oc1ccc2c(c1)cccc2_conf_0
 -------------------------------------
 Redundant internal coordinates taken from checkpoint file:
 C15H16O2_0fde_conf_0.chk
 Charge =  0 Multiplicity = 1

 SCF Done:  E(RB3LYP) =  -731.711139884     A.U. after    1 cycles

  1  O    Isotropic =   -64.9365   Anisotropy =   573.8153

  2  C    Isotropic =    22.2181   Anisotropy =    78.0036

  3  C    Isotropic =   148.9904   Anisotropy =    24.1946

  4  C    Isotropic =   162.1608   Anisotropy =    37.9880

  5  C    Isotropic =   162.0133   Anisotropy =    37.2071

  6  C    Isotropic =   162.8534   Anisotropy =    31.2960

  7  O    Isotropic =   107.6678   Anisotropy =   156.1541

  8  C    Isotropic =    46.2814   Anisotropy =   106.9947

  9  C    Isotropic =    73.4028   Anisotropy =   148.5933

 10  C    Isotropic =    67.0080   Anisotropy =   142.4753

 11  C    Isotropic =    65.8002   Anisotropy =   196.5021

 12  C    Isotropic =    63.0580   Anisotropy =   195.0433

 13  C    Isotropic =    77.8260   Anisotropy =   120.0175

 14  C    Isotropic =    68.1806   Anisotropy =   145.3107

 15  C    Isotropic =    69.9307   Anisotropy =   162.5087

 16  C    Isotropic =    70.9474   Anisotropy =   161.3243

 17  C    Isotropic =    67.6783   Anisotropy =   146.6825

 18  H    Isotropic =    30.2856   Anisotropy =     7.3977

 19  H    Isotropic =    30.8052   Anisotropy =     8.0570

 20  H    Isotropic =    31.0647   Anisotropy =     7.9460

 21  H    Isotropic =    30.3880   Anisotropy =     5.8718

 22  H    Isotropic =    31.0643   Anisotropy =     7.8790

 23  H    Isotropic =    30.8025   Anisotropy =     8.1908

 24  H    Isotropic =    30.6524   Anisotropy =     7.8493

 25  H    Isotropic =    30.6159   Anisotropy =     8.2366

 26  H    Isotropic =    31.4564   Anisotropy =     7.8773

 27  H    Isotropic =    24.7913   Anisotropy =     9.1906

 28  H    Isotropic =    24.5674   Anisotropy =     6.9985

 29  H    Isotropic =    25.0365   Anisotropy =     9.2066

 30  H    Isotropic =    24.5923   Anisotropy =     7.7230

 31  H    Isotropic =    24.8059   Anisotropy =     5.2343

 32  H    Isotropic =    24.8001   Anisotropy =     4.9883

 33  H    Isotropic =    24.5467   Anisotropy =     6.9895

  Exact polarizability: 249.352  -9.553 158.785   6.558  -3.511  85.844
 Approx polarizability: 351.813 -17.928 278.604  15.341  -2.204 133.677

                     1                      2                      3
                     A                      A                      A
 Frequencies --    19.8839                40.7772                46.6752
 Red. masses --     3.3650                 4.4291                 5.7658
 Frc consts  --     0.0008                 0.0043                 0.0074
 IR Inten    --     0.0888                 0.4448                 0.6824

                     4                      5                      6
                     A                      A                      A
 Frequencies --    77.1049               140.9663               184.4065
 Red. masses --     5.1559                 4.7175                 3.9198
 Frc consts  --     0.0181                 0.0552                 0.0785
 IR Inten    --     1.1813                 0.2518                 0.5940

                     7                      8                      9
                     A                      A                      A
 Frequencies --   199.3414               205.5463               225.1546
 Red. masses --     4.0613                 1.4381                 1.4920
 Frc consts  --     0.0951                 0.0358                 0.0446
 IR Inten    --     1.0853                 0.4050                 0.2996

                    10                     11                     12
                     A                      A                      A
 Frequencies --   262.0683               271.4635               282.2456
 Red. masses --     1.4935                 1.1944                 1.7854
 Frc consts  --     0.0604                 0.0519                 0.0838
 IR Inten    --     0.1009                 0.0394                 0.4095

                    13                     14                     15
                     A                      A                      A
 Frequencies --   317.4004               330.8907               354.8463
 Red. masses --     3.6844                 3.8432                 3.2357
 Frc consts  --     0.2187                 0.2479                 0.2400
 IR Inten    --     3.5304                 2.8263                 7.8316

                    16                     17                     18
                     A                      A                      A
 Frequencies --   375.1262               406.3817               420.5877
 Red. masses --     2.3709                 3.4300                 3.5472
 Frc consts  --     0.1966                 0.3337                 0.3697
 IR Inten    --     0.3453                 0.3327                 2.2003

                    19                     20                     21
                     A                      A                      A
 Frequencies --   463.0314               491.0840               525.0880
 Red. masses --     4.0452                 2.6104                 5.9159
 Frc consts  --     0.5110                 0.3709                 0.9610
 IR Inten    --     3.4292                 9.8130                 0.0882

                    22                     23                     24
                     A                      A                      A
 Frequencies --   530.6882               539.3745               596.3924
 Red. masses --     6.0910                 3.9901                 3.6773
 Frc consts  --     1.0107                 0.6839                 0.7706
 IR Inten    --     2.3316                 1.6768                 3.5672

                    25                     26                     27
                     A                      A                      A
 Frequencies --   636.4156               652.8824               738.2143
 Red. masses --     5.8085                 3.5212                 6.0409
 Frc consts  --     1.3861                 0.8843                 1.9396
 IR Inten    --     2.1547                 1.0372                 1.6734

                    28                     29                     30
                     A                      A                      A
 Frequencies --   756.7538               762.9677               770.6105
 Red. masses --     2.3370                 2.4363                 2.5954
 Frc consts  --     0.7885                 0.8356                 0.9081
 IR Inten    --    11.8858                 7.9375                 7.4726

                    31                     32                     33
                     A                      A                      A
 Frequencies --   783.2588               810.9235               828.5034
 Red. masses --     4.4797                 2.4401                 1.7317
 Frc consts  --     1.6192                 0.9454                 0.7003
 IR Inten    --     1.0212                17.3515                 9.5443

                    34                     35                     36
                     A                      A                      A
 Frequencies --   865.8413               885.3430               904.7046
 Red. masses --     1.8830                 2.2785                 1.8953
 Frc consts  --     0.8317                 1.0523                 0.9140
 IR Inten    --     6.2293                10.6698                17.5534

                    37                     38                     39
                     A                      A                      A
 Frequencies --   930.0847               948.3038               951.3736
 Red. masses --     3.7656                 1.7600                 1.3320
 Frc consts  --     1.9192                 0.9325                 0.7104
 IR Inten    --     8.0613                 1.4178                 2.2956

                    40                     41                     42
                     A                      A                      A
 Frequencies --   956.5935               961.8646               980.1942
 Red. masses --     1.6425                 1.3485                 1.1990
 Frc consts  --     0.8856                 0.7351                 0.6787
 IR Inten    --     4.8877                 3.1950                 0.0420

                    43                     44                     45
                     A                      A                      A
 Frequencies --   983.9339               989.9412              1051.2913
 Red. masses --     3.6743                 1.2751                 2.2998
 Frc consts  --     2.0958                 0.7362                 1.4975
 IR Inten    --    11.4674                 0.0167                 4.1597

                    46                     47                     48
                     A                      A                      A
 Frequencies --  1057.6909              1059.8311              1138.1053
 Red. masses --     1.4638                 1.4421                 2.5242
 Frc consts  --     0.9648                 0.9544                 1.9264
 IR Inten    --    28.3460                16.0343               263.6714

                    49                     50                     51
                     A                      A                      A
 Frequencies --  1161.3283              1183.2205              1187.1554
 Red. masses --     2.1132                 1.2695                 1.2909
 Frc consts  --     1.6792                 1.0472                 1.0719
 IR Inten    --   298.3336                 5.5561                51.6797

                    52                     53                     54
                     A                      A                      A
 Frequencies --  1192.0501              1242.8190              1249.8014
 Red. masses --     1.5148                 2.6688                 3.2055
 Frc consts  --     1.2682                 2.4287                 2.9500
 IR Inten    --   210.7025                 1.8179               104.5091

                    55                     56                     57
                     A                      A                      A
 Frequencies --  1264.2985              1279.3129              1294.7182
 Red. masses --     2.6460                 1.7295                 1.8444
 Frc consts  --     2.4919                 1.6677                 1.8216
 IR Inten    --    12.9646                82.6559                 7.9416

                    58                     59                     60
                     A                      A                      A
 Frequencies --  1310.2122              1398.6693              1412.2284
 Red. masses --     3.1117                 1.9393                 4.8602
 Frc consts  --     3.1472                 2.2352                 5.7110
 IR Inten    --    53.0166                 3.2328                 6.3664

                    61                     62                     63
                     A                      A                      A
 Frequencies --  1420.6672              1422.7690              1429.7816
 Red. masses --     1.2096                 5.1906                 1.2477
 Frc consts  --     1.4384                 6.1906                 1.5028
 IR Inten    --     4.0136                 4.5869                 4.5404

                    64                     65                     66
                     A                      A                      A
 Frequencies --  1457.9488              1488.8749              1508.2957
 Red. masses --     1.2227                 2.4950                 1.0485
 Frc consts  --     1.5313                 3.2586                 1.4054
 IR Inten    --    16.2658                 2.0786                 0.0310

                    67                     68                     69
                     A                      A                      A
 Frequencies --  1515.5263              1516.8842              1520.6322
 Red. masses --     1.0523                 2.2110                 1.0469
 Frc consts  --     1.4240                 2.9974                 1.4263
 IR Inten    --     0.8681                30.4001                 0.0786

                    70                     71                     72
                     A                      A                      A
 Frequencies --  1530.0678              1532.6021              1550.7399
 Red. masses --     1.0489                 1.0542                 1.0678
 Frc consts  --     1.4468                 1.4589                 1.5129
 IR Inten    --     5.6456                 7.3068                29.7388

                    73                     74                     75
                     A                      A                      A
 Frequencies --  1564.1977              1630.6606              1662.5868
 Red. masses --     3.3836                 7.0694                 5.3821
 Frc consts  --     4.8777                11.0754                 8.7654
 IR Inten    --    29.9269                 2.9800                25.4999

                    76                     77                     78
                     A                      A                      A
 Frequencies --  1689.8732              1830.6303              3050.1226
 Red. masses --     6.3542                12.6895                 1.0356
 Frc consts  --    10.6910                25.0551                 5.6764
 IR Inten    --    24.9860               188.0386                27.3118

                    79                     80                     81
                     A                      A                      A
 Frequencies --  3052.3492              3061.5316              3113.6530
 Red. masses --     1.0361                 1.0365                 1.1031
 Frc consts  --     5.6874                 5.7238                 6.3009
 IR Inten    --    11.2050                29.0953                12.2868

                    82                     83                     84
                     A                      A                      A
 Frequencies --  3115.8194              3129.3762              3138.6297
 Red. masses --     1.1025                 1.1019                 1.1028
 Frc consts  --     6.3061                 6.3577                 6.4004
 IR Inten    --    24.6054                41.1564                12.5824

                    85                     86                     87
                     A                      A                      A
 Frequencies --  3140.1833              3143.6480              3178.3448
 Red. masses --     1.1019                 1.1009                 1.0856
 Frc consts  --     6.4017                 6.4104                 6.4614
 IR Inten    --    11.6162                45.1625                 3.2607

                    88                     89                     90
                     A                      A                      A
 Frequencies --  3182.6357              3189.1847              3196.3444
 Red. masses --     1.0884                 1.0895                 1.0933
 Frc consts  --     6.4956                 6.5291                 6.5811
 IR Inten    --     0.4755                 8.9761                33.4182

                    91                     92                     93
                     A                      A                      A
 Frequencies --  3206.2048              3209.5248              3241.7773
 Red. masses --     1.0915                 1.0968                 1.0933
 Frc consts  --     6.6107                 6.6570                 6.7695
 IR Inten    --    12.2145                27.6050                 4.2285

 - Thermochemistry -
 -------------------
 Temperature   298.150 Kelvin.  Pressure   1.00000 Atm.
 Atom     1 has atomic number  8 and mass  15.99491

 Molecular mass:   228.11503 amu.
 Principal axes and moments of inertia in atomic units:
                           1         2         3
     Eigenvalues --  1250.724258579.864419216.45045
           X            0.99998   0.00477   0.00292
           Y           -0.00472   0.99981  -0.01878
           Z           -0.00300   0.01876   0.99982
 This molecule is an asymmetric top.
 Rotational symmetry number  1.
 Warning -- assumption of classical behavior for rotation
           may cause significant error
 Rotational temperatures (Kelvin)      0.06925     0.01010     0.00940
 Rotational constants (GHZ):           1.44296     0.21035     0.19582
 Zero-point vibrational energy     720810.1 (Joules/Mol)
                                  172.27774 (Kcal/Mol)
 Warning -- explicit consideration of  24 degrees of freedom as
           vibrations may cause significant error
 Vibrational temperatures:     28.61    58.67    67.16   110.94   202.82
          (Kelvin)            265.32   286.81   295.73   323.95   377.06
                              390.58   406.09   456.67   476.08   510.54
                              539.72   584.69   605.13   666.20   706.56
                              755.48   763.54   776.04   858.07   915.66
                              939.35  1062.12  1088.80  1097.74  1108.74
                             1126.93  1166.74  1192.03  1245.75  1273.81
                             1301.67  1338.18  1364.40  1368.81  1376.32
                             1383.91  1410.28  1415.66  1424.30  1512.57
                             1521.78  1524.86  1637.48  1670.89  1702.39
                             1708.05  1715.09  1788.14  1798.18  1819.04
                             1840.64  1862.81  1885.10  2012.37  2031.88
                             2044.02  2047.04  2057.13  2097.66  2142.16
                             2170.10  2180.50  2182.46  2187.85  2201.42
                             2205.07  2231.17  2250.53  2346.15  2392.09
                             2431.35  2633.87  4388.44  4391.64  4404.86
                             4479.85  4482.96  4502.47  4515.78  4518.02
                             4523.00  4572.92  4579.10  4588.52  4598.82
                             4613.01  4617.78  4664.19

 Zero-point correction=                           0.274542 (Hartree/Particle)
 Thermal correction to Energy=                    0.290046
 Thermal correction to Enthalpy=                  0.290991
 Thermal correction to Gibbs Free Energy=         0.230811
 Sum of electronic and zero-point Energies=           -731.436598
 Sum of electronic and thermal Energies=              -731.421093
 Sum of electronic and thermal Enthalpies=            -731.420149
 Sum of electronic and thermal Free Energies=         -731.480329

                     E (Thermal)             CV                S
                      KCal/Mol        Cal/Mol-Kelvin    Cal/Mol-Kelvin
 Total                  182.007             60.723            126.659
 Electronic               0.000              0.000              0.000
 Translational            0.889              2.981             42.176
 Rotational               0.889              2.981             32.958
 Vibrational            180.229             54.761             51.524
 Vibration     1          0.593              1.986              6.646
 Vibration     2          0.594              1.981              5.221
 Vibration     3          0.595              1.979              4.954
 Vibration     4          0.599              1.964              3.963
 Vibration     5          0.615              1.912              2.791
 Vibration     6          0.631              1.861              2.283
 Vibration     7          0.637              1.841              2.139
 Vibration     8          0.640              1.832              2.083
 Vibration     9          0.650              1.803              1.917
 Vibration    10          0.669              1.742              1.648
 Vibration    11          0.675              1.726              1.587
 Vibration    12          0.681              1.707              1.520
 Vibration    13          0.704              1.640              1.323
 Vibration    14          0.713              1.614              1.256
 Vibration    15          0.731              1.565              1.145
 Vibration    16          0.746              1.523              1.059
 Vibration    17          0.771              1.456              0.939
 Vibration    18          0.783              1.425              0.890
 Vibration    19          0.821              1.332              0.757
 Vibration    20          0.847              1.270              0.681
 Vibration    21          0.880              1.194              0.598
 Vibration    22          0.886              1.182              0.586
 Vibration    23          0.894              1.163              0.567
 Vibration    24          0.954              1.039              0.456

 Optimization completed.
    -- Stationary point found.
 Normal termination of Gaussian 09 at Tue Sep 28 20:09:03 2021.
 Gaussian 09:  AM64L-G09RevA.02 11-Jun-2009

 ----------------------------------------------------------------------
 #p TD(NStates=10, Root=1) b3lyp/6-31G* volume pop=NPA density=current
 Geom=AllCheck Guess=Read
 ----------------------------------------------------------------------

 O=C(C(C)(C)C)Oc1ccc2c(c1)cccc2_conf_0
 -------------------------------------
 Redundant internal coordinates taken from checkpoint file:
 C15H16O2_0fde_conf_0.chk
 Charge =  0 Multiplicity = 1

                         Standard orientation:
 ---------------------------------------------------------------------
 Center     Atomic      Atomic             Coordinates (Angstroms)
 Number     Number       Type             X           Y           Z
 ---------------------------------------------------------------------
      1          8           0        2.053099   -1.134630   -1.197081
      2          6           0        2.279094   -0.306062   -0.348887
      3          6           0        3.657609    0.247984    0.025011
      4          6           0        3.670239    1.775319   -0.210262
      5          6           0        3.933984   -0.052807    1.515496
      6          6           0        4.713999   -0.433202   -0.859086
      7          8           0        1.300136    0.274349    0.420419
      8          6           0       -0.036290   -0.097166    0.255656
      9          6           0       -0.436436   -1.452254    0.338096
     10          6           0       -1.773653   -1.761479    0.256626
     11          6           0       -2.760151   -0.750927    0.097379
     12          6           0       -2.338504    0.616741    0.023579
     13          6           0       -0.952757    0.914439    0.105247
     14          6           0       -3.322256    1.630483   -0.130103
     15          6           0       -4.658603    1.308667   -0.208902
     16          6           0       -5.075715   -0.043130   -0.136610
     17          6           0       -4.146421   -1.047913    0.013156
     18          1           0        2.928940    2.281746    0.414023
     19          1           0        3.461175    2.016908   -1.258807
     20          1           0        4.660297    2.176063    0.035760
     21          1           0        3.193103    0.423668    2.163431
     22          1           0        4.925838    0.325216    1.788725
     23          1           0        3.921050   -1.131267    1.711909
     24          1           0        4.527074   -0.241524   -1.919908
     25          1           0        4.712638   -1.517819   -0.714685
     26          1           0        5.709637   -0.051055   -0.607323
     27          1           0        0.310296   -2.227857    0.455831
     28          1           0       -2.092027   -2.799324    0.315803
     29          1           0       -0.611235    1.944175    0.054560
     30          1           0       -3.000934    2.667857   -0.185942
     31          1           0       -5.400480    2.093800   -0.327433
     32          1           0       -6.133443   -0.283504   -0.200143
     33          1           0       -4.462648   -2.086990    0.069111
 ---------------------------------------------------------------------

 SCF Done:  E(RB3LYP) =  -731.711139884     A.U. after    1 cycles

 Excitation energies and oscillator strengths:

 Excited State   1:      Singlet-A      4.3814 eV  282.98 nm  f=0.0399  <S**2>=0.000
      60 -> 62        -0.24619
      60 -> 63        -0.13909
      61 -> 62         0.59332
      61 -> 63        -0.23831
 This state for optimization and/or second-order correction.
 Total Energy, E(TD-HF/TD-KS) =  -731.550125716
 Copying the excited state density for this state as the 1-particle RhoCI density.

 Excited State   2:      Singlet-A      4.4694 eV  277.41 nm  f=0.0137  <S**2>=0.000
      60 -> 62         0.43787
      61 -> 62         0.34011
      61 -> 63         0.42434

 Excited State   3:      Singlet-A      5.2870 eV  234.51 nm  f=0.1672  <S**2>=0.000
      59 -> 62         0.16835
      59 -> 63         0.18124
      59 -> 64         0.21572
      60 -> 62        -0.21173
      61 -> 63         0.30116
      61 -> 64         0.49890

 Excited State   4:      Singlet-A      5.5075 eV  225.12 nm  f=0.0858  <S**2>=0.000
      59 -> 62         0.51178
      59 -> 63         0.23982
      59 -> 64         0.24642
      60 -> 62         0.11540
      61 -> 63        -0.17430
      61 -> 64        -0.21643

 Excited State   5:      Singlet-A      5.7061 eV  217.28 nm  f=0.2750  <S**2>=0.000
      58 -> 62        -0.23683
      59 -> 62        -0.25949
      59 -> 63         0.15707
      59 -> 64         0.14876
      60 -> 62         0.19970
      60 -> 63         0.34688
      60 -> 64         0.20860
      61 -> 63        -0.17613
      61 -> 64         0.17071
      61 -> 65         0.22797

 Excited State   6:      Singlet-A      5.8223 eV  212.95 nm  f=0.0228  <S**2>=0.000
      58 -> 62         0.41720
      59 -> 62        -0.14910
      60 -> 63         0.31387
      60 -> 64         0.17135
      61 -> 65        -0.39918

 Excited State   7:      Singlet-A      5.8457 eV  212.10 nm  f=0.1327  <S**2>=0.000
      59 -> 62        -0.32340
      59 -> 63         0.34941
      59 -> 64         0.30740
      60 -> 62        -0.11713
      60 -> 63        -0.24620
      61 -> 64        -0.25420

 Excited State   8:      Singlet-A      6.0474 eV  205.02 nm  f=0.8149  <S**2>=0.000
      57 -> 62         0.16988
      58 -> 62         0.10351
      60 -> 62         0.33819
      60 -> 63        -0.32461
      61 -> 63        -0.28806
      61 -> 64         0.27692
      61 -> 65        -0.21690

 Excited State   9:      Singlet-A      6.2116 eV  199.60 nm  f=0.0957  <S**2>=0.000
      57 -> 62         0.11216
      58 -> 62        -0.12081
      58 -> 63         0.32566
      59 -> 63         0.12925
      59 -> 64        -0.13151
      60 -> 63        -0.12884
      60 -> 64         0.43275
      60 -> 65         0.29525

 Excited State  10:      Singlet-A      6.3776 eV  194.41 nm  f=0.0530  <S**2>=0.000
      57 -> 62        -0.15764
      58 -> 62         0.12082
      58 -> 63        -0.18300
      59 -> 63        -0.19089
      59 -> 64         0.14764
      60 -> 63        -0.20727
      60 -> 64         0.44537
      60 -> 65        -0.28220
      61 -> 65         0.11990

 The electronic state is 1-A.
 Alpha  occ. eigenvalues --  -19.20026 -19.14117 -10.31712 -10.25292 -10.21526
 Alpha  occ. eigenvalues --  -10.20174 -10.19875 -10.19549 -10.19473 -10.19292
 Alpha  occ. eigenvalues --  -10.19241 -10.19196 -10.19151 -10.19109 -10.18371
 Alpha  occ. eigenvalues --  -10.18360 -10.17533  -1.10728  -1.02417  -0.87435
 Alpha  occ. eigenvalues --   -0.83093  -0.81612  -0.77529  -0.74404  -0.72560
 Alpha  occ. eigenvalues --   -0.69318  -0.68841  -0.66133  -0.62820  -0.60010
 Alpha  occ. eigenvalues --   -0.59753  -0.55940  -0.51685  -0.50774  -0.48967
 Alpha  occ. eigenvalues --   -0.48584  -0.46559  -0.45929  -0.44998  -0.43875
 Alpha  occ. eigenvalues --   -0.43414  -0.42571  -0.42119  -0.41694  -0.40425
 Alpha  occ. eigenvalues --   -0.39315  -0.38863  -0.38412  -0.37778  -0.36960
 Alpha  occ. eigenvalues --   -0.35932  -0.34807  -0.34124  -0.33672  -0.33513
 Alpha  occ. eigenvalues --   -0.32651  -0.30801  -0.28524  -0.27039  -0.23906
 Alpha  occ. eigenvalues --   -0.21479
 Alpha virt. eigenvalues --   -0.03903  -0.01226   0.01074   0.03268   0.08185
 Alpha virt. eigenvalues --    0.09222   0.10133   0.11352   0.11832   0.12628
 Alpha virt. eigenvalues --    0.14599   0.15061   0.15324   0.15695   0.16872

 Mulliken atomic charges:
              1
     1  O   -0.451073
     2  C    0.635346
     3  C   -0.011441
     4  C   -0.451949
     5  C   -0.453015
     6  C   -0.434386
     7  O   -0.523994
     8  C    0.372301
     9  C   -0.158234
    10  C   -0.222488
    11  C    0.157032
    12  C    0.134624
    13  C   -0.250788
    14  C   -0.196107
    15  C   -0.156370
    16  C   -0.110284
    17  C   -0.207925
    18  H    0.162686
    19  H    0.153654
    20  H    0.150652
    21  H    0.165840
    22  H    0.151406
    23  H    0.152570
    24  H    0.158399
    25  H    0.156794
    26  H    0.138972
    27  H    0.139357
    28  H    0.132557
    29  H    0.142417
    30  H    0.128045
    31  H    0.123691
    32  H    0.138475
    33  H    0.133231
 Sum of Mulliken atomic charges =  -0.00000

 Dipole moment (field-independent basis, Debye):
    X=              0.7435    Y=              1.1096    Z=              1.1759  Tot=              1.7795
 Quadrupole moment (field-independent basis, Debye-Ang):
   XX=            -85.1129   YY=            -94.6168   ZZ=           -105.2902
   XY=              4.4134   XZ=              3.4010   YZ=             -3.5395

 Summary of Natural Population Analysis:

                                       Natural Population
                Natural  -----------------------------------------------
    Atom  No    Charge         Core      Valence    Rydberg      Total
 -----------------------------------------------------------------------
      O    1   -0.56302      1.99977     6.54331    0.01994     8.56302
      C    2    0.84301      1.99927     3.10898    0.04873     5.15699
      C    3   -0.15153      1.99905     4.14020    0.01228     6.15153
      C    4   -0.66970      1.99938     4.66051    0.00980     6.66970
      C    5   -0.67050      1.99938     4.66136    0.00976     6.67050
      C    6   -0.67040      1.99940     4.65989    0.01112     6.67040
      O    7   -0.53207      1.99969     6.52122    0.01117     8.53207
      C    8    0.36210      1.99872     3.61648    0.02271     5.63790
      C    9   -0.32246      1.99902     4.30749    0.01594     6.32246
      C   10   -0.20550      1.99907     4.19070    0.01573     6.20550
      C   11   -0.05456      1.99903     4.04048    0.01505     6.05456
      C   12   -0.05299      1.99903     4.03862    0.01534     6.05299
      C   13   -0.24143      1.99896     4.22663    0.01584     6.24143
      C   14   -0.20524      1.99906     4.19068    0.01550     6.20524
      C   15   -0.29392      1.99912     4.27834    0.01646     6.29392
      C   16   -0.16235      1.99911     4.14846    0.01478     6.16235
      C   17   -0.22176      1.99907     4.20716    0.01553     6.22176
      H   18    0.24308      0.00000     0.75581    0.00111     0.75692
      H   19    0.23722      0.00000     0.76188    0.00090     0.76278
      H   20    0.23617      0.00000     0.76281    0.00102     0.76383
      H   21    0.24481      0.00000     0.75416    0.00103     0.75519
      H   22    0.23686      0.00000     0.76212    0.00103     0.76314
      H   23    0.23672      0.00000     0.76236    0.00091     0.76328
      H   24    0.24410      0.00000     0.75486    0.00103     0.75590
      H   25    0.24321      0.00000     0.75577    0.00102     0.75679
      H   26    0.23111      0.00000     0.76799    0.00090     0.76889
      H   27    0.24961      0.00000     0.74948    0.00091     0.75039
      H   28    0.23395      0.00000     0.76495    0.00111     0.76605
      H   29    0.24327      0.00000     0.75519    0.00154     0.75673
      H   30    0.22998      0.00000     0.76887    0.00114     0.77002
      H   31    0.23436      0.00000     0.76485    0.00079     0.76564
      H   32    0.23532      0.00000     0.76383    0.00086     0.76468
      H   33    0.23255      0.00000     0.76631    0.00115     0.76745
 =======================================================================
   * Total *   -0.00000     33.98614    87.71174    0.30213   122.00000

 Normal termination of Gaussian 09 at Wed Sep 29 01:00:15 2021.
