 Gaussian 09, Revision A.02,

 -----------------------------------
 #p opt b3lyp/6-31G* scf=(xqc,tight)
 -----------------------------------

 ------------------------------
 COCOc1ccc(cc1)Cc1ccccc1_conf_0
 ------------------------------
 Symbolic Z-matrix:
 Charge =  0 Multiplicity = 1

 SCF Done:  E(RB3LYP) =  -731.655048239     A.U. after   14 cycles
 SCF Done:  E(RB3LYP) =  -731.658157052     A.U. after   12 cycles
 SCF Done:  E(RB3LYP) =  -731.658510562     A.U. after   12 cycles
 SCF Done:  E(RB3LYP) =  -731.658551588     A.U. after   10 cycles
 SCF Done:  E(RB3LYP) =  -731.658562073     A.U. after   10 cycles
 SCF Done:  E(RB3LYP) =  -731.658566574     A.U. after   10 cycles
 SCF Done:  E(RB3LYP) =  -731.658570811     A.U. after   10 cycles
 SCF Done:  E(RB3LYP) =  -731.658576605     A.U. after   11 cycles
 SCF Done:  E(RB3LYP) =  -731.658607310     A.U. after   11 cycles
 SCF Done:  E(RB3LYP) =  -731.658720062     A.U. after   14 cycles
 SCF Done:  E(RB3LYP) =  -731.659368687     A.U. after   13 cycles
 SCF Done:  E(RB3LYP) =  -731.659449084     A.U. after   12 cycles
 SCF Done:  E(RB3LYP) =  -731.659464538     A.U. after   10 cycles
 SCF Done:  E(RB3LYP) =  -731.659468723     A.U. after   11 cycles
 SCF Done:  E(RB3LYP) =  -731.659466917     A.U. after   10 cycles
 SCF Done:  E(RB3LYP) =  -731.659465042     A.U. after   10 cycles
 SCF Done:  E(RB3LYP) =  -731.659464943     A.U. after    7 cycles
 SCF Done:  E(RB3LYP) =  -731.659465068     A.U. after    7 cycles
 Optimization completed.
    -- Stationary point found.
 Normal termination of Gaussian 09 at Thu Sep 30 21:27:22 2021.

 ----------------------------------------------------------------------
 #p freq b3lyp/6-31G* volume NMR pop=NPA density=current Geom=AllCheck
 Guess=Read
 ----------------------------------------------------------------------

 COCOc1ccc(cc1)Cc1ccccc1_conf_0
 ------------------------------
 Redundant internal coordinates taken from checkpoint file:
 C15H16O2_fe6a_conf_0.chk
 Charge =  0 Multiplicity = 1

 SCF Done:  E(RB3LYP) =  -731.659465068     A.U. after    1 cycles

  1  C    Isotropic =   134.9708   Anisotropy =    74.5522

  2  O    Isotropic =   284.1458   Anisotropy =    42.0712

  3  C    Isotropic =    97.4856   Anisotropy =    37.1437

  4  O    Isotropic =   203.8546   Anisotropy =    56.6096

  5  C    Isotropic =    43.0876   Anisotropy =   124.8889

  6  C    Isotropic =    84.9007   Anisotropy =   138.7494

  7  C    Isotropic =    65.5339   Anisotropy =   162.4963

  8  C    Isotropic =    62.2792   Anisotropy =   171.4920

  9  C    Isotropic =    65.3398   Anisotropy =   143.8697

 10  C    Isotropic =    79.3710   Anisotropy =   133.2390

 11  C    Isotropic =   146.5642   Anisotropy =    23.7741

 12  C    Isotropic =    54.2775   Anisotropy =   183.2743

 13  C    Isotropic =    66.8689   Anisotropy =   164.5888

 14  C    Isotropic =    68.0145   Anisotropy =   165.0641

 15  C    Isotropic =    70.5950   Anisotropy =   164.7456

 16  C    Isotropic =    68.7751   Anisotropy =   162.7480

 17  C    Isotropic =    66.9894   Anisotropy =   145.0960

 18  H    Isotropic =    28.6287   Anisotropy =     8.3623

 19  H    Isotropic =    29.2898   Anisotropy =     7.3096

 20  H    Isotropic =    28.2161   Anisotropy =     7.4745

 21  H    Isotropic =    27.4157   Anisotropy =     4.2653

 22  H    Isotropic =    26.8836   Anisotropy =     4.3976

 23  H    Isotropic =    26.0925   Anisotropy =     8.0560

 24  H    Isotropic =    25.3914   Anisotropy =    10.0964

 25  H    Isotropic =    25.1230   Anisotropy =     6.4040

 26  H    Isotropic =    25.5630   Anisotropy =     5.8425

 27  H    Isotropic =    28.5106   Anisotropy =     6.5645

 28  H    Isotropic =    28.4918   Anisotropy =     6.0152

 29  H    Isotropic =    25.2393   Anisotropy =     9.7326

 30  H    Isotropic =    25.0753   Anisotropy =     5.2575

 31  H    Isotropic =    25.1383   Anisotropy =     3.7603

 32  H    Isotropic =    25.0492   Anisotropy =     4.3462

 33  H    Isotropic =    25.0746   Anisotropy =     6.8216

  Exact polarizability: 215.105   9.684 132.394  19.905   4.989 131.137
 Approx polarizability: 281.702  17.981 212.158  39.038  14.199 224.705

                     1                      2                      3
                     A                      A                      A
 Frequencies --    20.9569                25.9984                27.9776
 Red. masses --     3.5122                 4.7191                 3.7781
 Frc consts  --     0.0009                 0.0019                 0.0017
 IR Inten    --     0.3951                 0.8265                 0.0708

                     4                      5                      6
                     A                      A                      A
 Frequencies --    54.7718                66.7294               121.6688
 Red. masses --     4.8301                 3.0269                 3.9454
 Frc consts  --     0.0085                 0.0079                 0.0344
 IR Inten    --     0.4969                 1.0767                 0.6957

                     7                      8                      9
                     A                      A                      A
 Frequencies --   140.5817               164.6991               183.3418
 Red. masses --     1.7898                 2.3558                 2.7490
 Frc consts  --     0.0208                 0.0377                 0.0544
 IR Inten    --     1.4958                 0.6585                 4.0905

                    10                     11                     12
                     A                      A                      A
 Frequencies --   228.8331               259.4475               323.9186
 Red. masses --     3.6125                 5.0386                 3.4555
 Frc consts  --     0.1115                 0.1998                 0.2136
 IR Inten    --     2.4234                 0.3196                 1.1429

                    13                     14                     15
                     A                      A                      A
 Frequencies --   338.0539               361.8866               417.8914
 Red. masses --     3.0801                 2.9397                 2.9852
 Frc consts  --     0.2074                 0.2268                 0.3072
 IR Inten    --     2.8270                 4.6207                 0.2671

                    16                     17                     18
                     A                      A                      A
 Frequencies --   424.0996               437.7293               468.7042
 Red. masses --     3.1728                 3.4729                 3.7636
 Frc consts  --     0.3362                 0.3921                 0.4871
 IR Inten    --     0.1139                 3.4593                 0.2972

                    19                     20                     21
                     A                      A                      A
 Frequencies --   493.0992               522.4185               584.0310
 Red. masses --     3.6158                 2.7761                 5.1338
 Frc consts  --     0.5180                 0.4464                 1.0317
 IR Inten    --    13.4622                 4.0744                 3.0064

                    22                     23                     24
                     A                      A                      A
 Frequencies --   623.6560               637.2830               654.6261
 Red. masses --     4.0573                 6.2936                 6.5938
 Frc consts  --     0.9298                 1.5060                 1.6648
 IR Inten    --     6.6474                 0.4808                 2.0494

                    25                     26                     27
                     A                      A                      A
 Frequencies --   713.0657               721.5919               749.5647
 Red. masses --     2.3941                 3.3110                 1.8255
 Frc consts  --     0.7172                 1.0158                 0.6043
 IR Inten    --    14.9457                 4.2142                30.8010

                    28                     29                     30
                     A                      A                      A
 Frequencies --   804.4415               823.6279               828.6511
 Red. masses --     2.4136                 2.8355                 1.5017
 Frc consts  --     0.9203                 1.1333                 0.6075
 IR Inten    --    23.9111                 6.5485                 0.4549

                    31                     32                     33
                     A                      A                      A
 Frequencies --   852.3283               860.9585               871.7280
 Red. masses --     1.9761                 1.2547                 5.3618
 Frc consts  --     0.8458                 0.5480                 2.4006
 IR Inten    --    19.9754                 0.0821                 3.3073

                    34                     35                     36
                     A                      A                      A
 Frequencies --   915.3413               943.2484               952.5185
 Red. masses --     1.4427                 1.4514                 1.4265
 Frc consts  --     0.7122                 0.7608                 0.7625
 IR Inten    --     3.3241                 0.8160                 0.3716

                    37                     38                     39
                     A                      A                      A
 Frequencies --   962.7815               966.2721               976.2029
 Red. masses --     1.5071                 1.3516                 4.1999
 Frc consts  --     0.8231                 0.7435                 2.3581
 IR Inten    --     0.7567                 0.1929                31.3388

                    40                     41                     42
                     A                      A                      A
 Frequencies --   993.9229              1018.4429              1031.3744
 Red. masses --     1.2495                 6.2494                 6.9352
 Frc consts  --     0.7272                 3.8191                 4.3465
 IR Inten    --     0.3948                 1.8717               208.9096

                    43                     44                     45
                     A                      A                      A
 Frequencies --  1035.3232              1059.1773              1111.2500
 Red. masses --     2.8923                 2.2458                 1.5808
 Frc consts  --     1.8266                 1.4844                 1.1502
 IR Inten    --    84.7122                 4.3773                 5.7068

                    46                     47                     48
                     A                      A                      A
 Frequencies --  1138.5215              1144.1908              1183.4093
 Red. masses --     1.5602                 1.3232                 1.3363
 Frc consts  --     1.1915                 1.0207                 1.1026
 IR Inten    --    46.3953                13.9159                30.9410

                    49                     50                     51
                     A                      A                      A
 Frequencies --  1192.0425              1208.7250              1211.7324
 Red. masses --     1.1029                 1.4300                 1.8851
 Frc consts  --     0.9234                 1.2310                 1.6308
 IR Inten    --     0.0847               116.4560               103.6114

                    52                     53                     54
                     A                      A                      A
 Frequencies --  1213.8328              1217.1311              1222.3325
 Red. masses --     1.1452                 1.4275                 1.9552
 Frc consts  --     0.9941                 1.2460                 1.7211
 IR Inten    --     0.7882                28.4262                 1.0904

                    55                     56                     57
                     A                      A                      A
 Frequencies --  1233.5539              1240.9304              1294.4486
 Red. masses --     2.3392                 1.9263                 4.3596
 Frc consts  --     2.0971                 1.7477                 4.3039
 IR Inten    --    11.6066               207.0656               195.5677

                    58                     59                     60
                     A                      A                      A
 Frequencies --  1320.5271              1325.9859              1346.4153
 Red. masses --     2.3349                 1.1704                 1.9340
 Frc consts  --     2.3989                 1.2125                 2.0657
 IR Inten    --    19.0719                 3.5711                15.1907

                    61                     62                     63
                     A                      A                      A
 Frequencies --  1363.3415              1370.0192              1381.7588
 Red. masses --     3.4574                 1.6085                 1.5722
 Frc consts  --     3.7863                 1.7787                 1.7686
 IR Inten    --     2.8804                 8.0431                 5.3637

                    64                     65                     66
                     A                      A                      A
 Frequencies --  1456.4668              1469.6718              1499.5664
 Red. masses --     1.1843                 2.8457                 1.8557
 Frc consts  --     1.4802                 3.6214                 2.4587
 IR Inten    --    68.5630                 0.5915                 4.0503

                    67                     68                     69
                     A                      A                      A
 Frequencies --  1501.9026              1511.2544              1514.6128
 Red. masses --     1.1640                 1.2164                 1.0593
 Frc consts  --     1.5470                 1.6369                 1.4318
 IR Inten    --    27.9578                 9.1614                 6.0908

                    70                     71                     72
                     A                      A                      A
 Frequencies --  1537.6667              1546.2886              1550.8399
 Red. masses --     1.0516                 2.1918                 1.1891
 Frc consts  --     1.4649                 3.0877                 1.6850
 IR Inten    --     7.0177                15.3521                20.1227

                    73                     74                     75
                     A                      A                      A
 Frequencies --  1566.9061              1631.5028              1644.7740
 Red. masses --     2.1957                 6.4664                 5.4932
 Frc consts  --     3.1762                10.1412                 8.7556
 IR Inten    --    92.7346                 8.1145                 1.6739

                    76                     77                     78
                     A                      A                      A
 Frequencies --  1664.4318              1675.0554              2966.2089
 Red. masses --     5.5673                 5.7494                 1.0665
 Frc consts  --     9.0871                 9.5046                 5.5284
 IR Inten    --     4.3221                48.2984                47.9254

                    79                     80                     81
                     A                      A                      A
 Frequencies --  3016.8824              3030.4515              3062.6899
 Red. masses --     1.0451                 1.0597                 1.1029
 Frc consts  --     5.6045                 5.7340                 6.0955
 IR Inten    --    52.5746                31.9521                14.2368

                    82                     83                     84
                     A                      A                      A
 Frequencies --  3078.9439              3099.8312              3156.1873
 Red. masses --     1.0972                 1.0919                 1.1028
 Frc consts  --     6.1283                 6.1817                 6.4726
 IR Inten    --    45.2598                34.7738                34.9312

                    85                     86                     87
                     A                      A                      A
 Frequencies --  3171.9321              3177.9690              3178.4708
 Red. masses --     1.0863                 1.0885                 1.0865
 Frc consts  --     6.4397                 6.4770                 6.4670
 IR Inten    --     9.1873                16.1370                 2.4507

                    88                     89                     90
                     A                      A                      A
 Frequencies --  3186.4809              3188.0148              3195.9014
 Red. masses --     1.0889                 1.0901                 1.0941
 Frc consts  --     6.5142                 6.5277                 6.5838
 IR Inten    --    12.2579                10.8781                43.2241

                    91                     92                     93
                     A                      A                      A
 Frequencies --  3207.5205              3213.3463              3221.1702
 Red. masses --     1.0979                 1.0929                 1.0917
 Frc consts  --     6.6548                 6.6488                 6.6738
 IR Inten    --    24.8764                 9.2368                14.3816

 - Thermochemistry -
 -------------------
 Temperature   298.150 Kelvin.  Pressure   1.00000 Atm.
 Atom     1 has atomic number  6 and mass  12.00000

 Molecular mass:   228.11503 amu.
 Principal axes and moments of inertia in atomic units:
                           1         2         3
     Eigenvalues --  1538.17005********************
           X            0.99997  -0.00580   0.00571
           Y            0.00583   0.99997  -0.00526
           Z           -0.00568   0.00529   0.99997
 This molecule is an asymmetric top.
 Rotational symmetry number  1.
 Warning -- assumption of classical behavior for rotation
           may cause significant error
 Rotational temperatures (Kelvin)      0.05631     0.00821     0.00784
 Rotational constants (GHZ):           1.17330     0.17111     0.16345
 Zero-point vibrational energy     725571.3 (Joules/Mol)
                                  173.41571 (Kcal/Mol)
 Warning -- explicit consideration of  21 degrees of freedom as
           vibrations may cause significant error
 Vibrational temperatures:     30.15    37.41    40.25    78.80    96.01
          (Kelvin)            175.05   202.27   236.97   263.79   329.24
                              373.29   466.05   486.38   520.67   601.25
                              610.18   629.79   674.36   709.46   751.64
                              840.29   897.30   916.91   941.86  1025.94
                             1038.21  1078.46  1157.41  1185.02  1192.24
                             1226.31  1238.73  1254.22  1316.97  1357.12
                             1370.46  1385.23  1390.25  1404.54  1430.03
                             1465.31  1483.92  1489.60  1523.92  1598.84
                             1638.08  1646.23  1702.66  1715.08  1739.08
                             1743.41  1746.43  1751.18  1758.66  1774.81
                             1785.42  1862.42  1899.94  1907.80  1937.19
                             1961.54  1971.15  1988.04  2095.53  2114.53
                             2157.54  2160.90  2174.36  2179.19  2212.36
                             2224.76  2231.31  2254.43  2347.37  2366.46
                             2394.74  2410.03  4267.71  4340.62  4360.14
                             4406.52  4429.91  4459.96  4541.04  4563.70
                             4572.38  4573.10  4584.63  4586.84  4598.18
                             4614.90  4623.28  4634.54

 Zero-point correction=                           0.276356 (Hartree/Particle)
 Thermal correction to Energy=                    0.291747
 Thermal correction to Enthalpy=                  0.292692
 Thermal correction to Gibbs Free Energy=         0.230377
 Sum of electronic and zero-point Energies=           -731.383110
 Sum of electronic and thermal Energies=              -731.367718
 Sum of electronic and thermal Enthalpies=            -731.366773
 Sum of electronic and thermal Free Energies=         -731.429088

                     E (Thermal)             CV                S
                      KCal/Mol        Cal/Mol-Kelvin    Cal/Mol-Kelvin
 Total                  183.074             58.231            131.151
 Electronic               0.000              0.000              0.000
 Translational            0.889              2.981             42.176
 Rotational               0.889              2.981             33.549
 Vibrational            181.297             52.269             55.426
 Vibration     1          0.593              1.986              6.541
 Vibration     2          0.593              1.985              6.113
 Vibration     3          0.593              1.984              5.968
 Vibration     4          0.596              1.976              4.637
 Vibration     5          0.598              1.970              4.248
 Vibration     6          0.609              1.931              3.074
 Vibration     7          0.615              1.913              2.796
 Vibration     8          0.623              1.886              2.495
 Vibration     9          0.631              1.862              2.294
 Vibration    10          0.652              1.797              1.888
 Vibration    11          0.668              1.747              1.665
 Vibration    12          0.708              1.628              1.290
 Vibration    13          0.718              1.599              1.221
 Vibration    14          0.736              1.551              1.114
 Vibration    15          0.781              1.431              0.899
 Vibration    16          0.786              1.418              0.878
 Vibration    17          0.798              1.388              0.834
 Vibration    18          0.826              1.319              0.741
 Vibration    19          0.849              1.265              0.676
 Vibration    20          0.877              1.200              0.604
 Vibration    21          0.941              1.066              0.478

 Normal termination of Gaussian 09 at Thu Sep 30 22:41:55 2021.
 Gaussian 09:  AM64L-G09RevA.02 11-Jun-2009

 ----------------------------------------------------------------------
 #p TD(NStates=10, Root=1) b3lyp/6-31G* volume pop=NPA density=current
 Geom=AllCheck Guess=Read
 ----------------------------------------------------------------------

 COCOc1ccc(cc1)Cc1ccccc1_conf_0
 ------------------------------
 Redundant internal coordinates taken from checkpoint file:
 C15H16O2_fe6a_conf_0.chk
 Charge =  0 Multiplicity = 1

                         Standard orientation:
 ---------------------------------------------------------------------
 Center     Atomic      Atomic             Coordinates (Angstroms)
 Number     Number       Type             X           Y           Z
 ---------------------------------------------------------------------
      1          6           0        5.594974   -1.348244    0.816868
      2          8           0        5.344569   -0.834275   -0.486998
      3          6           0        4.005057   -0.693312   -0.788836
      4          8           0        3.451899    0.339305    0.024143
      5          6           0        2.108760    0.584900   -0.051690
      6          6           0        1.242338   -0.010305   -0.978857
      7          6           0       -0.113621    0.321776   -0.968893
      8          6           0       -0.639008    1.243429   -0.057597
      9          6           0        0.245359    1.827607    0.860019
     10          6           0        1.599200    1.508209    0.869426
     11          6           0       -2.112239    1.618308   -0.078347
     12          6           0       -3.072746    0.443639    0.022182
     13          6           0       -2.999936   -0.452026    1.099392
     14          6           0       -3.894834   -1.514953    1.206779
     15          6           0       -4.880336   -1.706122    0.234188
     16          6           0       -4.960953   -0.825323   -0.843590
     17          6           0       -4.062513    0.240083   -0.945902
     18          1           0        6.673564   -1.504423    0.885678
     19          1           0        5.079572   -2.309007    0.968163
     20          1           0        5.275672   -0.644730    1.593333
     21          1           0        3.443167   -1.627687   -0.611182
     22          1           0        3.948373   -0.415409   -1.848073
     23          1           0        1.606449   -0.723474   -1.710168
     24          1           0       -0.775363   -0.155510   -1.687727
     25          1           0       -0.132158    2.548695    1.581912
     26          1           0        2.280265    1.961730    1.582969
     27          1           0       -2.337098    2.176253   -0.997494
     28          1           0       -2.305740    2.315521    0.747988
     29          1           0       -2.229821   -0.315372    1.854952
     30          1           0       -3.823475   -2.196781    2.050504
     31          1           0       -5.577138   -2.536007    0.317195
     32          1           0       -5.721428   -0.964996   -1.607730
     33          1           0       -4.133599    0.924964   -1.788355
 ---------------------------------------------------------------------

 SCF Done:  E(RB3LYP) =  -731.659465068     A.U. after    1 cycles

 Excitation energies and oscillator strengths:

 Excited State   1:      Singlet-A      5.0083 eV  247.56 nm  f=0.0350  <S**2>=0.000
      58 -> 64        -0.17796
      58 -> 65         0.19114
      61 -> 62         0.64019
 This state for optimization and/or second-order correction.
 Total Energy, E(TD-HF/TD-KS) =  -731.475413826
 Copying the excited state density for this state as the 1-particle RhoCI density.

 Excited State   2:      Singlet-A      5.2027 eV  238.31 nm  f=0.0049  <S**2>=0.000
      61 -> 63         0.69099

 Excited State   3:      Singlet-A      5.2978 eV  234.03 nm  f=0.0628  <S**2>=0.000
      58 -> 64        -0.10262
      59 -> 63         0.22940
      60 -> 62        -0.10243
      60 -> 63         0.15513
      60 -> 64         0.12128
      61 -> 63        -0.10422
      61 -> 64         0.55691
      61 -> 65         0.19846

 Excited State   4:      Singlet-A      5.5252 eV  224.40 nm  f=0.0472  <S**2>=0.000
      59 -> 62        -0.13309
      59 -> 63        -0.31056
      59 -> 64         0.13267
      60 -> 62         0.30919
      60 -> 63        -0.24407
      60 -> 64        -0.23827
      61 -> 64         0.35246

 Excited State   5:      Singlet-A      5.7541 eV  215.47 nm  f=0.0809  <S**2>=0.000
      58 -> 62        -0.17312
      60 -> 62        -0.20968
      60 -> 64        -0.30661
      61 -> 62        -0.13787
      61 -> 64        -0.14313
      61 -> 65         0.52479

 Excited State   6:      Singlet-A      5.8753 eV  211.03 nm  f=0.1259  <S**2>=0.000
      58 -> 62        -0.19257
      59 -> 62         0.12286
      60 -> 62         0.52546
      60 -> 63         0.14626
      60 -> 64         0.24593
      61 -> 64        -0.10162
      61 -> 65         0.26229

 Excited State   7:      Singlet-A      6.0496 eV  204.95 nm  f=0.0049  <S**2>=0.000
      58 -> 62         0.18166
      59 -> 62         0.58399
      59 -> 63        -0.14479
      59 -> 64         0.15538
      60 -> 63         0.19488
      60 -> 64        -0.17458

 Excited State   8:      Singlet-A      6.1266 eV  202.37 nm  f=0.0270  <S**2>=0.000
      58 -> 63         0.17096
      59 -> 62        -0.18911
      59 -> 63        -0.16096
      59 -> 64        -0.39177
      60 -> 63         0.39458
      60 -> 64        -0.26014

 Excited State   9:      Singlet-A      6.2022 eV  199.90 nm  f=0.0083  <S**2>=0.000
      58 -> 63         0.62368
      59 -> 63        -0.11618
      59 -> 64         0.13020
      60 -> 64         0.16906
      60 -> 65        -0.18906

 Excited State  10:      Singlet-A      6.2821 eV  197.36 nm  f=0.0155  <S**2>=0.000
      58 -> 62         0.17942
      58 -> 63         0.21802
      58 -> 65        -0.16388
      59 -> 63         0.18430
      59 -> 64         0.22338
      60 -> 62         0.11763
      60 -> 63        -0.11793
      60 -> 64        -0.12773
      60 -> 65         0.50431

 The electronic state is 1-A.
 Alpha  occ. eigenvalues --  -19.17470 -19.16323 -10.28971 -10.24659 -10.23128
 Alpha  occ. eigenvalues --  -10.19330 -10.19152 -10.18919 -10.18800 -10.18749
 Alpha  occ. eigenvalues --  -10.18693 -10.18639 -10.18610 -10.18500 -10.18460
 Alpha  occ. eigenvalues --  -10.18300 -10.18290  -1.08473  -1.02864  -0.85671
 Alpha  occ. eigenvalues --   -0.84463  -0.78309  -0.74878  -0.74244  -0.73858
 Alpha  occ. eigenvalues --   -0.72108  -0.67551  -0.64589  -0.60732  -0.59957
 Alpha  occ. eigenvalues --   -0.58812  -0.56991  -0.54196  -0.50957  -0.50787
 Alpha  occ. eigenvalues --   -0.50225  -0.47238  -0.46458  -0.45494  -0.44637
 Alpha  occ. eigenvalues --   -0.43953  -0.42727  -0.41932  -0.41736  -0.41508
 Alpha  occ. eigenvalues --   -0.40567  -0.39601  -0.37514  -0.36780  -0.36299
 Alpha  occ. eigenvalues --   -0.34637  -0.34075  -0.33480  -0.33178  -0.32672
 Alpha  occ. eigenvalues --   -0.30695  -0.27872  -0.24944  -0.24550  -0.23982
 Alpha  occ. eigenvalues --   -0.21256
 Alpha virt. eigenvalues --   -0.00291   0.00085   0.00411   0.01751   0.09421
 Alpha virt. eigenvalues --    0.09682   0.09886   0.11725   0.12641   0.12827
 Alpha virt. eigenvalues --    0.13998   0.14925   0.15359   0.15743   0.15919

 Mulliken atomic charges:
              1
     1  C   -0.217238
     2  O   -0.446761
     3  C    0.180352
     4  O   -0.468564
     5  C    0.359718
     6  C   -0.201664
     7  C   -0.205937
     8  C    0.208626
     9  C   -0.226054
    10  C   -0.183526
    11  C   -0.440684
    12  C    0.179401
    13  C   -0.170782
    14  C   -0.139683
    15  C   -0.132002
    16  C   -0.125044
    17  C   -0.208765
    18  H    0.170513
    19  H    0.139370
    20  H    0.166904
    21  H    0.143112
    22  H    0.170870
    23  H    0.128703
    24  H    0.134576
    25  H    0.120357
    26  H    0.131715
    27  H    0.163546
    28  H    0.162060
    29  H    0.125757
    30  H    0.121183
    31  H    0.122412
    32  H    0.122931
    33  H    0.114602
 Sum of Mulliken atomic charges =  -0.00000

 Dipole moment (field-independent basis, Debye):
    X=              1.7268    Y=             -1.1826    Z=              0.1431  Tot=              2.0978
 Quadrupole moment (field-independent basis, Debye-Ang):
   XX=            -97.7615   YY=            -96.6754   ZZ=            -95.4194
   XY=             -6.4807   XZ=              6.2574   YZ=             -0.3942

 Summary of Natural Population Analysis:

                                       Natural Population
                Natural  -----------------------------------------------
    Atom  No    Charge         Core      Valence    Rydberg      Total
 -----------------------------------------------------------------------
      C    1   -0.32167      1.99944     4.30794    0.01429     6.32167
      O    2   -0.55934      1.99980     6.54699    0.01255     8.55934
      C    3    0.20744      1.99939     3.76593    0.02725     5.79256
      O    4   -0.46271      1.99973     6.45107    0.01192     8.46271
      C    5    0.33754      1.99879     3.64082    0.02285     5.66246
      C    6   -0.34209      1.99905     4.32620    0.01684     6.34209
      C    7   -0.26290      1.99905     4.24516    0.01869     6.26290
      C    8    0.05232      1.99903     3.93163    0.01703     5.94768
      C    9   -0.28359      1.99906     4.26640    0.01813     6.28359
      C   10   -0.29742      1.99906     4.27842    0.01994     6.29742
      C   11   -0.48631      1.99921     4.47261    0.01449     6.48631
      C   12   -0.03936      1.99900     4.02365    0.01670     6.03936
      C   13   -0.21899      1.99902     4.20685    0.01312     6.21899
      C   14   -0.25195      1.99910     4.23800    0.01486     6.25195
      C   15   -0.23805      1.99909     4.22503    0.01392     6.23805
      C   16   -0.22712      1.99910     4.21386    0.01416     6.22712
      C   17   -0.25579      1.99902     4.24285    0.01392     6.25579
      H   18    0.22613      0.00000     0.77330    0.00057     0.77387
      H   19    0.19395      0.00000     0.80431    0.00173     0.80605
      H   20    0.21121      0.00000     0.78700    0.00179     0.78879
      H   21    0.18843      0.00000     0.80841    0.00317     0.81157
      H   22    0.22055      0.00000     0.77761    0.00184     0.77945
      H   23    0.22935      0.00000     0.76968    0.00097     0.77065
      H   24    0.23819      0.00000     0.76064    0.00118     0.76181
      H   25    0.23034      0.00000     0.76862    0.00103     0.76966
      H   26    0.23970      0.00000     0.75904    0.00127     0.76030
      H   27    0.25834      0.00000     0.73939    0.00227     0.74166
      H   28    0.25476      0.00000     0.74373    0.00151     0.74524
      H   29    0.23402      0.00000     0.76432    0.00166     0.76598
      H   30    0.23234      0.00000     0.76678    0.00089     0.76766
      H   31    0.23212      0.00000     0.76702    0.00086     0.76788
      H   32    0.23278      0.00000     0.76632    0.00090     0.76722
      H   33    0.22779      0.00000     0.77104    0.00117     0.77221
 =======================================================================
   * Total *   -0.00000     33.98593    87.71062    0.30345   122.00000

 Normal termination of Gaussian 09 at Fri Oct  1 03:27:51 2021.
