 Gaussian 09, Revision A.02,

 -----------------------------------
 #p opt b3lyp/6-31G* scf=(xqc,tight)
 -----------------------------------

 ---------------------------------------
 O=C(C(C)(C)C)Oc1ccc(cc1)C(C)(C)C_conf_0
 ---------------------------------------
 Symbolic Z-matrix:
 Charge =  0 Multiplicity = 1

 SCF Done:  E(RB3LYP) =  -735.317694956     A.U. after   15 cycles
 SCF Done:  E(RB3LYP) =  -735.320762432     A.U. after   13 cycles
 SCF Done:  E(RB3LYP) =  -735.317824030     A.U. after   13 cycles
 SCF Done:  E(RB3LYP) =  -735.321001575     A.U. after   12 cycles
 SCF Done:  E(RB3LYP) =  -735.321182543     A.U. after   12 cycles
 SCF Done:  E(RB3LYP) =  -735.321354373     A.U. after   11 cycles
 SCF Done:  E(RB3LYP) =  -735.321450173     A.U. after   15 cycles
 SCF Done:  E(RB3LYP) =  -735.321668559     A.U. after   11 cycles
 SCF Done:  E(RB3LYP) =  -735.321757662     A.U. after   10 cycles
 SCF Done:  E(RB3LYP) =  -735.321849805     A.U. after   12 cycles
 SCF Done:  E(RB3LYP) =  -735.321990548     A.U. after   11 cycles
 SCF Done:  E(RB3LYP) =  -735.322076076     A.U. after   10 cycles
 SCF Done:  E(RB3LYP) =  -735.322120824     A.U. after   11 cycles
 SCF Done:  E(RB3LYP) =  -735.322128317     A.U. after    9 cycles
 SCF Done:  E(RB3LYP) =  -735.322134725     A.U. after    9 cycles
 SCF Done:  E(RB3LYP) =  -735.322142945     A.U. after   10 cycles
 SCF Done:  E(RB3LYP) =  -735.322146735     A.U. after    9 cycles
 SCF Done:  E(RB3LYP) =  -735.322147133     A.U. after    8 cycles
 Optimization completed.
    -- Stationary point found.
 Normal termination of Gaussian 09 at Wed Sep 29 08:03:54 2021.

 ----------------------------------------------------------------------
 #p freq b3lyp/6-31G* volume NMR pop=NPA density=current Geom=AllCheck
 Guess=Read
 ----------------------------------------------------------------------

 O=C(C(C)(C)C)Oc1ccc(cc1)C(C)(C)C_conf_0
 ---------------------------------------
 Redundant internal coordinates taken from checkpoint file:
 C15H22O2_1360_conf_0.chk
 Charge =  0 Multiplicity = 1

 SCF Done:  E(RB3LYP) =  -735.322147133     A.U. after    1 cycles

  1  O    Isotropic =   -62.2219   Anisotropy =   575.8378

  2  C    Isotropic =    22.8413   Anisotropy =    76.8448

  3  C    Isotropic =   148.9839   Anisotropy =    24.1301

  4  C    Isotropic =   162.8256   Anisotropy =    31.2434

  5  C    Isotropic =   162.1310   Anisotropy =    37.9600

  6  C    Isotropic =   162.1169   Anisotropy =    37.1555

  7  O    Isotropic =   110.0426   Anisotropy =   161.5823

  8  C    Isotropic =    47.1158   Anisotropy =   107.2701

  9  C    Isotropic =    73.5238   Anisotropy =   150.0583

 10  C    Isotropic =    70.9561   Anisotropy =   156.6214

 11  C    Isotropic =    50.9612   Anisotropy =   182.0719

 12  C    Isotropic =    68.3533   Anisotropy =   161.3637

 13  C    Isotropic =    76.2831   Anisotropy =   137.8004

 14  C    Isotropic =   153.1979   Anisotropy =    10.5791

 15  C    Isotropic =   161.0920   Anisotropy =    30.7671

 16  C    Isotropic =   157.2435   Anisotropy =    39.5952

 17  C    Isotropic =   157.1487   Anisotropy =    39.6595

 18  H    Isotropic =    30.6780   Anisotropy =     7.8670

 19  H    Isotropic =    30.6554   Anisotropy =     8.0939

 20  H    Isotropic =    31.4999   Anisotropy =     7.8886

 21  H    Isotropic =    30.8809   Anisotropy =     7.9358

 22  H    Isotropic =    31.1252   Anisotropy =     7.9693

 23  H    Isotropic =    30.3694   Anisotropy =     7.2565

 24  H    Isotropic =    30.8666   Anisotropy =     8.0201

 25  H    Isotropic =    30.4448   Anisotropy =     6.0963

 26  H    Isotropic =    31.1237   Anisotropy =     7.8987

 27  H    Isotropic =    24.9993   Anisotropy =     9.1168

 28  H    Isotropic =    24.9896   Anisotropy =    10.4646

 29  H    Isotropic =    24.7860   Anisotropy =     9.9631

 30  H    Isotropic =    25.4136   Anisotropy =     7.2418

 31  H    Isotropic =    30.6363   Anisotropy =     7.8060

 32  H    Isotropic =    30.5819   Anisotropy =     7.8335

 33  H    Isotropic =    31.0927   Anisotropy =     7.7191

 34  H    Isotropic =    30.9695   Anisotropy =     7.7185

 35  H    Isotropic =    30.9650   Anisotropy =     8.7119

 36  H    Isotropic =    30.5707   Anisotropy =     7.4205

 37  H    Isotropic =    30.9209   Anisotropy =     7.6309

 38  H    Isotropic =    30.5763   Anisotropy =     7.3313

 39  H    Isotropic =    30.9685   Anisotropy =     8.6896

  Exact polarizability: 225.024  -0.476 149.775   1.861  -5.085 114.763
 Approx polarizability: 276.702   0.115 250.900   5.542  -8.066 169.619

                     1                      2                      3
                     A                      A                      A
 Frequencies --    20.6839                33.0789                42.4386
 Red. masses --     3.1123                 4.2183                 4.6305
 Frc consts  --     0.0008                 0.0027                 0.0049
 IR Inten    --     0.2366                 0.3042                 0.8008

                     4                      5                      6
                     A                      A                      A
 Frequencies --    54.2597                69.0879               118.9465
 Red. masses --     3.3211                 4.7826                 3.8700
 Frc consts  --     0.0058                 0.0134                 0.0323
 IR Inten    --     0.0705                 0.6023                 0.5640

                     7                      8                      9
                     A                      A                      A
 Frequencies --   178.6510               191.0808               204.1620
 Red. masses --     3.9187                 2.3196                 1.2860
 Frc consts  --     0.0737                 0.0499                 0.0316
 IR Inten    --     0.2312                 0.2760                 0.0919

                    10                     11                     12
                     A                      A                      A
 Frequencies --   221.4930               237.1675               256.8728
 Red. masses --     1.6682                 1.2888                 1.2590
 Frc consts  --     0.0482                 0.0427                 0.0489
 IR Inten    --     0.1118                 0.3819                 0.1234

                    13                     14                     15
                     A                      A                      A
 Frequencies --   264.5277               276.0586               284.7943
 Red. masses --     1.2889                 1.3660                 1.2550
 Frc consts  --     0.0531                 0.0613                 0.0600
 IR Inten    --     0.0024                 0.5296                 0.3902

                    16                     17                     18
                     A                      A                      A
 Frequencies --   304.9668               320.1006               334.0069
 Red. masses --     2.7905                 2.6779                 1.0518
 Frc consts  --     0.1529                 0.1617                 0.0691
 IR Inten    --     3.6419                 0.4753                 0.0104

                    19                     20                     21
                     A                      A                      A
 Frequencies --   350.1859               353.5945               368.1165
 Red. masses --     2.8658                 3.0274                 2.5832
 Frc consts  --     0.2071                 0.2230                 0.2062
 IR Inten    --     0.0872                 5.5410                 1.8375

                    22                     23                     24
                     A                      A                      A
 Frequencies --   374.6089               402.6100               423.6200
 Red. masses --     2.4093                 3.7227                 3.0827
 Frc consts  --     0.1992                 0.3555                 0.3259
 IR Inten    --     0.6581                 3.5830                 0.0239

                    25                     26                     27
                     A                      A                      A
 Frequencies --   444.4028               456.4430               475.0495
 Red. masses --     3.5549                 3.1101                 3.1748
 Frc consts  --     0.4136                 0.3818                 0.4221
 IR Inten    --     0.4891                 1.8686                 1.2135

                    28                     29                     30
                     A                      A                      A
 Frequencies --   537.9330               562.8240               593.1374
 Red. masses --     3.3978                 2.6186                 3.1869
 Frc consts  --     0.5793                 0.4887                 0.6606
 IR Inten    --     0.2313                11.3114                 5.2720

                    31                     32                     33
                     A                      A                      A
 Frequencies --   653.0521               684.3572               739.1193
 Red. masses --     7.0008                 4.8339                 4.3155
 Frc consts  --     1.7591                 1.3339                 1.3890
 IR Inten    --     0.6301                 0.3142                 0.9162

                    34                     35                     36
                     A                      A                      A
 Frequencies --   759.1981               805.7433               823.1094
 Red. masses --     6.7303                 3.3370                 3.2724
 Frc consts  --     2.2856                 1.2764                 1.3063
 IR Inten    --     4.0222                 2.7307                 9.0343

                    37                     38                     39
                     A                      A                      A
 Frequencies --   834.4667               850.9584               866.4991
 Red. masses --     1.2842                 2.1111                 2.9910
 Frc consts  --     0.5269                 0.9007                 1.3231
 IR Inten    --     0.7849                10.4098                11.1741

                    40                     41                     42
                     A                      A                      A
 Frequencies --   908.3082               936.9431               947.7893
 Red. masses --     3.5469                 1.7841                 1.7170
 Frc consts  --     1.7241                 0.9228                 0.9088
 IR Inten    --    15.7834                 1.6850                 0.6372

                    43                     44                     45
                     A                      A                      A
 Frequencies --   948.1740               956.6269               958.7324
 Red. masses --     1.7564                 1.6257                 1.3288
 Frc consts  --     0.9304                 0.8765                 0.7196
 IR Inten    --     1.4698                 3.3259                 0.1347

                    46                     47                     48
                     A                      A                      A
 Frequencies --   960.8004               975.2409               980.6458
 Red. masses --     1.3111                 1.2000                 1.1979
 Frc consts  --     0.7131                 0.6724                 0.6787
 IR Inten    --     0.2343                 0.0794                 0.0075

                    49                     50                     51
                     A                      A                      A
 Frequencies --  1037.6614              1055.2065              1058.8096
 Red. masses --     2.8695                 1.4236                 1.4672
 Frc consts  --     1.8204                 0.9339                 0.9691
 IR Inten    --    14.1590                 3.3707                41.6247

                    52                     53                     54
                     A                      A                      A
 Frequencies --  1060.6399              1062.2585              1134.3884
 Red. masses --     1.4317                 1.3935                 2.9350
 Frc consts  --     0.9489                 0.9264                 2.2253
 IR Inten    --     1.2415                 0.0457               183.6292

                    55                     56                     57
                     A                      A                      A
 Frequencies --  1147.1931              1154.9401              1207.7289
 Red. masses --     1.3407                 3.2200                 1.4737
 Frc consts  --     1.0395                 2.5306                 1.2665
 IR Inten    --     7.0843               343.8834               168.6121

                    58                     59                     60
                     A                      A                      A
 Frequencies --  1239.0977              1241.9740              1242.9603
 Red. masses --     2.6758                 2.4957                 2.6544
 Frc consts  --     2.4205                 2.2682                 2.4162
 IR Inten    --     3.4316                 0.4623                 6.2615

                    61                     62                     63
                     A                      A                      A
 Frequencies --  1246.5827              1265.3110              1299.2466
 Red. masses --     2.4514                 2.8978                 3.0016
 Frc consts  --     2.2445                 2.7335                 2.9853
 IR Inten    --   185.9844                46.8112                28.3179

                    64                     65                     66
                     A                      A                      A
 Frequencies --  1309.4235              1345.1252              1350.4995
 Red. masses --     3.1838                 2.5841                 2.0621
 Frc consts  --     3.2163                 2.7547                 2.2159
 IR Inten    --    45.2423                 8.8554                 4.4423

                    67                     68                     69
                     A                      A                      A
 Frequencies --  1421.8738              1426.0148              1426.3705
 Red. masses --     1.2089                 1.2146                 1.2679
 Frc consts  --     1.4399                 1.4552                 1.5198
 IR Inten    --     3.8923                 3.7228                 4.6099

                    70                     71                     72
                     A                      A                      A
 Frequencies --  1429.7920              1456.1875              1458.2602
 Red. masses --     1.2332                 2.4216                 1.2307
 Frc consts  --     1.4854                 3.0255                 1.5419
 IR Inten    --     4.4429                 5.7012                17.1349

                    73                     74                     75
                     A                      A                      A
 Frequencies --  1458.7104              1507.2516              1512.8024
 Red. masses --     1.2825                 1.0485                 1.0499
 Frc consts  --     1.6079                 1.4034                 1.4157
 IR Inten    --     2.9226                 0.0402                 0.0156

                    76                     77                     78
                     A                      A                      A
 Frequencies --  1515.3563              1516.8540              1520.6500
 Red. masses --     1.0452                 1.0459                 1.0579
 Frc consts  --     1.4141                 1.4179                 1.4413
 IR Inten    --     0.1789                 0.1842                 2.6782

                    79                     80                     81
                     A                      A                      A
 Frequencies --  1520.9985              1528.8136              1531.4904
 Red. masses --     1.0453                 1.0495                 1.0543
 Frc consts  --     1.4248                 1.4453                 1.4569
 IR Inten    --     0.0995                 5.5781                 7.6628

                    82                     83                     84
                     A                      A                      A
 Frequencies --  1534.4028              1538.0929              1549.5102
 Red. masses --     1.0712                 1.0497                 1.0973
 Frc consts  --     1.4859                 1.4632                 1.5522
 IR Inten    --    11.2328                 5.1410                 4.0594

                    85                     86                     87
                     A                      A                      A
 Frequencies --  1550.4811              1560.0369              1637.6251
 Red. masses --     1.0652                 2.0917                 6.7076
 Frc consts  --     1.5087                 2.9992                10.5985
 IR Inten    --    42.6386                84.9247                 3.7668

                    88                     89                     90
                     A                      A                      A
 Frequencies --  1666.1793              1830.2466              3042.7605
 Red. masses --     5.8103                12.6740                 1.0349
 Frc consts  --     9.5036                25.0141                 5.6454
 IR Inten    --    10.7763               178.9805                26.3796

                    91                     92                     93
                     A                      A                      A
 Frequencies --  3043.1170              3049.6887              3050.8534
 Red. masses --     1.0350                 1.0357                 1.0362
 Frc consts  --     5.6470                 5.6754                 5.6825
 IR Inten    --    25.3977                27.8525                26.7444

                    94                     95                     96
                     A                      A                      A
 Frequencies --  3052.0674              3061.1038              3108.5788
 Red. masses --     1.0362                 1.0367                 1.1019
 Frc consts  --     5.6871                 5.7233                 6.2739
 IR Inten    --    11.0029                28.6253                 3.4331

                    97                     98                     99
                     A                      A                      A
 Frequencies --  3108.6101              3112.9718              3114.8785
 Red. masses --     1.1023                 1.1032                 1.1030
 Frc consts  --     6.2762                 6.2985                 6.3052
 IR Inten    --     3.3273                11.6253                19.1594

                   100                    101                    102
                     A                      A                      A
 Frequencies --  3115.0543              3116.7981              3120.3279
 Red. masses --     1.1023                 1.1013                 1.1024
 Frc consts  --     6.3022                 6.3034                 6.3242
 IR Inten    --    29.3127               101.1045                26.6958

                   103                    104                    105
                     A                      A                      A
 Frequencies --  3122.2186              3128.5146              3138.7361
 Red. masses --     1.1019                 1.1016                 1.1026
 Frc consts  --     6.3286                 6.3525                 6.4002
 IR Inten    --    40.3052                40.7892                11.7365

                   106                    107                    108
                     A                      A                      A
 Frequencies --  3140.1128              3143.5992              3192.9861
 Red. masses --     1.1018                 1.1008                 1.0872
 Frc consts  --     6.4008                 6.4096                 6.5308
 IR Inten    --    12.7791                43.6544                15.1237

                   109                    110                    111
                     A                      A                      A
 Frequencies --  3214.1548              3221.0430              3243.7891
 Red. masses --     1.0939                 1.0877                 1.0937
 Frc consts  --     6.6582                 6.6491                 6.7804
 IR Inten    --    12.1341                 7.1186                 4.6105

 - Thermochemistry -
 -------------------
 Temperature   298.150 Kelvin.  Pressure   1.00000 Atm.
 Atom     1 has atomic number  8 and mass  15.99491

 Molecular mass:   234.16198 amu.
 Principal axes and moments of inertia in atomic units:
                           1         2         3
     Eigenvalues --  1290.987729935.82013**********
           X            0.99999   0.00363   0.00231
           Y           -0.00352   0.99899  -0.04478
           Z           -0.00247   0.04477   0.99899
 This molecule is an asymmetric top.
 Rotational symmetry number  1.
 Warning -- assumption of classical behavior for rotation
           may cause significant error
 Rotational temperatures (Kelvin)      0.06709     0.00872     0.00843
 Rotational constants (GHZ):           1.39795     0.18164     0.17562
 Zero-point vibrational energy     894469.8 (Joules/Mol)
                                  213.78342 (Kcal/Mol)
 Warning -- explicit consideration of  30 degrees of freedom as
           vibrations may cause significant error
 Vibrational temperatures:     29.76    47.59    61.06    78.07    99.40
          (Kelvin)            171.14   257.04   274.92   293.74   318.68
                              341.23   369.58   380.60   397.19   409.75
                              438.78   460.55   480.56   503.84   508.74
                              529.64   538.98   579.27   609.49   639.40
                              656.72   683.49   773.96   809.78   853.39
                              939.60   984.64  1063.43  1092.32  1159.28
                             1184.27  1200.61  1224.34  1246.70  1306.85
                             1348.05  1363.66  1364.21  1376.37  1379.40
                             1382.38  1403.15  1410.93  1492.96  1518.20
                             1523.39  1526.02  1528.35  1632.13  1650.55
                             1661.70  1737.65  1782.78  1786.92  1788.34
                             1793.55  1820.50  1869.32  1883.97  1935.33
                             1943.07  2045.76  2051.71  2052.23  2057.15
                             2095.13  2098.11  2098.76  2168.60  2176.58
                             2180.26  2182.41  2187.87  2188.37  2199.62
                             2203.47  2207.66  2212.97  2229.40  2230.79
                             2244.54  2356.17  2397.26  2633.31  4377.85
                             4378.36  4387.82  4389.49  4391.24  4404.24
                             4472.55  4472.59  4478.87  4481.61  4481.86
                             4484.37  4489.45  4492.17  4501.23  4515.94
                             4517.92  4522.93  4593.99  4624.45  4634.36
                             4667.08

 Zero-point correction=                           0.340686 (Hartree/Particle)
 Thermal correction to Energy=                    0.359168
 Thermal correction to Enthalpy=                  0.360112
 Thermal correction to Gibbs Free Energy=         0.293634
 Sum of electronic and zero-point Energies=           -734.981462
 Sum of electronic and thermal Energies=              -734.962979
 Sum of electronic and thermal Enthalpies=            -734.962035
 Sum of electronic and thermal Free Energies=         -735.028513

                     E (Thermal)             CV                S
                      KCal/Mol        Cal/Mol-Kelvin    Cal/Mol-Kelvin
 Total                  225.381             70.907            139.916
 Electronic               0.000              0.000              0.000
 Translational            0.889              2.981             42.254
 Rotational               0.889              2.981             33.244
 Vibrational            223.604             64.945             64.418
 Vibration     1          0.593              1.986              6.567
 Vibration     2          0.594              1.983              5.636
 Vibration     3          0.595              1.980              5.142
 Vibration     4          0.596              1.976              4.656
 Vibration     5          0.598              1.969              4.179
 Vibration     6          0.609              1.934              3.117
 Vibration     7          0.629              1.869              2.342
 Vibration     8          0.634              1.852              2.217
 Vibration     9          0.640              1.834              2.095
 Vibration    10          0.648              1.808              1.947
 Vibration    11          0.656              1.784              1.824
 Vibration    12          0.666              1.751              1.683
 Vibration    13          0.671              1.738              1.632
 Vibration    14          0.678              1.718              1.558
 Vibration    15          0.683              1.702              1.505
 Vibration    16          0.696              1.664              1.389
 Vibration    17          0.706              1.635              1.310
 Vibration    18          0.716              1.608              1.241
 Vibration    19          0.727              1.575              1.165
 Vibration    20          0.730              1.568              1.150
 Vibration    21          0.741              1.538              1.088
 Vibration    22          0.746              1.524              1.061
 Vibration    23          0.768              1.464              0.953
 Vibration    24          0.786              1.419              0.880
 Vibration    25          0.804              1.373              0.813
 Vibration    26          0.815              1.347              0.777
 Vibration    27          0.832              1.305              0.724
 Vibration    28          0.893              1.166              0.570
 Vibration    29          0.919              1.112              0.518
 Vibration    30          0.951              1.046              0.462

 Optimization completed.
    -- Stationary point found.
 Normal termination of Gaussian 09 at Wed Sep 29 09:25:23 2021.
 Gaussian 09:  AM64L-G09RevA.02 11-Jun-2009

 ----------------------------------------------------------------------
 #p TD(NStates=10, Root=1) b3lyp/6-31G* volume pop=NPA density=current
 Geom=AllCheck Guess=Read
 ----------------------------------------------------------------------

 O=C(C(C)(C)C)Oc1ccc(cc1)C(C)(C)C_conf_0
 ---------------------------------------
 Redundant internal coordinates taken from checkpoint file:
 C15H22O2_1360_conf_0.chk
 Charge =  0 Multiplicity = 1

                         Standard orientation:
 ---------------------------------------------------------------------
 Center     Atomic      Atomic             Coordinates (Angstroms)
 Number     Number       Type             X           Y           Z
 ---------------------------------------------------------------------
      1          8           0        2.260250   -1.357128   -0.921453
      2          6           0        2.575545   -0.393569   -0.266144
      3          6           0        4.009131    0.064284    0.025441
      4          6           0        4.981890   -0.916196   -0.648330
      5          6           0        4.211139    1.488050   -0.540513
      6          6           0        4.234285    0.073777    1.554096
      7          8           0        1.671882    0.453258    0.325235
      8          6           0        0.296757    0.244660    0.193625
      9          6           0       -0.312134   -0.980492    0.443952
     10          6           0       -1.703688   -1.076832    0.367218
     11          6           0       -2.510322    0.024832    0.051200
     12          6           0       -1.857678    1.246198   -0.189081
     13          6           0       -0.472475    1.362550   -0.121704
     14          6           0       -4.045003   -0.057893   -0.038154
     15          6           0       -4.573066   -1.473101    0.265072
     16          6           0       -4.674777    0.919358    0.982863
     17          6           0       -4.499537    0.329886   -1.465361
     18          1           0        4.827474   -0.947291   -1.731031
     19          1           0        4.847959   -1.932978   -0.266848
     20          1           0        6.014687   -0.605986   -0.453573
     21          1           0        4.042546    1.512222   -1.623372
     22          1           0        5.240479    1.815263   -0.353799
     23          1           0        3.531728    2.204360   -0.070415
     24          1           0        4.087485   -0.924339    1.983006
     25          1           0        3.551702    0.766416    2.054081
     26          1           0        5.262656    0.384463    1.771875
     27          1           0        0.285079   -1.851044    0.685427
     28          1           0       -2.154112   -2.043383    0.562932
     29          1           0       -2.436954    2.131471   -0.435382
     30          1           0        0.020801    2.311904   -0.306617
     31          1           0       -4.309287   -1.799365    1.277686
     32          1           0       -4.187130   -2.213605   -0.444738
     33          1           0       -5.666321   -1.483174    0.190140
     34          1           0       -4.374038    0.665128    2.005673
     35          1           0       -5.769429    0.874883    0.928967
     36          1           0       -4.374721    1.955651    0.794660
     37          1           0       -4.074645   -0.352140   -2.210496
     38          1           0       -4.190804    1.346955   -1.729467
     39          1           0       -5.592595    0.282478   -1.544049
 ---------------------------------------------------------------------

 SCF Done:  E(RB3LYP) =  -735.322147133     A.U. after    1 cycles

 Excitation energies and oscillator strengths:

 Excited State   1:      Singlet-A      5.2648 eV  235.50 nm  f=0.0036  <S**2>=0.000
      63 -> 65         0.43489
      63 -> 67         0.12059
      64 -> 65         0.13483
      64 -> 66         0.51438
 This state for optimization and/or second-order correction.
 Total Energy, E(TD-HF/TD-KS) =  -735.128669376
 Copying the excited state density for this state as the 1-particle RhoCI density.

 Excited State   2:      Singlet-A      5.4784 eV  226.31 nm  f=0.1533  <S**2>=0.000
      62 -> 65         0.29959
      62 -> 67        -0.16835
      63 -> 66        -0.12179
      63 -> 67        -0.11144
      64 -> 65         0.52284
      64 -> 66        -0.21382
      64 -> 67        -0.15846

 Excited State   3:      Singlet-A      5.5502 eV  223.39 nm  f=0.0662  <S**2>=0.000
      62 -> 65         0.45755
      62 -> 67        -0.22965
      63 -> 65         0.18132
      63 -> 67        -0.16899
      64 -> 65        -0.38878

 Excited State   4:      Singlet-A      6.2064 eV  199.77 nm  f=0.0011  <S**2>=0.000
      63 -> 66        -0.39245
      64 -> 67         0.57083

 Excited State   5:      Singlet-A      6.3119 eV  196.43 nm  f=0.0357  <S**2>=0.000
      62 -> 65        -0.28732
      62 -> 67         0.12586
      63 -> 65         0.42347
      63 -> 66        -0.10678
      63 -> 67        -0.38969
      64 -> 66        -0.23412

 Excited State   6:      Singlet-A      6.5237 eV  190.05 nm  f=0.1445  <S**2>=0.000
      62 -> 65         0.14820
      62 -> 66         0.61251
      63 -> 66         0.19742
      64 -> 65         0.10445
      64 -> 67         0.17674

 Excited State   7:      Singlet-A      6.7476 eV  183.75 nm  f=0.0295  <S**2>=0.000
      61 -> 65         0.10847
      62 -> 65         0.24446
      62 -> 66        -0.14685
      62 -> 67         0.51889
      63 -> 65         0.17162
      63 -> 67         0.27583
      64 -> 66        -0.14995

 Excited State   8:      Singlet-A      6.9809 eV  177.61 nm  f=0.7499  <S**2>=0.000
      61 -> 65        -0.26403
      62 -> 66        -0.26314
      63 -> 66         0.47868
      64 -> 65         0.14976
      64 -> 67         0.26984

 Excited State   9:      Singlet-A      7.1245 eV  174.03 nm  f=0.1737  <S**2>=0.000
      61 -> 66         0.26305
      62 -> 65        -0.15088
      62 -> 67        -0.29931
      63 -> 65         0.18392
      63 -> 67         0.42318
      64 -> 66        -0.28542

 Excited State  10:      Singlet-A      7.3639 eV  168.37 nm  f=0.0971  <S**2>=0.000
      59 -> 65         0.13038
      60 -> 65         0.13529
      61 -> 65         0.55724
      61 -> 66         0.15330
      61 -> 67         0.15987
      62 -> 66        -0.10258
      63 -> 66         0.16079
      64 -> 67         0.13016

 The electronic state is 1-A.
 Alpha  occ. eigenvalues --  -19.19752 -19.13848 -10.31471 -10.24658 -10.21329
 Alpha  occ. eigenvalues --  -10.20403 -10.19224 -10.18999 -10.18864 -10.18837
 Alpha  occ. eigenvalues --  -10.18713 -10.18205 -10.18196 -10.17428 -10.17414
 Alpha  occ. eigenvalues --  -10.17378 -10.17374  -1.10398  -1.02153  -0.85938
 Alpha  occ. eigenvalues --   -0.82544  -0.80981  -0.74742  -0.73846  -0.69153
 Alpha  occ. eigenvalues --   -0.68674  -0.68497  -0.68313  -0.65804  -0.61058
 Alpha  occ. eigenvalues --   -0.59510  -0.55589  -0.54726  -0.49105  -0.48606
 Alpha  occ. eigenvalues --   -0.47535  -0.47238  -0.45089  -0.44793  -0.43751
 Alpha  occ. eigenvalues --   -0.43303  -0.42949  -0.42793  -0.42172  -0.40743
 Alpha  occ. eigenvalues --   -0.39740  -0.39299  -0.39010  -0.38402  -0.37514
 Alpha  occ. eigenvalues --   -0.36823  -0.36533  -0.36228  -0.35798  -0.34787
 Alpha  occ. eigenvalues --   -0.33564  -0.33378  -0.32918  -0.32353  -0.31941
 Alpha  occ. eigenvalues --   -0.30919  -0.26951  -0.24817  -0.23023
 Alpha virt. eigenvalues --   -0.00692  -0.00012   0.02170   0.07918   0.08351
 Alpha virt. eigenvalues --    0.10710   0.12307   0.12712   0.13315   0.14313
 Alpha virt. eigenvalues --    0.14852   0.14891   0.15221   0.15455   0.15682

 Mulliken atomic charges:
              1
     1  O   -0.456547
     2  C    0.616498
     3  C   -0.005479
     4  C   -0.434560
     5  C   -0.450167
     6  C   -0.450956
     7  O   -0.516609
     8  C    0.344845
     9  C   -0.151736
    10  C   -0.215252
    11  C    0.190778
    12  C   -0.210894
    13  C   -0.167678
    14  C    0.014231
    15  C   -0.457031
    16  C   -0.438801
    17  C   -0.438581
    18  H    0.156681
    19  H    0.154710
    20  H    0.136523
    21  H    0.151517
    22  H    0.146779
    23  H    0.160393
    24  H    0.149744
    25  H    0.163235
    26  H    0.146700
    27  H    0.150966
    28  H    0.135092
    29  H    0.129464
    30  H    0.140144
    31  H    0.145991
    32  H    0.148086
    33  H    0.141853
    34  H    0.149092
    35  H    0.140505
    36  H    0.144383
    37  H    0.151316
    38  H    0.144457
    39  H    0.140308
 Sum of Mulliken atomic charges =  -0.00000

 Dipole moment (field-independent basis, Debye):
    X=             -0.4605    Y=              1.2845    Z=              0.9239  Tot=              1.6479
 Quadrupole moment (field-independent basis, Debye-Ang):
   XX=            -91.1481   YY=           -102.9626   ZZ=           -106.3886
   XY=              3.2887   XZ=              2.5764   YZ=             -3.9938

 Summary of Natural Population Analysis:

                                       Natural Population
                Natural  -----------------------------------------------
    Atom  No    Charge         Core      Valence    Rydberg      Total
 -----------------------------------------------------------------------
      O    1   -0.56214      1.99977     6.54230    0.02007     8.56214
      C    2    0.80888      1.99928     3.14301    0.04883     5.19112
      C    3   -0.14797      1.99905     4.13638    0.01254     6.14797
      C    4   -0.66980      1.99939     4.65937    0.01104     6.66980
      C    5   -0.66929      1.99938     4.66010    0.00981     6.66929
      C    6   -0.66984      1.99938     4.66068    0.00977     6.66984
      O    7   -0.52235      1.99969     6.51139    0.01126     8.52235
      C    8    0.31238      1.99872     3.66514    0.02377     5.68762
      C    9   -0.27881      1.99904     4.26147    0.01830     6.27881
      C   10   -0.22051      1.99907     4.20469    0.01674     6.22051
      C   11    0.00199      1.99903     3.97893    0.02004     5.99801
      C   12   -0.24474      1.99908     4.22866    0.01700     6.24474
      C   13   -0.25329      1.99904     4.23543    0.01882     6.25329
      C   14   -0.07424      1.99911     4.06215    0.01297     6.07424
      C   15   -0.67758      1.99939     4.66791    0.01028     6.67758
      C   16   -0.66242      1.99937     4.65305    0.01001     6.66242
      C   17   -0.66241      1.99937     4.65303    0.01002     6.66241
      H   18    0.24311      0.00000     0.75584    0.00105     0.75689
      H   19    0.24198      0.00000     0.75698    0.00104     0.75802
      H   20    0.22952      0.00000     0.76956    0.00092     0.77048
      H   21    0.23630      0.00000     0.76278    0.00093     0.76370
      H   22    0.23369      0.00000     0.76520    0.00111     0.76631
      H   23    0.24180      0.00000     0.75705    0.00115     0.75820
      H   24    0.23540      0.00000     0.76365    0.00095     0.76460
      H   25    0.24343      0.00000     0.75552    0.00105     0.75657
      H   26    0.23369      0.00000     0.76508    0.00124     0.76631
      H   27    0.24961      0.00000     0.74930    0.00108     0.75039
      H   28    0.23342      0.00000     0.76556    0.00102     0.76658
      H   29    0.22788      0.00000     0.77117    0.00095     0.77212
      H   30    0.24027      0.00000     0.75851    0.00122     0.75973
      H   31    0.23348      0.00000     0.76526    0.00126     0.76652
      H   32    0.23446      0.00000     0.76429    0.00124     0.76554
      H   33    0.23639      0.00000     0.76269    0.00092     0.76361
      H   34    0.23641      0.00000     0.76256    0.00103     0.76359
      H   35    0.23075      0.00000     0.76802    0.00123     0.76925
      H   36    0.23105      0.00000     0.76795    0.00100     0.76895
      H   37    0.23762      0.00000     0.76137    0.00101     0.76238
      H   38    0.23127      0.00000     0.76770    0.00103     0.76873
      H   39    0.23060      0.00000     0.76818    0.00122     0.76940
 =======================================================================
   * Total *    0.00000     33.98718    93.70791    0.30492   128.00000

 Normal termination of Gaussian 09 at Wed Sep 29 16:33:02 2021.
