 Gaussian 09, Revision A.02,

 -----------------------------------
 #p opt b3lyp/6-31G* scf=(xqc,tight)
 -----------------------------------

 ---------------------------------
 COc1ccc(c2c1cccc2)N1CCOCC1_conf_0
 ---------------------------------
 Symbolic Z-matrix:
 Charge =  0 Multiplicity = 1

 SCF Done:  E(RB3LYP) =  -787.001935885     A.U. after   14 cycles
 SCF Done:  E(RB3LYP) =  -787.008011906     A.U. after   13 cycles
 SCF Done:  E(RB3LYP) =  -787.008635091     A.U. after   12 cycles
 SCF Done:  E(RB3LYP) =  -787.008707421     A.U. after   11 cycles
 SCF Done:  E(RB3LYP) =  -787.008721653     A.U. after   10 cycles
 SCF Done:  E(RB3LYP) =  -787.008722937     A.U. after    8 cycles
 SCF Done:  E(RB3LYP) =  -787.008723221     A.U. after    7 cycles
 SCF Done:  E(RB3LYP) =  -787.008723309     A.U. after    7 cycles
 Optimization completed.
    -- Stationary point found.
 Normal termination of Gaussian 09 at Thu Sep 30 20:32:18 2021.

 ----------------------------------------------------------------------
 #p freq b3lyp/6-31G* volume NMR pop=NPA density=current Geom=AllCheck
 Guess=Read
 ----------------------------------------------------------------------

 COc1ccc(c2c1cccc2)N1CCOCC1_conf_0
 ---------------------------------
 Redundant internal coordinates taken from checkpoint file:
 C15H17NO2_5e72_conf_0.chk
 Charge =  0 Multiplicity = 1

 SCF Done:  E(RB3LYP) =  -787.008723309     A.U. after    1 cycles

  1  C    Isotropic =   137.1908   Anisotropy =    65.9939

  2  O    Isotropic =   241.8883   Anisotropy =    96.2117

  3  C    Isotropic =    44.7395   Anisotropy =   115.0884

  4  C    Isotropic =    91.9494   Anisotropy =   131.6765

  5  C    Isotropic =    78.2293   Anisotropy =   154.2221

  6  C    Isotropic =    53.3922   Anisotropy =   128.8588

  7  C    Isotropic =    65.6639   Anisotropy =   182.5306

  8  C    Isotropic =    69.6897   Anisotropy =   173.1403

  9  C    Isotropic =    71.7188   Anisotropy =   167.2637

 10  C    Isotropic =    71.4095   Anisotropy =   161.2648

 11  C    Isotropic =    70.2362   Anisotropy =   161.7722

 12  C    Isotropic =    72.4352   Anisotropy =   161.5756

 13  N    Isotropic =   200.6775   Anisotropy =    29.2922

 14  C    Isotropic =   139.8413   Anisotropy =    23.0669

 15  C    Isotropic =   123.7748   Anisotropy =    45.6690

 16  O    Isotropic =   290.5242   Anisotropy =    55.0264

 17  C    Isotropic =   123.7201   Anisotropy =    47.3544

 18  C    Isotropic =   135.1423   Anisotropy =    35.3810

 19  H    Isotropic =    28.1145   Anisotropy =     8.6677

 20  H    Isotropic =    28.4940   Anisotropy =     8.5493

 21  H    Isotropic =    28.4977   Anisotropy =     8.5409

 22  H    Isotropic =    25.9304   Anisotropy =     7.9055

 23  H    Isotropic =    25.3574   Anisotropy =    10.3102

 24  H    Isotropic =    23.9582   Anisotropy =     9.9293

 25  H    Isotropic =    24.8168   Anisotropy =     5.1876

 26  H    Isotropic =    24.7924   Anisotropy =     6.0298

 27  H    Isotropic =    23.9899   Anisotropy =    11.2251

 28  H    Isotropic =    28.8228   Anisotropy =     7.5147

 29  H    Isotropic =    29.6722   Anisotropy =     6.3633

 30  H    Isotropic =    28.3795   Anisotropy =     7.4661

 31  H    Isotropic =    28.3129   Anisotropy =     6.6067

 32  H    Isotropic =    28.5120   Anisotropy =     7.5041

 33  H    Isotropic =    28.2084   Anisotropy =     7.3375

 34  H    Isotropic =    29.5051   Anisotropy =     7.1534

 35  H    Isotropic =    29.3519   Anisotropy =     4.2023

  Exact polarizability: 220.395   0.305 203.634   4.219  -1.516  93.835
 Approx polarizability: 316.809   5.894 346.369   8.178  -7.325 141.741

                     1                      2                      3
                     A                      A                      A
 Frequencies --    46.5017                56.1278                80.6377
 Red. masses --     3.0634                 4.2923                 4.5528
 Frc consts  --     0.0039                 0.0080                 0.0174
 IR Inten    --     0.3267                 0.3826                 0.6300

                     4                      5                      6
                     A                      A                      A
 Frequencies --    92.5228               140.4878               170.8924
 Red. masses --     3.6124                 3.7557                 3.8451
 Frc consts  --     0.0182                 0.0437                 0.0662
 IR Inten    --     3.0368                 1.6995                 0.3204

                     7                      8                      9
                     A                      A                      A
 Frequencies --   193.6588               214.0575               234.8521
 Red. masses --     3.7449                 3.9134                 2.4233
 Frc consts  --     0.0828                 0.1057                 0.0787
 IR Inten    --     1.3626                 5.8019                 0.8950

                    10                     11                     12
                     A                      A                      A
 Frequencies --   259.8479               264.4406               285.5365
 Red. masses --     1.7218                 2.6832                 2.1098
 Frc consts  --     0.0685                 0.1106                 0.1013
 IR Inten    --     0.5030                 0.6510                 0.7646

                    13                     14                     15
                     A                      A                      A
 Frequencies --   327.3467               381.0591               419.6673
 Red. masses --     3.1087                 3.3441                 3.0910
 Frc consts  --     0.1963                 0.2861                 0.3207
 IR Inten    --     7.4075                 1.0150                 1.1691

                    16                     17                     18
                     A                      A                      A
 Frequencies --   433.6942               448.2263               479.2890
 Red. masses --     2.7171                 3.3316                 5.1724
 Frc consts  --     0.3011                 0.3944                 0.7001
 IR Inten    --     0.3652                 2.4626                 1.4466

                    19                     20                     21
                     A                      A                      A
 Frequencies --   483.5156               497.3644               505.0833
 Red. masses --     3.5195                 3.5801                 5.4615
 Frc consts  --     0.4848                 0.5218                 0.8209
 IR Inten    --     1.5648                 5.4675                 5.8723

                    22                     23                     24
                     A                      A                      A
 Frequencies --   567.7928               607.8845               634.3571
 Red. masses --     3.6081                 4.6415                 3.2794
 Frc consts  --     0.6854                 1.0105                 0.7775
 IR Inten    --     2.6810                 6.0684                 2.7652

                    25                     26                     27
                     A                      A                      A
 Frequencies --   643.7948               657.6887               730.7280
 Red. masses --     2.8982                 3.7075                 4.4924
 Frc consts  --     0.7077                 0.9449                 1.4133
 IR Inten    --     1.9315                 2.4226                 2.6463

                    28                     29                     30
                     A                      A                      A
 Frequencies --   733.5355               789.1630               798.5448
 Red. masses --     3.4507                 1.3809                 3.8011
 Frc consts  --     1.0940                 0.5067                 1.4281
 IR Inten    --    15.1796                48.5879                 0.8982

                    31                     32                     33
                     A                      A                      A
 Frequencies --   806.3447               829.8374               859.7064
 Red. masses --     4.9569                 1.5138                 3.8287
 Frc consts  --     1.8989                 0.6142                 1.6672
 IR Inten    --     1.8377                25.9193                 1.2734

                    34                     35                     36
                     A                      A                      A
 Frequencies --   877.4228               890.7386               910.2398
 Red. masses --     1.5742                 1.5672                 1.8371
 Frc consts  --     0.7140                 0.7326                 0.8968
 IR Inten    --     0.3247                 0.5399                18.3630

                    37                     38                     39
                     A                      A                      A
 Frequencies --   914.3120               937.1506               970.0808
 Red. masses --     2.3203                 2.0645                 1.3305
 Frc consts  --     1.1428                 1.0683                 0.7377
 IR Inten    --    33.1972                 6.8978                 1.0050

                    40                     41                     42
                     A                      A                      A
 Frequencies --   996.8727              1012.4636              1035.2526
 Red. masses --     1.2619                 4.5064                 2.7436
 Frc consts  --     0.7388                 2.7217                 1.7325
 IR Inten    --     0.3443                17.8539                 5.9464

                    43                     44                     45
                     A                      A                      A
 Frequencies --  1051.9107              1060.3965              1105.0052
 Red. masses --     2.7571                 2.2316                 1.8321
 Frc consts  --     1.7975                 1.4785                 1.3180
 IR Inten    --    33.9343                 7.1678                 6.7773

                    46                     47                     48
                     A                      A                      A
 Frequencies --  1109.4974              1135.5418              1150.6966
 Red. masses --     2.1964                 3.2157                 2.3672
 Frc consts  --     1.5930                 2.4431                 1.8467
 IR Inten    --     3.4561               115.8291                13.7757

                    49                     50                     51
                     A                      A                      A
 Frequencies --  1151.9830              1182.6641              1186.4148
 Red. masses --     4.8646                 1.5915                 1.2713
 Frc consts  --     3.8035                 1.3116                 1.0543
 IR Inten    --   102.2880                 7.6391                 0.9753

                    52                     53                     54
                     A                      A                      A
 Frequencies --  1190.3832              1202.0829              1206.2837
 Red. masses --     1.3282                 3.1187                 1.6676
 Frc consts  --     1.1089                 2.6552                 1.4297
 IR Inten    --    17.7659                 4.7166                 1.7379

                    55                     56                     57
                     A                      A                      A
 Frequencies --  1234.1799              1243.3441              1256.0382
 Red. masses --     1.3792                 1.1195                 1.7767
 Frc consts  --     1.2377                 1.0197                 1.6515
 IR Inten    --     0.7905                 2.8823                40.6961

                    58                     59                     60
                     A                      A                      A
 Frequencies --  1277.0174              1295.6778              1307.7244
 Red. masses --     2.1001                 1.4459                 1.8886
 Frc consts  --     2.0178                 1.4302                 1.9030
 IR Inten    --    66.5562                52.8125               159.5013

                    61                     62                     63
                     A                      A                      A
 Frequencies --  1339.3561              1357.6789              1374.6577
 Red. masses --     1.3073                 1.6393                 1.3194
 Frc consts  --     1.3817                 1.7803                 1.4690
 IR Inten    --    17.5408                18.8117                 1.6860

                    64                     65                     66
                     A                      A                      A
 Frequencies --  1382.0322              1408.9176              1415.1189
 Red. masses --     3.3512                 1.8193                 2.1027
 Frc consts  --     3.7713                 2.1278                 2.4809
 IR Inten    --    15.4926                22.2385                69.5988

                    67                     68                     69
                     A                      A                      A
 Frequencies --  1427.7446              1434.2693              1445.0851
 Red. masses --     1.8146                 2.1872                 1.4041
 Frc consts  --     2.1794                 2.6509                 1.7276
 IR Inten    --    25.9160                63.3342                 9.4333

                    70                     71                     72
                     A                      A                      A
 Frequencies --  1475.3550              1496.4894              1510.0227
 Red. masses --     2.2351                 1.5361                 1.1260
 Frc consts  --     2.8664                 2.0268                 1.5127
 IR Inten    --    32.2012                30.7721                 8.2947

                    73                     74                     75
                     A                      A                      A
 Frequencies --  1512.2064              1512.9906              1519.4343
 Red. masses --     1.6562                 1.0873                 1.0499
 Frc consts  --     2.2314                 1.4665                 1.4281
 IR Inten    --    37.8741                 0.9932                 5.2990

                    76                     77                     78
                     A                      A                      A
 Frequencies --  1521.9805              1528.3697              1536.6494
 Red. masses --     1.1363                 1.1101                 1.0724
 Frc consts  --     1.5509                 1.5279                 1.4920
 IR Inten    --     4.5155                 1.5771                18.3277

                    79                     80                     81
                     A                      A                      A
 Frequencies --  1566.4184              1640.2397              1649.0046
 Red. masses --     3.5668                 6.8835                 5.0918
 Frc consts  --     5.1564                10.9113                 8.1577
 IR Inten    --     5.9178                14.2680                92.2010

                    82                     83                     84
                     A                      A                      A
 Frequencies --  1676.5065              2948.0905              2961.9989
 Red. masses --     6.1866                 1.0718                 1.0730
 Frc consts  --    10.2450                 5.4884                 5.5466
 IR Inten    --     5.9265                42.2293                60.0492

                    85                     86                     87
                     A                      A                      A
 Frequencies --  2992.0403              3001.7537              3025.3618
 Red. masses --     1.0701                 1.0698                 1.0345
 Frc consts  --     5.6442                 5.6792                 5.5788
 IR Inten    --    33.8956                86.3708                66.7637

                    88                     89                     90
                     A                      A                      A
 Frequencies --  3084.1204              3096.5531              3109.0624
 Red. masses --     1.1066                 1.0905                 1.0944
 Frc consts  --     6.2016                 6.1610                 6.2328
 IR Inten    --    42.1577                25.5854                32.9258

                    91                     92                     93
                     A                      A                      A
 Frequencies --  3110.5314              3112.2662              3156.8605
 Red. masses --     1.0942                 1.0902                 1.0999
 Frc consts  --     6.2377                 6.2219                 6.4583
 IR Inten    --    58.5771                18.2388                25.9016

                    94                     95                     96
                     A                      A                      A
 Frequencies --  3183.2192              3199.1769              3205.0177
 Red. masses --     1.0864                 1.0918                 1.0878
 Frc consts  --     6.4858                 6.5838                 6.5837
 IR Inten    --     7.3439                27.2512                15.8591

                    97                     98                     99
                     A                      A                      A
 Frequencies --  3223.6126              3227.2360              3231.0547
 Red. masses --     1.0921                 1.0917                 1.0928
 Frc consts  --     6.6862                 6.6988                 6.7216
 IR Inten    --    13.0385                14.7397                 8.7441

 - Thermochemistry -
 -------------------
 Temperature   298.150 Kelvin.  Pressure   1.00000 Atm.
 Atom     1 has atomic number  6 and mass  12.00000

 Molecular mass:   243.12593 amu.
 Principal axes and moments of inertia in atomic units:
                           1         2         3
     Eigenvalues --  2347.270306886.458058736.97021
           X            0.99992  -0.01204   0.00231
           Y            0.01203   0.99992   0.00418
           Z           -0.00236  -0.00415   0.99999
 This molecule is an asymmetric top.
 Rotational symmetry number  1.
 Warning -- assumption of classical behavior for rotation
           may cause significant error
 Rotational temperatures (Kelvin)      0.03690     0.01258     0.00991
 Rotational constants (GHZ):           0.76887     0.26207     0.20656
 Zero-point vibrational energy     778553.9 (Joules/Mol)
                                  186.07884 (Kcal/Mol)
 Warning -- explicit consideration of  23 degrees of freedom as
           vibrations may cause significant error
 Vibrational temperatures:     66.91    80.76   116.02   133.12   202.13
          (Kelvin)            245.88   278.63   307.98   337.90   373.86
                              380.47   410.82   470.98   548.26   603.81
                              623.99   644.90   689.59   695.67   715.60
                              726.70   816.93   874.61   912.70   926.28
                              946.27  1051.35  1055.39  1135.43  1148.93
                             1160.15  1193.95  1236.92  1262.41  1281.57
                             1309.63  1315.49  1348.35  1395.73  1434.28
                             1456.71  1489.50  1513.46  1525.67  1589.85
                             1596.32  1633.79  1655.59  1657.44  1701.59
                             1706.98  1712.69  1729.53  1735.57  1775.71
                             1788.89  1807.16  1837.34  1864.19  1881.52
                             1927.03  1953.39  1977.82  1988.43  2027.12
                             2036.04  2054.20  2063.59  2079.15  2122.70
                             2153.11  2172.58  2175.73  2176.85  2186.12
                             2189.79  2198.98  2210.89  2253.72  2359.94
                             2372.55  2412.12  4241.64  4261.65  4304.87
                             4318.85  4352.82  4437.36  4455.24  4473.24
                             4475.36  4477.85  4542.01  4579.94  4602.90
                             4611.30  4638.05  4643.27  4648.76

 Zero-point correction=                           0.296536 (Hartree/Particle)
 Thermal correction to Energy=                    0.311470
 Thermal correction to Enthalpy=                  0.312414
 Thermal correction to Gibbs Free Energy=         0.254396
 Sum of electronic and zero-point Energies=           -786.712188
 Sum of electronic and thermal Energies=              -786.697254
 Sum of electronic and thermal Enthalpies=            -786.696309
 Sum of electronic and thermal Free Energies=         -786.754328

                     E (Thermal)             CV                S
                      KCal/Mol        Cal/Mol-Kelvin    Cal/Mol-Kelvin
 Total                  195.450             59.959            122.110
 Electronic               0.000              0.000              0.000
 Translational            0.889              2.981             42.366
 Rotational               0.889              2.981             33.312
 Vibrational            193.673             53.998             46.431
 Vibration     1          0.595              1.979              4.961
 Vibration     2          0.596              1.975              4.589
 Vibration     3          0.600              1.962              3.875
 Vibration     4          0.602              1.955              3.606
 Vibration     5          0.615              1.913              2.797
 Vibration     6          0.626              1.878              2.426
 Vibration     7          0.635              1.849              2.193
 Vibration     8          0.644              1.820              2.009
 Vibration     9          0.655              1.788              1.842
 Vibration    10          0.668              1.746              1.663
 Vibration    11          0.671              1.738              1.632
 Vibration    12          0.683              1.701              1.500
 Vibration    13          0.711              1.621              1.273
 Vibration    14          0.751              1.511              1.035
 Vibration    15          0.782              1.428              0.893
 Vibration    16          0.794              1.397              0.847
 Vibration    17          0.807              1.365              0.801
 Vibration    18          0.836              1.296              0.712
 Vibration    19          0.840              1.287              0.701
 Vibration    20          0.853              1.256              0.665
 Vibration    21          0.860              1.239              0.646
 Vibration    22          0.924              1.101              0.509
 Vibration    23          0.967              1.015              0.436

 Normal termination of Gaussian 09 at Thu Sep 30 22:10:02 2021.
 Gaussian 09:  AM64L-G09RevA.02 11-Jun-2009

 ----------------------------------------------------------------------
 #p TD(NStates=10, Root=1) b3lyp/6-31G* volume pop=NPA density=current
 Geom=AllCheck Guess=Read
 ----------------------------------------------------------------------

 COc1ccc(c2c1cccc2)N1CCOCC1_conf_0
 ---------------------------------
 Redundant internal coordinates taken from checkpoint file:
 C15H17NO2_5e72_conf_0.chk
 Charge =  0 Multiplicity = 1

                         Standard orientation:
 ---------------------------------------------------------------------
 Center     Atomic      Atomic             Coordinates (Angstroms)
 Number     Number       Type             X           Y           Z
 ---------------------------------------------------------------------
      1          6           0        4.408652   -2.162585    0.220739
      2          8           0        3.813922   -0.878978    0.135631
      3          6           0        2.452362   -0.804596    0.049801
      4          6           0        1.606837   -1.892420    0.023511
      5          6           0        0.204290   -1.703590   -0.037355
      6          6           0       -0.362623   -0.448272   -0.101831
      7          6           0        0.502691    0.700406   -0.133394
      8          6           0        1.918905    0.523641   -0.028958
      9          6           0        2.764797    1.662218   -0.032410
     10          6           0        2.238927    2.930302   -0.154128
     11          6           0        0.844906    3.108093   -0.296717
     12          6           0        0.000050    2.019057   -0.288416
     13          7           0       -1.775133   -0.235256   -0.146720
     14          6           0       -2.578028   -1.275949   -0.787951
     15          6           0       -4.006200   -0.762453   -0.966894
     16          8           0       -4.584911   -0.401623    0.280393
     17          6           0       -3.813499    0.602493    0.926272
     18          6           0       -2.372502    0.146697    1.143818
     19          1           0        5.484731   -1.991638    0.287548
     20          1           0        4.190797   -2.766587   -0.670178
     21          1           0        4.069578   -2.704325    1.113723
     22          1           0        1.993938   -2.903716    0.069360
     23          1           0       -0.429665   -2.584336   -0.017864
     24          1           0        3.835000    1.513180    0.055432
     25          1           0        2.898355    3.794143   -0.156118
     26          1           0        0.438181    4.108020   -0.424428
     27          1           0       -1.067490    2.146129   -0.431012
     28          1           0       -2.618121   -2.206644   -0.191557
     29          1           0       -2.137802   -1.515303   -1.762070
     30          1           0       -4.646650   -1.542571   -1.390016
     31          1           0       -4.001529    0.103433   -1.649184
     32          1           0       -4.303724    0.800652    1.884507
     33          1           0       -3.821963    1.528746    0.327228
     34          1           0       -2.361051   -0.703404    1.850620
     35          1           0       -1.786144    0.957566    1.586343
 ---------------------------------------------------------------------

 SCF Done:  E(RB3LYP) =  -787.008723309     A.U. after    2 cycles

 Excitation energies and oscillator strengths:

 Excited State   1:      Singlet-A      3.8692 eV  320.44 nm  f=0.1173  <S**2>=0.000
      64 -> 66         0.11739
      65 -> 66         0.68773
 This state for optimization and/or second-order correction.
 Total Energy, E(TD-HF/TD-KS) =  -786.866532315
 Copying the excited state density for this state as the 1-particle RhoCI density.

 Excited State   2:      Singlet-A      4.2542 eV  291.44 nm  f=0.0328  <S**2>=0.000
      63 -> 66         0.31880
      65 -> 67         0.62292

 Excited State   3:      Singlet-A      4.7606 eV  260.44 nm  f=0.0199  <S**2>=0.000
      63 -> 67         0.10536
      64 -> 66         0.67554

 Excited State   4:      Singlet-A      5.0999 eV  243.11 nm  f=0.0405  <S**2>=0.000
      63 -> 66        -0.36350
      64 -> 67         0.56249
      65 -> 67         0.18632

 Excited State   5:      Singlet-A      5.4751 eV  226.45 nm  f=0.0155  <S**2>=0.000
      61 -> 66         0.15669
      62 -> 66         0.54579
      63 -> 67         0.15321
      65 -> 68        -0.38265

 Excited State   6:      Singlet-A      5.6530 eV  219.32 nm  f=0.0876  <S**2>=0.000
      61 -> 66         0.40607
      62 -> 66        -0.36119
      63 -> 66        -0.19996
      64 -> 67        -0.17615
      65 -> 68        -0.32268

 Excited State   7:      Singlet-A      5.8233 eV  212.91 nm  f=0.2786  <S**2>=0.000
      61 -> 67        -0.19636
      62 -> 66        -0.19794
      62 -> 67        -0.30732
      63 -> 66         0.32360
      64 -> 67         0.32473
      65 -> 67        -0.17669
      65 -> 68        -0.24723

 Excited State   8:      Singlet-A      5.9605 eV  208.01 nm  f=0.1009  <S**2>=0.000
      61 -> 66         0.52626
      62 -> 66         0.10319
      64 -> 68         0.14702
      65 -> 68         0.38281

 Excited State   9:      Singlet-A      6.1817 eV  200.57 nm  f=0.4057  <S**2>=0.000
      62 -> 67         0.53756
      63 -> 66         0.28827
      63 -> 67         0.15755
      63 -> 68         0.17048
      64 -> 67         0.15178
      65 -> 67        -0.14861

 Excited State  10:      Singlet-A      6.2337 eV  198.89 nm  f=0.3171  <S**2>=0.000
      61 -> 67        -0.17237
      62 -> 68        -0.10094
      63 -> 66        -0.11317
      63 -> 67         0.60703
      64 -> 68        -0.13312
      65 -> 68         0.12161

 The electronic state is 1-A.
 Alpha  occ. eigenvalues --  -19.17905 -19.14470 -14.33419 -10.24398 -10.24211
 Alpha  occ. eigenvalues --  -10.22822 -10.22810 -10.21126 -10.21020 -10.20966
 Alpha  occ. eigenvalues --  -10.19229 -10.19186 -10.18506 -10.18453 -10.18386
 Alpha  occ. eigenvalues --  -10.18344 -10.18213 -10.18091  -1.06480  -1.03221
 Alpha  occ. eigenvalues --   -0.93010  -0.85888  -0.81152  -0.77053  -0.76760
 Alpha  occ. eigenvalues --   -0.73840  -0.72187  -0.70698  -0.66548  -0.65118
 Alpha  occ. eigenvalues --   -0.61551  -0.61079  -0.58366  -0.55816  -0.52739
 Alpha  occ. eigenvalues --   -0.52246  -0.50322  -0.49598  -0.47246  -0.46939
 Alpha  occ. eigenvalues --   -0.46449  -0.45944  -0.45575  -0.44095  -0.43493
 Alpha  occ. eigenvalues --   -0.42003  -0.41478  -0.40813  -0.40043  -0.39544
 Alpha  occ. eigenvalues --   -0.38569  -0.38405  -0.35811  -0.35546  -0.34999
 Alpha  occ. eigenvalues --   -0.33931  -0.33510  -0.32216  -0.30975  -0.30411
 Alpha  occ. eigenvalues --   -0.26208  -0.25130  -0.23843  -0.22678  -0.18739
 Alpha virt. eigenvalues --   -0.02644  -0.00419   0.04665   0.09255   0.09770
 Alpha virt. eigenvalues --    0.10249   0.10700   0.11292   0.11958   0.12676
 Alpha virt. eigenvalues --    0.13191   0.14409   0.15049   0.15428   0.16186

 Mulliken atomic charges:
              1
     1  C   -0.220432
     2  O   -0.477456
     3  C    0.320350
     4  C   -0.211766
     5  C   -0.185948
     6  C    0.214926
     7  C    0.126044
     8  C    0.064025
     9  C   -0.236333
    10  C   -0.137038
    11  C   -0.137069
    12  C   -0.269831
    13  N   -0.435217
    14  C   -0.153796
    15  C   -0.042953
    16  O   -0.463307
    17  C   -0.044341
    18  C   -0.162412
    19  H    0.176376
    20  H    0.158403
    21  H    0.158169
    22  H    0.130907
    23  H    0.123673
    24  H    0.112864
    25  H    0.102415
    26  H    0.099287
    27  H    0.094337
    28  H    0.159195
    29  H    0.174405
    30  H    0.158866
    31  H    0.144919
    32  H    0.159682
    33  H    0.146849
    34  H    0.162106
    35  H    0.190105
 Sum of Mulliken atomic charges =  -0.00000

 Dipole moment (field-independent basis, Debye):
    X=             -1.7433    Y=             -4.7572    Z=              0.2936  Tot=              5.0751
 Quadrupole moment (field-independent basis, Debye-Ang):
   XX=            -98.8161   YY=           -100.3217   ZZ=           -105.4351
   XY=            -11.4595   XZ=              2.8109   YZ=              2.3740

 Summary of Natural Population Analysis:

                                       Natural Population
                Natural  -----------------------------------------------
    Atom  No    Charge         Core      Valence    Rydberg      Total
 -----------------------------------------------------------------------
      C    1   -0.31933      1.99943     4.30569    0.01421     6.31933
      O    2   -0.48126      1.99974     6.46951    0.01201     8.48126
      C    3    0.35890      1.99872     3.62001    0.02237     5.64110
      C    4   -0.31762      1.99903     4.30499    0.01359     6.31762
      C    5   -0.24350      1.99902     4.23050    0.01398     6.24350
      C    6    0.14452      1.99890     3.83629    0.02029     5.85548
      C    7   -0.04184      1.99899     4.02785    0.01500     6.04184
      C    8   -0.07506      1.99898     4.06074    0.01534     6.07506
      C    9   -0.32394      1.99907     4.30734    0.01753     6.32394
      C   10   -0.23875      1.99910     4.22444    0.01521     6.23875
      C   11   -0.24226      1.99910     4.22739    0.01577     6.24226
      C   12   -0.34903      1.99907     4.33301    0.01694     6.34903
      N   13   -0.34788      1.99934     5.33402    0.01451     7.34788
      C   14   -0.30605      1.99932     4.29146    0.01527     6.30605
      C   15   -0.11519      1.99927     4.09521    0.02071     6.11519
      O   16   -0.57229      1.99981     6.55992    0.01255     8.57229
      C   17   -0.12106      1.99927     4.10120    0.02059     6.12106
      C   18   -0.30092      1.99929     4.28694    0.01470     6.30092
      H   19    0.23189      0.00000     0.76757    0.00054     0.76811
      H   20    0.20656      0.00000     0.79157    0.00187     0.79344
      H   21    0.20679      0.00000     0.79128    0.00193     0.79321
      H   22    0.23694      0.00000     0.76217    0.00089     0.76306
      H   23    0.23129      0.00000     0.76772    0.00099     0.76871
      H   24    0.23347      0.00000     0.76549    0.00104     0.76653
      H   25    0.22392      0.00000     0.77525    0.00083     0.77608
      H   26    0.22243      0.00000     0.77673    0.00085     0.77757
      H   27    0.21616      0.00000     0.78263    0.00121     0.78384
      H   28    0.23007      0.00000     0.76667    0.00326     0.76993
      H   29    0.25793      0.00000     0.74070    0.00137     0.74207
      H   30    0.23829      0.00000     0.76071    0.00100     0.76171
      H   31    0.20868      0.00000     0.78856    0.00276     0.79132
      H   32    0.23867      0.00000     0.76044    0.00089     0.76133
      H   33    0.20791      0.00000     0.78951    0.00259     0.79209
      H   34    0.23437      0.00000     0.76267    0.00296     0.76563
      H   35    0.26721      0.00000     0.73079    0.00200     0.73279
 =======================================================================
   * Total *   -0.00000     35.98547    93.69700    0.31753   130.00000

 Normal termination of Gaussian 09 at Fri Oct  1 03:55:57 2021.
