 Gaussian 09, Revision A.02,

 -----------------------------------
 #p opt b3lyp/6-31G* scf=(xqc,tight)
 -----------------------------------

 -----------------------------
 COc1cc2ccccc2c2c1cccc2_conf_0
 -----------------------------
 Symbolic Z-matrix:
 Charge =  0 Multiplicity = 1

 SCF Done:  E(RB3LYP) =  -654.046304312     A.U. after   14 cycles
 SCF Done:  E(RB3LYP) =  -654.053040129     A.U. after   12 cycles
 SCF Done:  E(RB3LYP) =  -654.053568871     A.U. after   12 cycles
 SCF Done:  E(RB3LYP) =  -654.053886368     A.U. after   11 cycles
 SCF Done:  E(RB3LYP) =  -654.054582676     A.U. after   12 cycles
 SCF Done:  E(RB3LYP) =  -654.055029079     A.U. after   11 cycles
 SCF Done:  E(RB3LYP) =  -654.055765803     A.U. after   12 cycles
 SCF Done:  E(RB3LYP) =  -654.056207304     A.U. after   12 cycles
 SCF Done:  E(RB3LYP) =  -654.056261056     A.U. after   11 cycles
 SCF Done:  E(RB3LYP) =  -654.056284345     A.U. after   10 cycles
 SCF Done:  E(RB3LYP) =  -654.058110754     A.U. after   13 cycles
 SCF Done:  E(RB3LYP) =  -654.061013410     A.U. after   15 cycles
 SCF Done:  E(RB3LYP) =  -654.061693861     A.U. after   15 cycles
 SCF Done:  E(RB3LYP) =  -654.061650556     A.U. after   15 cycles
 SCF Done:  E(RB3LYP) =  -654.062059665     A.U. after   15 cycles
 SCF Done:  E(RB3LYP) =  -654.062077505     A.U. after   15 cycles
 SCF Done:  E(RB3LYP) =  -654.062080758     A.U. after   15 cycles
 SCF Done:  E(RB3LYP) =  -654.062081116     A.U. after   17 cycles
 Optimization completed.
    -- Stationary point found.
 Normal termination of Gaussian 09 at Thu Sep 30 18:28:10 2021.

 ----------------------------------------------------------------------
 #p freq b3lyp/6-31G* volume NMR pop=NPA density=current Geom=AllCheck
 Guess=Read
 ----------------------------------------------------------------------

 COc1cc2ccccc2c2c1cccc2_conf_0
 -----------------------------
 Redundant internal coordinates taken from checkpoint file:
 C15H12O_d275_conf_0.chk
 Charge =  0 Multiplicity = 1

 SCF Done:  E(RB3LYP) =  -654.062081116     A.U. after    1 cycles

  1  C    Isotropic =   137.0000   Anisotropy =    66.2341

  2  O    Isotropic =   239.4534   Anisotropy =    98.9861

  3  C    Isotropic =    43.1068   Anisotropy =   113.1479

  4  C    Isotropic =    91.5534   Anisotropy =   107.7864

  5  C    Isotropic =    63.2908   Anisotropy =   189.3820

  6  C    Isotropic =    68.5394   Anisotropy =   139.7778

  7  C    Isotropic =    69.7670   Anisotropy =   162.6034

  8  C    Isotropic =    72.4616   Anisotropy =   157.3804

  9  C    Isotropic =    72.9316   Anisotropy =   160.0566

 10  C    Isotropic =    69.1232   Anisotropy =   177.8164

 11  C    Isotropic =    64.2299   Anisotropy =   180.9587

 12  C    Isotropic =    69.4950   Anisotropy =   172.3285

 13  C    Isotropic =    71.7133   Anisotropy =   167.6513

 14  C    Isotropic =    70.6951   Anisotropy =   163.1461

 15  C    Isotropic =    69.4875   Anisotropy =   162.6159

 16  C    Isotropic =    73.2101   Anisotropy =   159.7335

 17  H    Isotropic =    28.3505   Anisotropy =     8.4986

 18  H    Isotropic =    28.3505   Anisotropy =     8.4981

 19  H    Isotropic =    28.0465   Anisotropy =     8.5588

 20  H    Isotropic =    25.7823   Anisotropy =     9.6217

 21  H    Isotropic =    24.7263   Anisotropy =     7.7829

 22  H    Isotropic =    24.8080   Anisotropy =     5.0379

 23  H    Isotropic =    24.8009   Anisotropy =     5.3193

 24  H    Isotropic =    23.8247   Anisotropy =     9.5575

 25  H    Isotropic =    23.8596   Anisotropy =    10.4984

 26  H    Isotropic =    24.6877   Anisotropy =     5.4308

 27  H    Isotropic =    24.6093   Anisotropy =     5.5151

 28  H    Isotropic =    23.7553   Anisotropy =     9.6413

  Exact polarizability: 241.874  12.201 193.918   0.005  -0.010  55.629
 Approx polarizability: 408.149  22.119 325.215   0.014  -0.027  87.608

                     1                      2                      3
                     A                      A                      A
 Frequencies --    73.6860                90.9039               100.8170
 Red. masses --     3.2988                 3.5372                 4.2560
 Frc consts  --     0.0106                 0.0172                 0.0255
 IR Inten    --     1.4577                 2.0414                 1.3794

                     4                      5                      6
                     A                      A                      A
 Frequencies --   163.7234               197.1590               233.4326
 Red. masses --     3.9731                 3.4580                 1.8804
 Frc consts  --     0.0627                 0.0792                 0.0604
 IR Inten    --     0.3892                 2.1691                 0.0783

                     7                      8                      9
                     A                      A                      A
 Frequencies --   244.9052               260.5894               330.6536
 Red. masses --     4.7093                 1.7740                 3.4261
 Frc consts  --     0.1664                 0.0710                 0.2207
 IR Inten    --     0.4580                 0.0115                 0.8106

                    10                     11                     12
                     A                      A                      A
 Frequencies --   360.3490               413.3253               433.5521
 Red. masses --     4.5356                 6.5379                 3.2549
 Frc consts  --     0.3470                 0.6581                 0.3605
 IR Inten    --     1.5082                 0.9311                 1.2039

                    13                     14                     15
                     A                      A                      A
 Frequencies --   447.9105               454.6371               513.6880
 Red. masses --     6.2571                 3.6748                 5.5395
 Frc consts  --     0.7396                 0.4475                 0.8612
 IR Inten    --     4.6044                 1.6251                 0.6520

                    16                     17                     18
                     A                      A                      A
 Frequencies --   524.2507               577.4679               614.0313
 Red. masses --     3.0588                 3.6309                 5.3760
 Frc consts  --     0.4953                 0.7134                 1.1942
 IR Inten    --     1.7734                 1.0301                 0.1236

                    19                     20                     21
                     A                      A                      A
 Frequencies --   630.9573               637.7074               656.2273
 Red. masses --     6.8966                 3.3355                 6.2622
 Frc consts  --     1.6177                 0.7992                 1.5889
 IR Inten    --     2.3111                 2.7904                16.2954

                    22                     23                     24
                     A                      A                      A
 Frequencies --   731.9407               740.9938               756.0759
 Red. masses --     5.4672                 2.6670                 1.4458
 Frc consts  --     1.7257                 0.8628                 0.4870
 IR Inten    --     1.0991                26.9286                13.5085

                    25                     26                     27
                     A                      A                      A
 Frequencies --   780.6417               797.0858               807.0727
 Red. masses --     1.7466                 2.2278                 5.1579
 Frc consts  --     0.6271                 0.8340                 1.9795
 IR Inten    --    37.9981                 0.0646                 2.1367

                    28                     29                     30
                     A                      A                      A
 Frequencies --   846.6009               878.7004               883.1377
 Red. masses --     1.4006                 1.7732                 1.4948
 Frc consts  --     0.5914                 0.8067                 0.6869
 IR Inten    --    24.3938                 1.3677                10.5790

                    31                     32                     33
                     A                      A                      A
 Frequencies --   901.9199               934.8381               953.4623
 Red. masses --     4.5724                 1.3554                 1.3358
 Frc consts  --     2.1915                 0.6979                 0.7155
 IR Inten    --     6.1603                 0.7804                 2.0305

                    34                     35                     36
                     A                      A                      A
 Frequencies --   978.3403               987.9758              1016.8148
 Red. masses --     1.2664                 1.2667                 6.9340
 Frc consts  --     0.7142                 0.7284                 4.2239
 IR Inten    --     0.0874                 0.0241                 5.7042

                    37                     38                     39
                     A                      A                      A
 Frequencies --  1020.4320              1071.8695              1075.9520
 Red. masses --     6.7874                 1.9676                 2.4092
 Frc consts  --     4.1641                 1.3319                 1.6432
 IR Inten    --     4.4213                 4.0223                 7.1671

                    40                     41                     42
                     A                      A                      A
 Frequencies --  1128.5350              1157.7210              1185.3418
 Red. masses --     2.6276                 2.3158                 1.2733
 Frc consts  --     1.9717                 1.8288                 1.0541
 IR Inten    --    14.5576                62.9100                 0.9709

                    43                     44                     45
                     A                      A                      A
 Frequencies --  1185.4780              1196.1243              1199.8088
 Red. masses --     1.6315                 1.1900                 1.1306
 Frc consts  --     1.3509                 1.0031                 0.9589
 IR Inten    --    26.9073                 4.4202                 9.5424

                    46                     47                     48
                     A                      A                      A
 Frequencies --  1227.9249              1240.4580              1272.8739
 Red. masses --     1.4351                 1.5859                 2.3575
 Frc consts  --     1.2749                 1.4378                 2.2504
 IR Inten    --     3.7572                35.6657               100.1183

                    49                     50                     51
                     A                      A                      A
 Frequencies --  1280.1724              1316.2393              1348.8239
 Red. masses --     1.8574                 1.9750                 2.7471
 Frc consts  --     1.7935                 2.0160                 2.9447
 IR Inten    --    22.0349                 8.6616                82.3253

                    52                     53                     54
                     A                      A                      A
 Frequencies --  1381.9471              1388.8070              1442.9688
 Red. masses --     6.2763                 5.1575                 2.4025
 Frc consts  --     7.0621                 5.8610                 2.9474
 IR Inten    --     1.4880                 1.7436                39.1656

                    55                     56                     57
                     A                      A                      A
 Frequencies --  1475.4434              1483.2523              1499.7261
 Red. masses --     2.5374                 1.7737                 2.3043
 Frc consts  --     3.2544                 2.2991                 3.0535
 IR Inten    --    29.7911                25.1163                11.3898

                    58                     59                     60
                     A                      A                      A
 Frequencies --  1510.9039              1518.3205              1534.0931
 Red. masses --     1.5645                 1.0478                 1.0982
 Frc consts  --     2.1043                 1.4232                 1.5228
 IR Inten    --     5.5888                 5.8841                36.0711

                    61                     62                     63
                     A                      A                      A
 Frequencies --  1548.7928              1583.4189              1626.8779
 Red. masses --     2.7185                 3.4213                 6.8882
 Frc consts  --     3.8421                 5.0540                10.7415
 IR Inten    --    14.2005                10.0131                 4.9694

                    64                     65                     66
                     A                      A                      A
 Frequencies --  1661.0253              1669.4705              1676.8761
 Red. masses --     5.2369                 5.7726                 6.6168
 Frc consts  --     8.5129                 9.4793                10.9623
 IR Inten    --    38.5900                23.2460                71.2412

                    67                     68                     69
                     A                      A                      A
 Frequencies --  3028.2827              3088.4290              3158.9933
 Red. masses --     1.0343                 1.1067                 1.1003
 Frc consts  --     5.5883                 6.2198                 6.4692
 IR Inten    --    53.8693                40.2581                25.1232

                    70                     71                     72
                     A                      A                      A
 Frequencies --  3176.0645              3185.5029              3188.5942
 Red. masses --     1.0863                 1.0860                 1.0884
 Frc consts  --     6.4562                 6.4931                 6.5199
 IR Inten    --     5.8893                 1.8455                13.5600

                    73                     74                     75
                     A                      A                      A
 Frequencies --  3200.1500              3203.6165              3212.0366
 Red. masses --     1.0915                 1.0936                 1.0961
 Frc consts  --     6.5858                 6.6130                 6.6631
 IR Inten    --    50.0646                 4.2113                15.7123

                    76                     77                     78
                     A                      A                      A
 Frequencies --  3218.8431              3225.7032              3235.1984
 Red. masses --     1.0896                 1.0903                 1.0925
 Frc consts  --     6.6512                 6.6842                 6.7372
 IR Inten    --    15.5282                32.7968                 8.0747

 - Thermochemistry -
 -------------------
 Temperature   298.150 Kelvin.  Pressure   1.00000 Atm.
 Atom     1 has atomic number  6 and mass  12.00000

 Molecular mass:   208.08882 amu.
 Principal axes and moments of inertia in atomic units:
                           1         2         3
     Eigenvalues --  2421.043743561.335905970.85740
           X            0.99981  -0.01951  -0.00000
           Y            0.01951   0.99981   0.00000
           Z            0.00000  -0.00000   1.00000
 This molecule is an asymmetric top.
 Rotational symmetry number  1.
 Warning -- assumption of classical behavior for rotation
           may cause significant error
 Rotational temperatures (Kelvin)      0.03578     0.02432     0.01451
 Rotational constants (GHZ):           0.74544     0.50676     0.30226
 Zero-point vibrational energy     598053.1 (Joules/Mol)
                                  142.93812 (Kcal/Mol)
 Warning -- explicit consideration of  18 degrees of freedom as
           vibrations may cause significant error
 Vibrational temperatures:    106.02   130.79   145.05   235.56   283.67
          (Kelvin)            335.86   352.36   374.93   475.74   518.46
                              594.68   623.78   644.44   654.12   739.08
                              754.28   830.85   883.45   907.81   917.52
                              944.16  1053.10  1066.12  1087.82  1123.17
                             1146.83  1161.20  1218.07  1264.25  1270.64
                             1297.66  1345.02  1371.82  1407.61  1421.47
                             1462.97  1468.17  1542.18  1548.05  1623.71
                             1665.70  1705.44  1705.64  1720.95  1726.26
                             1766.71  1784.74  1831.38  1841.88  1893.77
                             1940.65  1988.31  1998.18  2076.11  2122.83
                             2134.07  2157.77  2173.85  2184.52  2207.22
                             2228.36  2278.18  2340.71  2389.84  2401.99
                             2412.65  4357.02  4443.55  4545.08  4569.64
                             4583.22  4587.67  4604.30  4609.28  4621.40
                             4631.19  4641.06  4654.72

 Zero-point correction=                           0.227786 (Hartree/Particle)
 Thermal correction to Energy=                    0.239859
 Thermal correction to Enthalpy=                  0.240803
 Thermal correction to Gibbs Free Energy=         0.189634
 Sum of electronic and zero-point Energies=           -653.834295
 Sum of electronic and thermal Energies=              -653.822222
 Sum of electronic and thermal Enthalpies=            -653.821278
 Sum of electronic and thermal Free Energies=         -653.872447

                     E (Thermal)             CV                S
                      KCal/Mol        Cal/Mol-Kelvin    Cal/Mol-Kelvin
 Total                  150.514             49.611            107.695
 Electronic               0.000              0.000              0.000
 Translational            0.889              2.981             41.902
 Rotational               0.889              2.981             32.310
 Vibrational            148.736             43.650             33.483
 Vibration     1          0.599              1.966              4.052
 Vibration     2          0.602              1.956              3.641
 Vibration     3          0.604              1.948              3.438
 Vibration     4          0.623              1.887              2.506
 Vibration     5          0.637              1.844              2.159
 Vibration     6          0.654              1.790              1.852
 Vibration     7          0.660              1.771              1.767
 Vibration     8          0.669              1.745              1.658
 Vibration     9          0.713              1.614              1.257
 Vibration    10          0.735              1.554              1.121
 Vibration    11          0.777              1.441              0.915
 Vibration    12          0.794              1.397              0.847
 Vibration    13          0.807              1.366              0.802
 Vibration    14          0.813              1.351              0.782
 Vibration    15          0.869              1.220              0.625
 Vibration    16          0.879              1.196              0.600
 Vibration    17          0.934              1.080              0.490
 Vibration    18          0.973              1.002              0.426

 Optimization completed.
    -- Stationary point found.
 Normal termination of Gaussian 09 at Thu Sep 30 19:42:51 2021.
 Gaussian 09:  AM64L-G09RevA.02 11-Jun-2009

 ----------------------------------------------------------------------
 #p TD(NStates=10, Root=1) b3lyp/6-31G* volume pop=NPA density=current
 Geom=AllCheck Guess=Read
 ----------------------------------------------------------------------

 COc1cc2ccccc2c2c1cccc2_conf_0
 -----------------------------
 Redundant internal coordinates taken from checkpoint file:
 C15H12O_d275_conf_0.chk
 Charge =  0 Multiplicity = 1

                         Standard orientation:
 ---------------------------------------------------------------------
 Center     Atomic      Atomic             Coordinates (Angstroms)
 Number     Number       Type             X           Y           Z
 ---------------------------------------------------------------------
      1          6           0       -2.054248    3.381865    0.000402
      2          8           0       -2.188721    1.970222    0.000121
      3          6           0       -1.052211    1.215518   -0.000101
      4          6           0        0.216448    1.718802   -0.000106
      5          6           0        1.356733    0.848389   -0.000090
      6          6           0        2.665045    1.386448   -0.000328
      7          6           0        3.775951    0.565356   -0.000238
      8          6           0        3.609438   -0.831134    0.000076
      9          6           0        2.338599   -1.379054    0.000252
     10          6           0        1.182643   -0.565818    0.000161
     11          6           0       -0.173313   -1.103119    0.000161
     12          6           0       -1.286430   -0.213154   -0.000152
     13          6           0       -2.602391   -0.726707   -0.000459
     14          6           0       -2.829694   -2.089752   -0.000338
     15          6           0       -1.739930   -2.977357    0.000118
     16          6           0       -0.445112   -2.491203    0.000344
     17          1           0       -1.523721    3.733301   -0.894174
     18          1           0       -1.523651    3.733025    0.895093
     19          1           0       -3.070390    3.780339    0.000570
     20          1           0        0.397228    2.787851    0.000162
     21          1           0        2.783107    2.467735   -0.000583
     22          1           0        4.773742    0.995959   -0.000438
     23          1           0        4.478639   -1.483119    0.000161
     24          1           0        2.239776   -2.459355    0.000459
     25          1           0       -3.431538   -0.028876   -0.000802
     26          1           0       -3.846479   -2.472894   -0.000638
     27          1           0       -1.911965   -4.050432    0.000318
     28          1           0        0.375853   -3.199787    0.000691
 ---------------------------------------------------------------------

 SCF Done:  E(RB3LYP) =  -654.062081116     A.U. after    1 cycles

 Excitation energies and oscillator strengths:

 Excited State   1:      Singlet-A      3.9204 eV  316.26 nm  f=0.0163  <S**2>=0.000
      54 -> 56        -0.26376
      54 -> 57        -0.17939
      55 -> 56        -0.31617
      55 -> 57         0.54196
 This state for optimization and/or second-order correction.
 Total Energy, E(TD-HF/TD-KS) =  -653.918009833
 Copying the excited state density for this state as the 1-particle RhoCI density.

 Excited State   2:      Singlet-A      4.1909 eV  295.84 nm  f=0.0795  <S**2>=0.000
      54 -> 56        -0.12502
      54 -> 57         0.26178
      55 -> 56         0.53496
      55 -> 57         0.34347

 Excited State   3:      Singlet-A      4.7332 eV  261.95 nm  f=0.0747  <S**2>=0.000
      53 -> 57         0.14243
      54 -> 56         0.55496
      54 -> 57         0.14055
      55 -> 56        -0.12600
      55 -> 57         0.24442
      55 -> 58        -0.22497

 Excited State   4:      Singlet-A      5.0020 eV  247.87 nm  f=0.4118  <S**2>=0.000
      53 -> 56        -0.22435
      54 -> 57         0.52449
      54 -> 58        -0.14152
      55 -> 56        -0.23732
      55 -> 58         0.27649

 Excited State   5:      Singlet-A      5.1929 eV  238.76 nm  f=0.2823  <S**2>=0.000
      53 -> 56        -0.21908
      53 -> 57        -0.17604
      54 -> 56         0.25590
      54 -> 57        -0.20190
      54 -> 58         0.18240
      55 -> 56         0.11059
      55 -> 57         0.10928
      55 -> 58         0.46935
      55 -> 59         0.12475

 Excited State   6:      Singlet-A      5.2502 eV  236.15 nm  f=0.1026  <S**2>=0.000
      51 -> 56        -0.11858
      52 -> 57        -0.12345
      53 -> 56        -0.31065
      53 -> 57         0.40127
      54 -> 57        -0.21012
      54 -> 58        -0.35754
      55 -> 58         0.11175

 Excited State   7:      Singlet-A      5.7059 eV  217.29 nm  f=0.0936  <S**2>=0.000
      52 -> 56         0.15440
      52 -> 57         0.24223
      53 -> 56         0.33597
      53 -> 57         0.36422
      55 -> 58         0.21358
      55 -> 59         0.31993

 Excited State   8:      Singlet-A      5.8447 eV  212.13 nm  f=0.2705  <S**2>=0.000
      51 -> 57        -0.10239
      52 -> 56        -0.21574
      53 -> 56        -0.30282
      53 -> 57         0.21165
      54 -> 56        -0.11874
      54 -> 58         0.36542
      54 -> 59         0.12556
      55 -> 58        -0.14748
      55 -> 59         0.29585

 Excited State   9:      Singlet-A      5.8703 eV  211.20 nm  f=0.0787  <S**2>=0.000
      51 -> 56         0.11209
      52 -> 56         0.40685
      53 -> 56        -0.21885
      53 -> 57        -0.16034
      54 -> 58        -0.22069
      55 -> 58        -0.19170
      55 -> 59         0.37885

 Excited State  10:      Singlet-A      6.1320 eV  202.19 nm  f=0.1716  <S**2>=0.000
      51 -> 56         0.10384
      52 -> 56        -0.11954
      52 -> 57         0.51433
      53 -> 57        -0.12562
      54 -> 58        -0.21322
      54 -> 59         0.34179

 The electronic state is 1-A.
 Alpha  occ. eigenvalues --  -19.18204 -10.24770 -10.24334 -10.19878 -10.19540
 Alpha  occ. eigenvalues --  -10.19533 -10.19318 -10.18755 -10.18646 -10.18583
 Alpha  occ. eigenvalues --  -10.18529 -10.18517 -10.18411 -10.18364 -10.18319
 Alpha  occ. eigenvalues --  -10.18178  -1.06809  -0.87417  -0.84122  -0.80156
 Alpha  occ. eigenvalues --   -0.76926  -0.75562  -0.72236  -0.71658  -0.69769
 Alpha  occ. eigenvalues --   -0.62576  -0.61461  -0.60170  -0.57569  -0.53677
 Alpha  occ. eigenvalues --   -0.53085  -0.51066  -0.48065  -0.47770  -0.47131
 Alpha  occ. eigenvalues --   -0.45275  -0.44447  -0.42849  -0.41781  -0.41591
 Alpha  occ. eigenvalues --   -0.41044  -0.39763  -0.39727  -0.36125  -0.35582
 Alpha  occ. eigenvalues --   -0.35558  -0.34948  -0.34350  -0.32416  -0.32067
 Alpha  occ. eigenvalues --   -0.28604  -0.27371  -0.25068  -0.21814  -0.19850
 Alpha virt. eigenvalues --   -0.02797  -0.02672   0.01262   0.04285   0.09225
 Alpha virt. eigenvalues --    0.09639   0.09811   0.10342   0.12039   0.13473
 Alpha virt. eigenvalues --    0.14812   0.14964   0.15948   0.16680   0.16896

 Mulliken atomic charges:
              1
     1  C   -0.225872
     2  O   -0.480486
     3  C    0.338571
     4  C   -0.258847
     5  C    0.142957
     6  C   -0.210820
     7  C   -0.149724
     8  C   -0.122832
     9  C   -0.208430
    10  C    0.074033
    11  C    0.047025
    12  C    0.068722
    13  C   -0.188343
    14  C   -0.155023
    15  C   -0.120948
    16  C   -0.213836
    17  H    0.165702
    18  H    0.165694
    19  H    0.181586
    20  H    0.145624
    21  H    0.119873
    22  H    0.120619
    23  H    0.130868
    24  H    0.131507
    25  H    0.136824
    26  H    0.116180
    27  H    0.124132
    28  H    0.125243
 Sum of Mulliken atomic charges =  -0.00000

 Dipole moment (field-independent basis, Debye):
    X=             -0.3109    Y=              3.1931    Z=              0.0004  Tot=              3.2082
 Quadrupole moment (field-independent basis, Debye-Ang):
   XX=            -86.9781   YY=            -73.8434   ZZ=            -97.2016
   XY=             -5.8479   XZ=              0.0003   YZ=             -0.0001

 Summary of Natural Population Analysis:

                                       Natural Population
                Natural  -----------------------------------------------
    Atom  No    Charge         Core      Valence    Rydberg      Total
 -----------------------------------------------------------------------
      C    1   -0.32207      1.99943     4.30842    0.01422     6.32207
      O    2   -0.48055      1.99974     6.46911    0.01169     8.48055
      C    3    0.38675      1.99876     3.59225    0.02224     5.61325
      C    4   -0.23250      1.99899     4.22151    0.01199     6.23250
      C    5   -0.05926      1.99903     4.04504    0.01518     6.05926
      C    6   -0.20724      1.99907     4.19378    0.01438     6.20724
      C    7   -0.28235      1.99911     4.26719    0.01605     6.28235
      C    8   -0.18351      1.99911     4.16992    0.01448     6.18351
      C    9   -0.24314      1.99908     4.22949    0.01457     6.24314
      C   10   -0.03339      1.99901     4.01960    0.01478     6.03339
      C   11   -0.05177      1.99903     4.03751    0.01523     6.05177
      C   12   -0.11040      1.99898     4.09642    0.01500     6.11040
      C   13   -0.20648      1.99908     4.19251    0.01489     6.20648
      C   14   -0.28336      1.99910     4.26824    0.01601     6.28336
      C   15   -0.19787      1.99911     4.18434    0.01442     6.19787
      C   16   -0.23987      1.99908     4.22638    0.01441     6.23987
      H   17    0.21110      0.00000     0.78725    0.00164     0.78890
      H   18    0.21110      0.00000     0.78725    0.00164     0.78890
      H   19    0.23504      0.00000     0.76447    0.00049     0.76496
      H   20    0.23715      0.00000     0.76173    0.00111     0.76285
      H   21    0.22610      0.00000     0.77279    0.00111     0.77390
      H   22    0.23278      0.00000     0.76641    0.00081     0.76722
      H   23    0.23415      0.00000     0.76503    0.00082     0.76585
      H   24    0.22919      0.00000     0.76985    0.00096     0.77081
      H   25    0.24202      0.00000     0.75683    0.00116     0.75798
      H   26    0.23044      0.00000     0.76876    0.00080     0.76956
      H   27    0.23220      0.00000     0.76697    0.00084     0.76780
      H   28    0.22570      0.00000     0.77331    0.00099     0.77430
 =======================================================================
   * Total *    0.00000     31.98570    77.76238    0.25191   110.00000

 Normal termination of Gaussian 09 at Fri Oct  1 00:17:08 2021.
