 Gaussian 09, Revision A.02,

 -----------------------------------
 #p opt b3lyp/6-31G* scf=(xqc,tight)
 -----------------------------------

 --------------------------------------
 COc1nc(nc(n1)OC)Oc1cccc2c1cccc2_conf_0
 --------------------------------------
 Symbolic Z-matrix:
 Charge =  0 Multiplicity = 1

 SCF Done:  E(RB3LYP) =  -969.348913047     A.U. after   15 cycles
 SCF Done:  E(RB3LYP) =  -969.360817590     A.U. after   13 cycles
 SCF Done:  E(RB3LYP) =  -969.366345918     A.U. after   15 cycles
 SCF Done:  E(RB3LYP) =  -969.367210076     A.U. after   15 cycles
 SCF Done:  E(RB3LYP) =  -969.367578855     A.U. after   12 cycles
 SCF Done:  E(RB3LYP) =  -969.367775811     A.U. after   13 cycles
 SCF Done:  E(RB3LYP) =  -969.367868432     A.U. after   11 cycles
 SCF Done:  E(RB3LYP) =  -969.367904121     A.U. after   11 cycles
 SCF Done:  E(RB3LYP) =  -969.367929274     A.U. after   10 cycles
 SCF Done:  E(RB3LYP) =  -969.367936135     A.U. after   10 cycles
 SCF Done:  E(RB3LYP) =  -969.367945231     A.U. after   10 cycles
 SCF Done:  E(RB3LYP) =  -969.367946704     A.U. after   10 cycles
 SCF Done:  E(RB3LYP) =  -969.367947654     A.U. after   10 cycles
 SCF Done:  E(RB3LYP) =  -969.367948325     A.U. after   10 cycles
 SCF Done:  E(RB3LYP) =  -969.367949112     A.U. after   10 cycles
 SCF Done:  E(RB3LYP) =  -969.367949376     A.U. after    8 cycles
 SCF Done:  E(RB3LYP) =  -969.367949770     A.U. after    8 cycles
 SCF Done:  E(RB3LYP) =  -969.367949585     A.U. after    7 cycles
 Optimization completed.
    -- Stationary point found.
 Normal termination of Gaussian 09 at Tue Sep 28 18:36:04 2021.

 ----------------------------------------------------------------------
 #p freq b3lyp/6-31G* volume NMR pop=NPA density=current Geom=AllCheck
 Guess=Read
 ----------------------------------------------------------------------

 COc1nc(nc(n1)OC)Oc1cccc2c1cccc2_conf_0
 --------------------------------------
 Redundant internal coordinates taken from checkpoint file:
 C15H13N3O3_2f50_conf_0.chk
 Charge =  0 Multiplicity = 1

 SCF Done:  E(RB3LYP) =  -969.367949585     A.U. after    2 cycles

  1  C    Isotropic =   136.7974   Anisotropy =    65.1001

  2  O    Isotropic =   191.9947   Anisotropy =    87.8630

  3  C    Isotropic =    23.8866   Anisotropy =    98.9153

  4  N    Isotropic =    60.8716   Anisotropy =   278.9713

  5  C    Isotropic =    21.4014   Anisotropy =    95.6033

  6  N    Isotropic =    57.1783   Anisotropy =   279.8397

  7  C    Isotropic =    23.0825   Anisotropy =   100.2775

  8  N    Isotropic =    68.3308   Anisotropy =   287.1017

  9  O    Isotropic =   191.6361   Anisotropy =    87.4005

 10  C    Isotropic =   136.6007   Anisotropy =    64.1071

 11  O    Isotropic =   144.2576   Anisotropy =   105.1559

 12  C    Isotropic =    46.8581   Anisotropy =    97.1849

 13  C    Isotropic =    75.8058   Anisotropy =   143.5404

 14  C    Isotropic =    70.4603   Anisotropy =   159.3402

 15  C    Isotropic =    69.8791   Anisotropy =   143.6049

 16  C    Isotropic =    62.2289   Anisotropy =   196.0251

 17  C    Isotropic =    68.8377   Anisotropy =   181.9422

 18  C    Isotropic =    72.6714   Anisotropy =   162.8651

 19  C    Isotropic =    70.2079   Anisotropy =   162.6573

 20  C    Isotropic =    70.0748   Anisotropy =   162.7624

 21  C    Isotropic =    67.9526   Anisotropy =   145.9075

 22  H    Isotropic =    28.6089   Anisotropy =     8.0938

 23  H    Isotropic =    28.4001   Anisotropy =     8.1486

 24  H    Isotropic =    28.3646   Anisotropy =     8.2114

 25  H    Isotropic =    28.4126   Anisotropy =     7.7749

 26  H    Isotropic =    28.2537   Anisotropy =     7.7997

 27  H    Isotropic =    28.2748   Anisotropy =     7.6793

 28  H    Isotropic =    25.1548   Anisotropy =     8.0439

 29  H    Isotropic =    24.7869   Anisotropy =     4.8006

 30  H    Isotropic =    24.6402   Anisotropy =     6.0405

 31  H    Isotropic =    24.2545   Anisotropy =    10.4012

 32  H    Isotropic =    24.7985   Anisotropy =     6.1225

 33  H    Isotropic =    24.7833   Anisotropy =     4.8103

 34  H    Isotropic =    24.5440   Anisotropy =     6.5424

  Exact polarizability: 241.374  13.253 176.763  20.688 -26.960 139.864
 Approx polarizability: 329.717  29.251 307.319  44.303 -50.523 237.258

                     1                      2                      3
                     A                      A                      A
 Frequencies --     5.4379                22.8019                55.2932
 Red. masses --     5.5657                 5.3841                 4.9960
 Frc consts  --     0.0001                 0.0016                 0.0090
 IR Inten    --     0.4795                 0.6028                 0.7698

                     4                      5                      6
                     A                      A                      A
 Frequencies --    99.6081               103.5014               135.7176
 Red. masses --     3.2027                 4.0050                 4.3182
 Frc consts  --     0.0187                 0.0253                 0.0469
 IR Inten    --     0.0372                 5.0659                 0.8075

                     7                      8                      9
                     A                      A                      A
 Frequencies --   146.6930               157.9471               176.4874
 Red. masses --     1.2530                 1.0995                 3.3880
 Frc consts  --     0.0159                 0.0162                 0.0622
 IR Inten    --     0.0053                 0.0172                 0.4689

                    10                     11                     12
                     A                      A                      A
 Frequencies --   177.1934               192.5406               222.6820
 Red. masses --     3.9808                 5.7497                 5.3667
 Frc consts  --     0.0736                 0.1256                 0.1568
 IR Inten    --     1.1343                 0.4317                 2.9598

                    13                     14                     15
                     A                      A                      A
 Frequencies --   230.9586               237.6679               262.9794
 Red. masses --     6.6670                 4.3264                 4.8701
 Frc consts  --     0.2095                 0.1440                 0.1984
 IR Inten    --     0.0838                 3.0697                 2.4209

                    16                     17                     18
                     A                      A                      A
 Frequencies --   300.2711               314.8690               421.5608
 Red. masses --     4.5442                 4.7336                 3.6795
 Frc consts  --     0.2414                 0.2765                 0.3853
 IR Inten    --     5.4931                 8.5016                 4.7003

                    19                     20                     21
                     A                      A                      A
 Frequencies --   462.6616               478.1573               487.3613
 Red. masses --     4.8500                 3.5898                 4.9231
 Frc consts  --     0.6117                 0.4836                 0.6889
 IR Inten    --     1.6226                 0.6280                 3.9411

                    22                     23                     24
                     A                      A                      A
 Frequencies --   498.7132               531.1558               554.6780
 Red. masses --     6.4902                 7.1181                 7.6575
 Frc consts  --     0.9511                 1.1832                 1.3881
 IR Inten    --     2.3695                 2.2008                 1.3697

                    25                     26                     27
                     A                      A                      A
 Frequencies --   561.9336               598.9129               615.6010
 Red. masses --     4.8140                 7.0613                 4.8237
 Frc consts  --     0.8956                 1.4923                 1.0770
 IR Inten    --     6.6716                 0.6957                 2.9731

                    28                     29                     30
                     A                      A                      A
 Frequencies --   648.1239               674.9440               722.4115
 Red. masses --     5.4480                 5.2469                 4.6865
 Frc consts  --     1.3484                 1.4083                 1.4410
 IR Inten    --     7.7028                 4.3477                 3.7640

                    31                     32                     33
                     A                      A                      A
 Frequencies --   736.3073               749.3711               750.8827
 Red. masses --    11.0770                 8.6746                 1.5749
 Frc consts  --     3.5383                 2.8701                 0.5232
 IR Inten    --     0.3864                 0.0295                 0.1420

                    34                     35                     36
                     A                      A                      A
 Frequencies --   772.3600               795.6372               803.9851
 Red. masses --     4.9519                 1.6872                 5.1824
 Frc consts  --     1.7405                 0.6293                 1.9737
 IR Inten    --     3.3348                51.6588                 2.1260

                    37                     38                     39
                     A                      A                      A
 Frequencies --   821.1544               827.6908               882.2066
 Red. masses --     1.9737                12.5332                 1.9848
 Frc consts  --     0.7841                 5.0588                 0.9101
 IR Inten    --    23.4888                38.8132                 1.4630

                    40                     41                     42
                     A                      A                      A
 Frequencies --   890.9628               910.2640               959.7469
 Red. masses --     3.3645                 1.4930                 1.3180
 Frc consts  --     1.5736                 0.7289                 0.7153
 IR Inten    --     1.3231                 0.1737                 0.3535

                    43                     44                     45
                     A                      A                      A
 Frequencies --   971.7449               994.2626               995.5309
 Red. masses --     1.2974                 1.2869                 9.8816
 Frc consts  --     0.7218                 0.7496                 5.7702
 IR Inten    --     1.5048                 0.1424                 8.6977

                    46                     47                     48
                     A                      A                      A
 Frequencies --  1001.1513              1006.4703              1048.5458
 Red. masses --     9.4148                 6.8131                 2.8916
 Frc consts  --     5.5598                 4.0663                 1.8731
 IR Inten    --    13.4354                 5.3075                10.0943

                    49                     50                     51
                     A                      A                      A
 Frequencies --  1069.8102              1103.9612              1143.9691
 Red. masses --     2.8557                 2.4444                 3.8212
 Frc consts  --     1.9257                 1.7552                 2.9463
 IR Inten    --     5.3885                 4.5880                57.2377

                    52                     53                     54
                     A                      A                      A
 Frequencies --  1170.1837              1180.2265              1184.3482
 Red. masses --     3.6858                 1.4538                 1.2650
 Frc consts  --     2.9737                 1.1932                 1.0454
 IR Inten    --   222.2310                70.5501                 0.0888

                    55                     56                     57
                     A                      A                      A
 Frequencies --  1184.9605              1191.7442              1201.5543
 Red. masses --     1.2651                 1.1493                 1.4528
 Frc consts  --     1.0466                 0.9617                 1.2358
 IR Inten    --     1.1243                20.3159               118.7512

                    58                     59                     60
                     A                      A                      A
 Frequencies --  1212.5473              1236.3729              1250.2380
 Red. masses --     1.4409                 2.0367                 2.1349
 Frc consts  --     1.2481                 1.8343                 1.9661
 IR Inten    --    44.2935                58.0968                 1.9867

                    61                     62                     63
                     A                      A                      A
 Frequencies --  1264.4895              1292.8944              1322.6485
 Red. masses --     2.2185                 1.8960                 8.6078
 Frc consts  --     2.0900                 1.8673                 8.8722
 IR Inten    --   221.4583                78.9881                44.3626

                    64                     65                     66
                     A                      A                      A
 Frequencies --  1393.5542              1398.5804              1416.8161
 Red. masses --     3.9577                 4.2183                 7.4010
 Frc consts  --     4.5284                 4.8615                 8.7532
 IR Inten    --   118.5845              1063.3394                26.4667

                    67                     68                     69
                     A                      A                      A
 Frequencies --  1419.1424              1437.0888              1473.2691
 Red. masses --     2.9038                 2.1514                 1.8219
 Frc consts  --     3.4456                 2.6178                 2.3299
 IR Inten    --   445.8459                12.3791                57.0573

                    70                     71                     72
                     A                      A                      A
 Frequencies --  1490.9944              1510.4352              1511.7630
 Red. masses --     2.1854                 2.4510                 1.0490
 Frc consts  --     2.8624                 3.2945                 1.4125
 IR Inten    --     5.1945                15.2255                 0.1053

                    73                     74                     75
                     A                      A                      A
 Frequencies --  1514.2629              1517.8480              1523.2843
 Red. masses --     1.0498                 1.2919                 1.0700
 Frc consts  --     1.4182                 1.7536                 1.4628
 IR Inten    --    13.0371                71.7505                38.5748

                    76                     77                     78
                     A                      A                      A
 Frequencies --  1523.8852              1561.3663              1564.9269
 Red. masses --     1.3183                 3.0981                 3.4456
 Frc consts  --     1.8037                 4.4500                 4.9717
 IR Inten    --     0.2894                 8.5856                35.7661

                    79                     80                     81
                     A                      A                      A
 Frequencies --  1606.3888              1621.2596              1636.0783
 Red. masses --     8.8347                 9.1096                 7.9428
 Frc consts  --    13.4321                14.1076                12.5265
 IR Inten    --   593.7791               743.5999               229.5452

                    82                     83                     84
                     A                      A                      A
 Frequencies --  1660.1066              1688.7650              3071.8216
 Red. masses --     5.1805                 6.4094                 1.0298
 Frc consts  --     8.4119                10.7697                 5.7255
 IR Inten    --     9.4327                 2.9338                 8.7560

                    85                     86                     87
                     A                      A                      A
 Frequencies --  3072.8865              3146.1513              3146.8108
 Red. masses --     1.0299                 1.1076                 1.1076
 Frc consts  --     5.7299                 6.4594                 6.4624
 IR Inten    --    67.4091                13.2827                30.1492

                    88                     89                     90
                     A                      A                      A
 Frequencies --  3178.7968              3179.5854              3180.1174
 Red. masses --     1.1065                 1.1065                 1.0863
 Frc consts  --     6.5874                 6.5911                 6.4727
 IR Inten    --    36.9999                 6.2421                 1.0892

                    91                     92                     93
                     A                      A                      A
 Frequencies --  3186.7340              3192.5245              3205.0619
 Red. masses --     1.0869                 1.0896                 1.0932
 Frc consts  --     6.5033                 6.5431                 6.6164
 IR Inten    --     1.4963                16.1422                27.0394

                    94                     95                     96
                     A                      A                      A
 Frequencies --  3206.4760              3223.2598              3224.5865
 Red. masses --     1.0945                 1.0944                 1.0939
 Frc consts  --     6.6299                 6.6994                 6.7014
 IR Inten    --    34.4057                11.6354                 6.4347

 - Thermochemistry -
 -------------------
 Temperature   298.150 Kelvin.  Pressure   1.00000 Atm.
 Atom     1 has atomic number  6 and mass  12.00000

 Molecular mass:   283.09569 amu.
 Principal axes and moments of inertia in atomic units:
                           1         2         3
     Eigenvalues --  3017.13345********************
           X            0.99999  -0.00173  -0.00333
           Y            0.00161   0.99935  -0.03608
           Z            0.00339   0.03608   0.99934
 This molecule is an asymmetric top.
 Rotational symmetry number  1.
 Warning -- assumption of classical behavior for rotation
           may cause significant error
 Rotational temperatures (Kelvin)      0.02871     0.00804     0.00757
 Rotational constants (GHZ):           0.59816     0.16746     0.15769
 Zero-point vibrational energy     692109.8 (Joules/Mol)
                                  165.41820 (Kcal/Mol)
 Warning -- explicit consideration of  27 degrees of freedom as
           vibrations may cause significant error
 Vibrational temperatures:      7.82    32.81    79.55   143.31   148.92
          (Kelvin)            195.27   211.06   227.25   253.93   254.94
                              277.02   320.39   332.30   341.95   378.37
                              432.02   453.03   606.53   665.67   687.96
                              701.20   717.54   764.21   798.06   808.50
                              861.70   885.71   932.50   971.09  1039.39
                             1059.38  1078.18  1080.35  1111.25  1144.74
                             1156.75  1181.46  1190.86  1269.30  1281.90
                             1309.67  1380.86  1398.12  1430.52  1432.35
                             1440.43  1448.08  1508.62  1539.22  1588.35
                             1645.91  1683.63  1698.08  1704.01  1704.89
                             1714.65  1728.77  1744.58  1778.86  1798.81
                             1819.32  1860.18  1902.99  2005.01  2012.24
                             2038.48  2041.83  2067.65  2119.70  2145.21
                             2173.18  2175.09  2178.68  2183.84  2191.66
                             2192.53  2246.45  2251.58  2311.23  2332.63
                             2353.95  2388.52  2429.75  4419.66  4421.19
                             4526.60  4527.55  4573.57  4574.71  4575.47
                             4584.99  4593.32  4611.36  4613.40  4637.55
                             4639.46

 Zero-point correction=                           0.263611 (Hartree/Particle)
 Thermal correction to Energy=                    0.281048
 Thermal correction to Enthalpy=                  0.281992
 Thermal correction to Gibbs Free Energy=         0.215363
 Sum of electronic and zero-point Energies=           -969.104339
 Sum of electronic and thermal Energies=              -969.086902
 Sum of electronic and thermal Enthalpies=            -969.085958
 Sum of electronic and thermal Free Energies=         -969.152587

                     E (Thermal)             CV                S
                      KCal/Mol        Cal/Mol-Kelvin    Cal/Mol-Kelvin
 Total                  176.360             66.410            140.233
 Electronic               0.000              0.000              0.000
 Translational            0.889              2.981             42.820
 Rotational               0.889              2.981             34.275
 Vibrational            174.583             60.448             63.138
 Vibration     1          0.593              1.987              9.222
 Vibration     2          0.593              1.985              6.374
 Vibration     3          0.596              1.975              4.618
 Vibration     4          0.604              1.949              3.462
 Vibration     5          0.605              1.946              3.387
 Vibration     6          0.614              1.918              2.863
 Vibration     7          0.617              1.906              2.715
 Vibration     8          0.621              1.894              2.574
 Vibration     9          0.628              1.871              2.365
 Vibration    10          0.628              1.870              2.358
 Vibration    11          0.635              1.850              2.203
 Vibration    12          0.648              1.807              1.937
 Vibration    13          0.653              1.794              1.871
 Vibration    14          0.656              1.783              1.820
 Vibration    15          0.670              1.741              1.642
 Vibration    16          0.693              1.673              1.415
 Vibration    17          0.702              1.645              1.337
 Vibration    18          0.784              1.423              0.887
 Vibration    19          0.820              1.333              0.758
 Vibration    20          0.835              1.299              0.715
 Vibration    21          0.843              1.278              0.690
 Vibration    22          0.854              1.253              0.661
 Vibration    23          0.886              1.181              0.585
 Vibration    24          0.910              1.129              0.535
 Vibration    25          0.918              1.114              0.520
 Vibration    26          0.957              1.034              0.452
 Vibration    27          0.975              0.999              0.424

 Optimization completed.
    -- Stationary point found.
 Normal termination of Gaussian 09 at Tue Sep 28 21:00:36 2021.
 Gaussian 09:  AM64L-G09RevA.02 11-Jun-2009

 ----------------------------------------------------------------------
 #p TD(NStates=10, Root=1) b3lyp/6-31G* volume pop=NPA density=current
 Geom=AllCheck Guess=Read
 ----------------------------------------------------------------------

 COc1nc(nc(n1)OC)Oc1cccc2c1cccc2_conf_0
 --------------------------------------
 Redundant internal coordinates taken from checkpoint file:
 C15H13N3O3_2f50_conf_0.chk
 Charge =  0 Multiplicity = 1

                         Standard orientation:
 ---------------------------------------------------------------------
 Center     Atomic      Atomic             Coordinates (Angstroms)
 Number     Number       Type             X           Y           Z
 ---------------------------------------------------------------------
      1          6           0       -3.518893    2.325802    1.894783
      2          8           0       -2.238419    2.023356    1.325924
      3          6           0       -2.142300    0.943720    0.549652
      4          7           0       -0.919950    0.724628    0.059017
      5          6           0       -0.851604   -0.358748   -0.711745
      6          7           0       -1.841707   -1.197351   -1.018817
      7          6           0       -3.003300   -0.858379   -0.461956
      8          7           0       -3.230286    0.197695    0.332322
      9          8           0       -4.014677   -1.678884   -0.749126
     10          6           0       -5.298208   -1.383786   -0.184161
     11          8           0        0.328230   -0.697155   -1.267330
     12          6           0        1.466775    0.084134   -1.038343
     13          6           0        1.660751    1.241576   -1.749902
     14          6           0        2.856398    1.975799   -1.573292
     15          6           0        3.824572    1.534317   -0.700522
     16          6           0        3.645726    0.332208    0.034735
     17          6           0        2.438466   -0.422659   -0.134593
     18          6           0        2.264402   -1.631640    0.589724
     19          6           0        3.240676   -2.071332    1.455005
     20          6           0        4.432074   -1.326556    1.633299
     21          6           0        4.628429   -0.155222    0.938024
     22          1           0       -3.359546    3.230991    2.481809
     23          1           0       -3.863660    1.510362    2.536377
     24          1           0       -4.261665    2.503886    1.112376
     25          1           0       -5.955191   -2.173787   -0.549797
     26          1           0       -5.656459   -0.405529   -0.516210
     27          1           0       -5.256821   -1.397328    0.908413
     28          1           0        0.893664    1.583744   -2.436483
     29          1           0        3.002060    2.893803   -2.135285
     30          1           0        4.743297    2.099318   -0.564800
     31          1           0        1.356612   -2.206885    0.442022
     32          1           0        3.099410   -2.998033    2.004515
     33          1           0        5.193325   -1.686383    2.320232
     34          1           0        5.543732    0.417104    1.069179
 ---------------------------------------------------------------------

 SCF Done:  E(RB3LYP) =  -969.367949585     A.U. after    1 cycles

 Excitation energies and oscillator strengths:

 Excited State   1:      Singlet-A      4.3463 eV  285.26 nm  f=0.1176  <S**2>=0.000
      73 -> 78        -0.11636
      74 -> 75         0.68630
 This state for optimization and/or second-order correction.
 Total Energy, E(TD-HF/TD-KS) =  -969.208225351
 Copying the excited state density for this state as the 1-particle RhoCI density.

 Excited State   2:      Singlet-A      4.4676 eV  277.52 nm  f=0.0016  <S**2>=0.000
      73 -> 75         0.46198
      74 -> 76         0.36021
      74 -> 77        -0.16995
      74 -> 78         0.35339

 Excited State   3:      Singlet-A      4.7740 eV  259.70 nm  f=0.0089  <S**2>=0.000
      73 -> 75        -0.16094
      74 -> 76         0.53504
      74 -> 77        -0.13306
      74 -> 78        -0.40236

 Excited State   4:      Singlet-A      4.8012 eV  258.24 nm  f=0.0014  <S**2>=0.000
      74 -> 76         0.23049
      74 -> 77         0.65585

 Excited State   5:      Singlet-A      5.5889 eV  221.84 nm  f=0.0050  <S**2>=0.000
      69 -> 76         0.10683
      70 -> 77         0.21506
      71 -> 75         0.40347
      71 -> 77         0.31500
      71 -> 78         0.10375
      72 -> 75         0.17687
      73 -> 76        -0.20705
      73 -> 77         0.16610
      74 -> 79        -0.14607

 Excited State   6:      Singlet-A      5.6285 eV  220.28 nm  f=0.0081  <S**2>=0.000
      68 -> 76         0.12269
      71 -> 75         0.17519
      71 -> 76         0.26755
      72 -> 75         0.15797
      73 -> 76         0.52568
      73 -> 78        -0.16568

 Excited State   7:      Singlet-A      5.6724 eV  218.57 nm  f=0.0269  <S**2>=0.000
      70 -> 75         0.20378
      70 -> 76         0.15184
      70 -> 77         0.14014
      71 -> 75        -0.15307
      71 -> 76         0.14552
      71 -> 77         0.20189
      72 -> 75        -0.33247
      73 -> 75         0.11138
      73 -> 77         0.35596
      73 -> 78         0.10546
      74 -> 79         0.21012

 Excited State   8:      Singlet-A      5.6976 eV  217.61 nm  f=0.0086  <S**2>=0.000
      68 -> 76         0.10972
      69 -> 76        -0.13097
      70 -> 75        -0.20772
      70 -> 76         0.14611
      70 -> 77        -0.14121
      71 -> 75         0.11459
      71 -> 76         0.31011
      71 -> 77        -0.18890
      71 -> 78        -0.13936
      72 -> 77        -0.10651
      73 -> 76        -0.22804
      73 -> 77         0.27271
      74 -> 79        -0.16463

 Excited State   9:      Singlet-A      5.7082 eV  217.20 nm  f=0.0161  <S**2>=0.000
      70 -> 75        -0.10747
      70 -> 76        -0.25206
      70 -> 77        -0.12826
      71 -> 76        -0.31001
      71 -> 77        -0.12650
      73 -> 76         0.25578
      73 -> 77         0.42287

 Excited State  10:      Singlet-A      5.7433 eV  215.88 nm  f=0.0179  <S**2>=0.000
      69 -> 76         0.15745
      71 -> 75        -0.35794
      72 -> 75         0.49708
      72 -> 77         0.13285
      73 -> 77         0.14797
      74 -> 79         0.12115

 The electronic state is 1-A.
 Alpha  occ. eigenvalues --  -19.20069 -19.20021 -19.19873 -14.33988 -14.33333
 Alpha  occ. eigenvalues --  -14.33045 -10.32745 -10.32619 -10.32585 -10.24936
 Alpha  occ. eigenvalues --  -10.24766 -10.24674 -10.19914 -10.19870 -10.19293
 Alpha  occ. eigenvalues --  -10.19160 -10.19037 -10.18973 -10.18948 -10.18942
 Alpha  occ. eigenvalues --  -10.18837  -1.11388  -1.09934  -1.09676  -0.99754
 Alpha  occ. eigenvalues --   -0.90074  -0.89849  -0.86996  -0.81981  -0.77457
 Alpha  occ. eigenvalues --   -0.74508  -0.74159  -0.73867  -0.72065  -0.66549
 Alpha  occ. eigenvalues --   -0.64556  -0.62117  -0.61668  -0.59767  -0.57882
 Alpha  occ. eigenvalues --   -0.55928  -0.52577  -0.51934  -0.51101  -0.50392
 Alpha  occ. eigenvalues --   -0.49738  -0.48283  -0.47925  -0.45955  -0.44679
 Alpha  occ. eigenvalues --   -0.44227  -0.43766  -0.42946  -0.42171  -0.41460
 Alpha  occ. eigenvalues --   -0.40346  -0.39015  -0.38616  -0.38016  -0.37821
 Alpha  occ. eigenvalues --   -0.37310  -0.37228  -0.35157  -0.34245  -0.33641
 Alpha  occ. eigenvalues --   -0.32326  -0.30529  -0.28434  -0.28115  -0.27784
 Alpha  occ. eigenvalues --   -0.27119  -0.26875  -0.24259  -0.21117
 Alpha virt. eigenvalues --   -0.03727  -0.01651  -0.01161  -0.00553   0.03720
 Alpha virt. eigenvalues --    0.09535   0.09786   0.10017   0.10743   0.11543
 Alpha virt. eigenvalues --    0.12229   0.13082   0.13461   0.13802   0.15060

 Mulliken atomic charges:
              1
     1  C   -0.209450
     2  O   -0.455792
     3  C    0.683845
     4  N   -0.495088
     5  C    0.658771
     6  N   -0.489268
     7  C    0.678686
     8  N   -0.550798
     9  O   -0.455554
    10  C   -0.208640
    11  O   -0.523813
    12  C    0.272722
    13  C   -0.134119
    14  C   -0.147193
    15  C   -0.183365
    16  C    0.130243
    17  C    0.126662
    18  C   -0.203940
    19  C   -0.134016
    20  C   -0.124626
    21  C   -0.212518
    22  H    0.172242
    23  H    0.168463
    24  H    0.167670
    25  H    0.171949
    26  H    0.166646
    27  H    0.166753
    28  H    0.145880
    29  H    0.138809
    30  H    0.135897
    31  H    0.150991
    32  H    0.131677
    33  H    0.130679
    34  H    0.129597
 Sum of Mulliken atomic charges =  -0.00000

 Dipole moment (field-independent basis, Debye):
    X=             -2.1946    Y=              1.9883    Z=              1.7476  Tot=              3.4386
 Quadrupole moment (field-independent basis, Debye-Ang):
   XX=            -89.5174   YY=           -115.9471   ZZ=           -116.8438
   XY=             -1.1611   XZ=             -4.5149   YZ=             -7.2497

 Summary of Natural Population Analysis:

                                       Natural Population
                Natural  -----------------------------------------------
    Atom  No    Charge         Core      Valence    Rydberg      Total
 -----------------------------------------------------------------------
      C    1   -0.31989      1.99941     4.30676    0.01371     6.31989
      O    2   -0.49839      1.99972     6.48665    0.01202     8.49839
      C    3    0.77713      1.99922     3.18793    0.03571     5.22287
      N    4   -0.58632      1.99924     5.56660    0.02048     7.58632
      C    5    0.74705      1.99915     3.21651    0.03728     5.25295
      N    6   -0.55947      1.99926     5.53817    0.02204     7.55947
      C    7    0.76607      1.99921     3.19829    0.03642     5.23393
      N    8   -0.65723      1.99925     5.63851    0.01946     7.65723
      O    9   -0.49907      1.99972     6.48722    0.01213     8.49907
      C   10   -0.31980      1.99941     4.30659    0.01379     6.31980
      O   11   -0.48968      1.99967     6.47768    0.01233     8.48968
      C   12    0.33457      1.99863     3.64243    0.02438     5.66543
      C   13   -0.24432      1.99898     4.22987    0.01546     6.24432
      C   14   -0.22634      1.99912     4.21164    0.01558     6.22634
      C   15   -0.19202      1.99905     4.17751    0.01546     6.19202
      C   16   -0.05638      1.99904     4.04217    0.01517     6.05638
      C   17   -0.08492      1.99894     4.07078    0.01520     6.08492
      C   18   -0.21512      1.99906     4.19933    0.01672     6.21512
      C   19   -0.22755      1.99912     4.21278    0.01565     6.22755
      C   20   -0.22624      1.99911     4.21177    0.01536     6.22624
      C   21   -0.21664      1.99906     4.20163    0.01596     6.21664
      H   22    0.22714      0.00000     0.77226    0.00060     0.77286
      H   23    0.21815      0.00000     0.78044    0.00142     0.78185
      H   24    0.21765      0.00000     0.78093    0.00142     0.78235
      H   25    0.22702      0.00000     0.77239    0.00060     0.77298
      H   26    0.21699      0.00000     0.78158    0.00143     0.78301
      H   27    0.21704      0.00000     0.78153    0.00143     0.78296
      H   28    0.24979      0.00000     0.74927    0.00095     0.75021
      H   29    0.24019      0.00000     0.75901    0.00080     0.75981
      H   30    0.23397      0.00000     0.76488    0.00115     0.76603
      H   31    0.24456      0.00000     0.75412    0.00132     0.75544
      H   32    0.23589      0.00000     0.76328    0.00083     0.76411
      H   33    0.23563      0.00000     0.76354    0.00083     0.76437
      H   34    0.23055      0.00000     0.76826    0.00119     0.76945
 =======================================================================
   * Total *   -0.00000     41.98337   105.60233    0.41429   148.00000

 Normal termination of Gaussian 09 at Wed Sep 29 02:58:25 2021.
