 Gaussian 09, Revision A.02,

 -----------------------------------
 #p opt b3lyp/6-31G* scf=(xqc,tight)
 -----------------------------------

 -----------------------------------
 CCCCc1ccc(cc1)OC(=O)C(C)(C)C_conf_0
 -----------------------------------
 Symbolic Z-matrix:
 Charge =  0 Multiplicity = 1

 SCF Done:  E(RB3LYP) =  -735.322289325     A.U. after   15 cycles
 SCF Done:  E(RB3LYP) =  -735.325998055     A.U. after   12 cycles
 SCF Done:  E(RB3LYP) =  -735.325672716     A.U. after   15 cycles
 SCF Done:  E(RB3LYP) =  -735.326078115     A.U. after   12 cycles
 SCF Done:  E(RB3LYP) =  -735.326342714     A.U. after   12 cycles
 SCF Done:  E(RB3LYP) =  -735.326373091     A.U. after   15 cycles
 SCF Done:  E(RB3LYP) =  -735.326414387     A.U. after   12 cycles
 SCF Done:  E(RB3LYP) =  -735.326426635     A.U. after   10 cycles
 SCF Done:  E(RB3LYP) =  -735.326427655     A.U. after   11 cycles
 SCF Done:  E(RB3LYP) =  -735.326426792     A.U. after   10 cycles
 SCF Done:  E(RB3LYP) =  -735.326425749     A.U. after    9 cycles
 SCF Done:  E(RB3LYP) =  -735.326426012     A.U. after    7 cycles
 SCF Done:  E(RB3LYP) =  -735.326425478     A.U. after    8 cycles
 SCF Done:  E(RB3LYP) =  -735.326424970     A.U. after    7 cycles
 Optimization completed.
    -- Stationary point found.
 Normal termination of Gaussian 09 at Fri Oct  1 02:21:46 2021.

 ----------------------------------------------------------------------
 #p freq b3lyp/6-31G* volume NMR pop=NPA density=current Geom=AllCheck
 Guess=Read
 ----------------------------------------------------------------------

 CCCCc1ccc(cc1)OC(=O)C(C)(C)C_conf_0
 -----------------------------------
 Redundant internal coordinates taken from checkpoint file:
 C15H22O2_5494_conf_0.chk
 Charge =  0 Multiplicity = 1

 SCF Done:  E(RB3LYP) =  -735.326424970     A.U. after    1 cycles

  1  C    Isotropic =   173.6377   Anisotropy =    24.0797

  2  C    Isotropic =   163.0711   Anisotropy =    20.8429

  3  C    Isotropic =   150.8295   Anisotropy =    42.0876

  4  C    Isotropic =   150.5890   Anisotropy =    32.4182

  5  C    Isotropic =    56.7839   Anisotropy =   182.2781

  6  C    Isotropic =    67.2143   Anisotropy =   148.0169

  7  C    Isotropic =    72.8607   Anisotropy =   150.9775

  8  C    Isotropic =    46.9172   Anisotropy =   108.3741

  9  C    Isotropic =    75.9211   Anisotropy =   139.2396

 10  C    Isotropic =    67.1421   Anisotropy =   148.3623

 11  O    Isotropic =   109.4557   Anisotropy =   160.0751

 12  C    Isotropic =    22.7735   Anisotropy =    77.4931

 13  O    Isotropic =   -62.3748   Anisotropy =   575.3440

 14  C    Isotropic =   149.0110   Anisotropy =    24.0316

 15  C    Isotropic =   162.1039   Anisotropy =    37.3597

 16  C    Isotropic =   162.8516   Anisotropy =    31.2516

 17  C    Isotropic =   162.1847   Anisotropy =    37.7859

 18  H    Isotropic =    31.0303   Anisotropy =    10.1183

 19  H    Isotropic =    31.2435   Anisotropy =     7.7823

 20  H    Isotropic =    31.2266   Anisotropy =     7.7551

 21  H    Isotropic =    30.6234   Anisotropy =     6.1455

 22  H    Isotropic =    30.6134   Anisotropy =     6.1117

 23  H    Isotropic =    30.6210   Anisotropy =     4.2053

 24  H    Isotropic =    30.6252   Anisotropy =     4.0927

 25  H    Isotropic =    29.6814   Anisotropy =     4.6168

 26  H    Isotropic =    29.6209   Anisotropy =     4.6370

 27  H    Isotropic =    25.1139   Anisotropy =     7.6136

 28  H    Isotropic =    25.0710   Anisotropy =     8.8212

 29  H    Isotropic =    25.4795   Anisotropy =     7.0201

 30  H    Isotropic =    25.1353   Anisotropy =     7.4133

 31  H    Isotropic =    30.8692   Anisotropy =     8.0683

 32  H    Isotropic =    30.4662   Anisotropy =     6.1642

 33  H    Isotropic =    31.1204   Anisotropy =     7.8471

 34  H    Isotropic =    30.6422   Anisotropy =     8.0940

 35  H    Isotropic =    31.5100   Anisotropy =     7.8527

 36  H    Isotropic =    30.7171   Anisotropy =     7.9276

 37  H    Isotropic =    30.3739   Anisotropy =     7.2071

 38  H    Isotropic =    30.8869   Anisotropy =     8.0233

 39  H    Isotropic =    31.1399   Anisotropy =     7.9173

  Exact polarizability: 229.892   2.124 146.342   8.133  -9.192 117.466
 Approx polarizability: 269.824   5.525 246.855  19.027 -17.430 175.606

                     1                      2                      3
                     A                      A                      A
 Frequencies --    16.0686                26.2822                29.6592
 Red. masses --     3.1364                 3.7725                 4.0318
 Frc consts  --     0.0005                 0.0015                 0.0021
 IR Inten    --     0.1390                 0.0759                 0.2513

                     4                      5                      6
                     A                      A                      A
 Frequencies --    42.7506                61.8567                77.7983
 Red. masses --     4.6156                 3.3494                 2.0285
 Frc consts  --     0.0050                 0.0076                 0.0072
 IR Inten    --     0.8747                 0.1127                 0.0689

                     7                      8                      9
                     A                      A                      A
 Frequencies --    96.6736               118.8146               166.7630
 Red. masses --     3.8279                 2.2552                 3.9477
 Frc consts  --     0.0211                 0.0188                 0.0647
 IR Inten    --     0.9836                 0.0562                 0.0992

                    10                     11                     12
                     A                      A                      A
 Frequencies --   190.6351               199.9960               227.4609
 Red. masses --     3.1564                 1.2213                 1.5788
 Frc consts  --     0.0676                 0.0288                 0.0481
 IR Inten    --     0.3322                 0.1272                 0.3933

                    13                     14                     15
                     A                      A                      A
 Frequencies --   246.9462               259.7387               272.2509
 Red. masses --     1.1249                 1.0645                 1.4430
 Frc consts  --     0.0404                 0.0423                 0.0630
 IR Inten    --     0.0236                 0.0389                 0.3937

                    16                     17                     18
                     A                      A                      A
 Frequencies --   285.8722               295.2298               325.3244
 Red. masses --     2.7955                 3.4953                 2.7599
 Frc consts  --     0.1346                 0.1795                 0.1721
 IR Inten    --     2.2705                 0.5248                 2.4542

                    19                     20                     21
                     A                      A                      A
 Frequencies --   343.8306               356.2242               375.8193
 Red. masses --     3.3820                 3.2928                 2.3095
 Frc consts  --     0.2356                 0.2462                 0.1922
 IR Inten    --     0.5306                 7.2342                 0.2323

                    22                     23                     24
                     A                      A                      A
 Frequencies --   412.5611               423.4183               440.9804
 Red. masses --     3.4695                 3.0875                 3.9765
 Frc consts  --     0.3479                 0.3261                 0.4556
 IR Inten    --     2.1619                 0.0511                 1.5580

                    25                     26                     27
                     A                      A                      A
 Frequencies --   455.8809               541.5942               570.4215
 Red. masses --     3.2903                 3.1835                 3.7035
 Frc consts  --     0.4029                 0.5502                 0.7100
 IR Inten    --     2.4699                 8.3324                 4.9247

                    28                     29                     30
                     A                      A                      A
 Frequencies --   602.8527               652.9280               732.0990
 Red. masses --     3.7616                 6.6992                 4.3927
 Frc consts  --     0.8055                 1.6827                 1.3871
 IR Inten    --     4.2169                 0.5640                 0.1594

                    31                     32                     33
                     A                      A                      A
 Frequencies --   742.4958               758.3478               776.2319
 Red. masses --     1.0754                 6.5468                 4.0216
 Frc consts  --     0.3493                 2.2183                 1.4277
 IR Inten    --     2.0127                 3.2092                 2.5822

                    34                     35                     36
                     A                      A                      A
 Frequencies --   801.9294               805.7514               835.9254
 Red. masses --     1.4281                 2.1075                 1.2693
 Frc consts  --     0.5411                 0.8062                 0.5226
 IR Inten    --     0.9836                 4.2437                 0.3687

                    37                     38                     39
                     A                      A                      A
 Frequencies --   849.7979               860.8949               905.7177
 Red. masses --     2.3161                 4.0232                 2.9697
 Frc consts  --     0.9855                 1.7568                 1.4353
 IR Inten    --    13.3080                13.4438                10.7626

                    40                     41                     42
                     A                      A                      A
 Frequencies --   919.9384               944.3691               948.8158
 Red. masses --     1.9525                 1.2498                 1.7612
 Frc consts  --     0.9735                 0.6567                 0.9342
 IR Inten    --     6.7705                 0.1073                 1.4105

                    43                     44                     45
                     A                      A                      A
 Frequencies --   955.1849               955.8048               956.4858
 Red. masses --     1.3391                 1.5634                 1.3922
 Frc consts  --     0.7198                 0.8415                 0.7504
 IR Inten    --     0.6747                 2.4194                 0.7234

                    46                     47                     48
                     A                      A                      A
 Frequencies --   980.7410              1016.3056              1039.6385
 Red. masses --     1.1985                 3.7699                 2.7444
 Frc consts  --     0.6792                 2.2942                 1.7477
 IR Inten    --     0.0118                 0.6595                 8.7565

                    49                     50                     51
                     A                      A                      A
 Frequencies --  1058.2162              1061.4737              1065.5910
 Red. masses --     1.4555                 1.4403                 2.4595
 Frc consts  --     0.9603                 0.9561                 1.6454
 IR Inten    --    23.9019                16.5793                 0.7583

                    52                     53                     54
                     A                      A                      A
 Frequencies --  1101.6106              1131.2666              1149.3637
 Red. masses --     1.3706                 2.1929                 2.7177
 Frc consts  --     0.9800                 1.6535                 2.1153
 IR Inten    --     2.0924                32.2229               387.2867

                    55                     56                     57
                     A                      A                      A
 Frequencies --  1150.4797              1201.4446              1232.9022
 Red. masses --     1.4915                 1.2951                 1.9734
 Frc consts  --     1.1631                 1.1014                 1.7673
 IR Inten    --   116.0772                91.2984                89.4720

                    58                     59                     60
                     A                      A                      A
 Frequencies --  1240.3385              1242.2235              1248.8820
 Red. masses --     4.9863                 2.7257                 1.5316
 Frc consts  --     4.5197                 2.4782                 1.4075
 IR Inten    --   175.9735                11.7573                 0.8493

                    61                     62                     63
                     A                      A                      A
 Frequencies --  1265.0277              1296.3983              1309.4840
 Red. masses --     2.9118                 1.3538                 3.1607
 Frc consts  --     2.7455                 1.3405                 3.1933
 IR Inten    --    37.5867                 3.0450                49.3171

                    64                     65                     66
                     A                      A                      A
 Frequencies --  1320.9052              1341.6200              1346.8264
 Red. masses --     1.3413                 1.4238                 1.2100
 Frc consts  --     1.3789                 1.5099                 1.2931
 IR Inten    --     2.2485                 1.1721                 1.3371

                    67                     68                     69
                     A                      A                      A
 Frequencies --  1366.7245              1379.3292              1416.1672
 Red. masses --     2.3718                 1.4269                 1.5593
 Frc consts  --     2.6103                 1.5994                 1.8425
 IR Inten    --     3.3622                 1.4336                 0.9172

                    70                     71                     72
                     A                      A                      A
 Frequencies --  1422.8931              1430.3116              1440.9725
 Red. masses --     1.2104                 1.2328                 1.2431
 Frc consts  --     1.4439                 1.4860                 1.5208
 IR Inten    --     3.7842                 4.5264                 1.5347

                    73                     74                     75
                     A                      A                      A
 Frequencies --  1459.4006              1463.8600              1507.5346
 Red. masses --     1.2223                 2.8042                 1.0484
 Frc consts  --     1.5338                 3.5405                 1.4038
 IR Inten    --    15.8932                 2.2708                 0.0363

                    76                     77                     78
                     A                      A                      A
 Frequencies --  1513.7251              1515.3601              1518.1479
 Red. masses --     1.0818                 1.0451                 1.0704
 Frc consts  --     1.4604                 1.4139                 1.4536
 IR Inten    --     0.2205                 0.2903                 0.6158

                    79                     80                     81
                     A                      A                      A
 Frequencies --  1520.7246              1529.3574              1529.7401
 Red. masses --     1.0457                 1.0490                 1.0423
 Frc consts  --     1.4248                 1.4456                 1.4370
 IR Inten    --     0.1023                 5.4975                 5.8083

                    82                     83                     84
                     A                      A                      A
 Frequencies --  1530.6090              1532.6434              1541.9962
 Red. masses --     1.0737                 1.0541                 1.0888
 Frc consts  --     1.4821                 1.4589                 1.5253
 IR Inten    --     1.1433                 7.6323                 2.8554

                    85                     86                     87
                     A                      A                      A
 Frequencies --  1549.8726              1557.5510              1642.3796
 Red. masses --     1.0974                 2.3262                 6.7515
 Frc consts  --     1.5531                 3.3249                10.7300
 IR Inten    --    55.2598                72.6556                 1.7185

                    88                     89                     90
                     A                      A                      A
 Frequencies --  1667.3781              1830.7911              3022.5507
 Red. masses --     5.9187                12.6828                 1.0588
 Frc consts  --     9.6949                25.0462                 5.6993
 IR Inten    --     8.3884               184.4502                 4.1718

                    91                     92                     93
                     A                      A                      A
 Frequencies --  3027.3242              3037.9599              3042.9952
 Red. masses --     1.0590                 1.0587                 1.0371
 Frc consts  --     5.7185                 5.7569                 5.6580
 IR Inten    --     7.3048                70.1755                48.9701

                    94                     95                     96
                     A                      A                      A
 Frequencies --  3045.7375              3050.0236              3052.2797
 Red. masses --     1.1012                 1.0356                 1.0363
 Frc consts  --     6.0186                 5.6761                 5.6881
 IR Inten    --     1.8373                27.1936                11.9111

                    97                     98                     99
                     A                      A                      A
 Frequencies --  3061.2027              3061.2955              3082.8805
 Red. masses --     1.0367                 1.1040                 1.1059
 Frc consts  --     5.7241                 6.0960                 6.1926
 IR Inten    --    28.6011                 2.9080                43.6750

                   100                    101                    102
                     A                      A                      A
 Frequencies --  3107.9782              3112.2513              3113.2443
 Red. masses --     1.1029                 1.1020                 1.1030
 Frc consts  --     6.2767                 6.2888                 6.2988
 IR Inten    --    63.0932                47.0280                12.5950

                   103                    104                    105
                     A                      A                      A
 Frequencies --  3115.1288              3128.5339              3138.5998
 Red. masses --     1.1024                 1.1016                 1.1025
 Frc consts  --     6.3028                 6.3524                 6.3988
 IR Inten    --    23.6802                41.6538                 6.0602

                   106                    107                    108
                     A                      A                      A
 Frequencies --  3139.7621              3143.6087              3180.7015
 Red. masses --     1.1020                 1.1009                 1.0889
 Frc consts  --     6.4009                 6.4101                 6.4906
 IR Inten    --    19.5957                42.9814                16.1221

                   109                    110                    111
                     A                      A                      A
 Frequencies --  3182.7116              3214.2595              3240.8077
 Red. masses --     1.0894                 1.0933                 1.0929
 Frc consts  --     6.5017                 6.6553                 6.7632
 IR Inten    --    16.8664                 7.9139                 4.3371

 - Thermochemistry -
 -------------------
 Temperature   298.150 Kelvin.  Pressure   1.00000 Atm.
 Atom     1 has atomic number  6 and mass  12.00000

 Molecular mass:   234.16198 amu.
 Principal axes and moments of inertia in atomic units:
                           1         2         3
     Eigenvalues --  1147.51455********************
           X            1.00000   0.00250  -0.00067
           Y           -0.00255   0.99601  -0.08924
           Z            0.00044   0.08924   0.99601
 This molecule is an asymmetric top.
 Rotational symmetry number  1.
 Warning -- assumption of classical behavior for rotation
           may cause significant error
 Rotational temperatures (Kelvin)      0.07548     0.00695     0.00688
 Rotational constants (GHZ):           1.57274     0.14489     0.14334
 Zero-point vibrational energy     896221.1 (Joules/Mol)
                                  214.20198 (Kcal/Mol)
 Warning -- explicit consideration of  28 degrees of freedom as
           vibrations may cause significant error
 Vibrational temperatures:     23.12    37.81    42.67    61.51    89.00
          (Kelvin)            111.93   139.09   170.95   239.93   274.28
                              287.75   327.27   355.30   373.71   391.71
                              411.31   424.77   468.07   494.69   512.53
                              540.72   593.58   609.20   634.47   655.91
                              779.23   820.71   867.37   939.42  1053.33
                             1068.28  1091.09  1116.82  1153.80  1159.30
                             1202.71  1222.67  1238.63  1303.12  1323.58
                             1358.73  1365.13  1374.30  1375.19  1376.17
                             1411.07  1462.24  1495.81  1522.54  1527.22
                             1533.15  1584.97  1627.64  1653.68  1655.28
                             1728.61  1773.87  1784.57  1787.28  1796.86
                             1820.09  1865.23  1884.05  1900.49  1930.29
                             1937.78  1966.41  1984.54  2037.55  2047.22
                             2057.90  2073.24  2099.75  2106.17  2169.00
                             2177.91  2180.26  2184.27  2187.98  2200.40
                             2200.95  2202.20  2205.13  2218.59  2229.92
                             2240.97  2363.02  2398.98  2634.10  4348.77
                             4355.64  4370.94  4378.19  4382.13  4388.30
                             4391.54  4404.38  4404.52  4435.57  4471.68
                             4477.83  4479.26  4481.97  4501.26  4515.74
                             4517.41  4522.95  4576.31  4579.21  4624.60
                             4662.79

 Zero-point correction=                           0.341353 (Hartree/Particle)
 Thermal correction to Energy=                    0.360095
 Thermal correction to Enthalpy=                  0.361039
 Thermal correction to Gibbs Free Energy=         0.291853
 Sum of electronic and zero-point Energies=           -734.985072
 Sum of electronic and thermal Energies=              -734.966330
 Sum of electronic and thermal Enthalpies=            -734.965386
 Sum of electronic and thermal Free Energies=         -735.034572

                     E (Thermal)             CV                S
                      KCal/Mol        Cal/Mol-Kelvin    Cal/Mol-Kelvin
 Total                  225.963             69.413            145.614
 Electronic               0.000              0.000              0.000
 Translational            0.889              2.981             42.254
 Rotational               0.889              2.981             33.553
 Vibrational            224.185             63.451             69.807
 Vibration     1          0.593              1.986              7.069
 Vibration     2          0.593              1.985              6.092
 Vibration     3          0.593              1.984              5.852
 Vibration     4          0.595              1.980              5.127
 Vibration     5          0.597              1.973              4.397
 Vibration     6          0.599              1.964              3.946
 Vibration     7          0.603              1.952              3.520
 Vibration     8          0.609              1.934              3.120
 Vibration     9          0.624              1.883              2.472
 Vibration    10          0.634              1.853              2.222
 Vibration    11          0.638              1.840              2.133
 Vibration    12          0.651              1.799              1.899
 Vibration    13          0.661              1.768              1.752
 Vibration    14          0.668              1.746              1.664
 Vibration    15          0.675              1.724              1.582
 Vibration    16          0.684              1.700              1.498
 Vibration    17          0.689              1.683              1.444
 Vibration    18          0.709              1.625              1.283
 Vibration    19          0.723              1.588              1.194
 Vibration    20          0.732              1.562              1.139
 Vibration    21          0.747              1.522              1.056
 Vibration    22          0.776              1.443              0.918
 Vibration    23          0.786              1.419              0.880
 Vibration    24          0.801              1.381              0.824
 Vibration    25          0.814              1.348              0.778
 Vibration    26          0.897              1.158              0.562
 Vibration    27          0.927              1.095              0.503
 Vibration    28          0.961              1.026              0.445

 Normal termination of Gaussian 09 at Fri Oct  1 03:18:37 2021.
 Gaussian 09:  AM64L-G09RevA.02 11-Jun-2009

 ----------------------------------------------------------------------
 #p TD(NStates=10, Root=1) b3lyp/6-31G* volume pop=NPA density=current
 Geom=AllCheck Guess=Read
 ----------------------------------------------------------------------

 CCCCc1ccc(cc1)OC(=O)C(C)(C)C_conf_0
 -----------------------------------
 Redundant internal coordinates taken from checkpoint file:
 C15H22O2_5494_conf_0.chk
 Charge =  0 Multiplicity = 1

                         Standard orientation:
 ---------------------------------------------------------------------
 Center     Atomic      Atomic             Coordinates (Angstroms)
 Number     Number       Type             X           Y           Z
 ---------------------------------------------------------------------
      1          6           0       -6.888444    0.291580    1.235041
      2          6           0       -6.020078   -0.106800    0.037261
      3          6           0       -4.519380    0.076003    0.294999
      4          6           0       -3.642895   -0.327017   -0.908122
      5          6           0       -2.161776   -0.149814   -0.651392
      6          6           0       -1.402007   -1.175511   -0.072331
      7          6           0       -0.045600   -1.014553    0.207379
      8          6           0        0.567035    0.197941   -0.104302
      9          6           0       -0.159764    1.236491   -0.680271
     10          6           0       -1.516167    1.057495   -0.948384
     11          8           0        1.901265    0.468697    0.212341
     12          6           0        2.900169   -0.392448   -0.168514
     13          8           0        2.704100   -1.413668   -0.781428
     14          6           0        4.264521    0.129934    0.295344
     15          6           0        4.263209    0.228231    1.837828
     16          6           0        5.349240   -0.852658   -0.173217
     17          6           0        4.510855    1.526794   -0.316876
     18          1           0       -7.954024    0.150589    1.021050
     19          1           0       -6.738217    1.345243    1.500422
     20          1           0       -6.643562   -0.309571    2.119288
     21          1           0       -6.312205    0.486427   -0.841081
     22          1           0       -6.217399   -1.155814   -0.226065
     23          1           0       -4.220743   -0.516445    1.171399
     24          1           0       -4.314139    1.124405    0.553847
     25          1           0       -3.939655    0.269584   -1.781069
     26          1           0       -3.849873   -1.374684   -1.164213
     27          1           0       -1.878672   -2.124492    0.163086
     28          1           0        0.528972   -1.820848    0.646887
     29          1           0        0.341999    2.170836   -0.912300
     30          1           0       -2.079789    1.870307   -1.401048
     31          1           0        4.077858   -0.749561    2.297618
     32          1           0        3.498925    0.925154    2.192867
     33          1           0        5.241017    0.581685    2.184859
     34          1           0        5.184100   -1.852585    0.238923
     35          1           0        6.334161   -0.500599    0.153524
     36          1           0        5.358067   -0.942707   -1.263696
     37          1           0        3.752893    2.244374    0.008768
     38          1           0        4.499805    1.486974   -1.412284
     39          1           0        5.494048    1.897493   -0.004735
 ---------------------------------------------------------------------

 SCF Done:  E(RB3LYP) =  -735.326424970     A.U. after    3 cycles

 Excitation energies and oscillator strengths:

 Excited State   1:      Singlet-A      5.2636 eV  235.55 nm  f=0.0035  <S**2>=0.000
      63 -> 65        -0.42708
      63 -> 67        -0.12348
      64 -> 66         0.54181
 This state for optimization and/or second-order correction.
 Total Energy, E(TD-HF/TD-KS) =  -735.132991827
 Copying the excited state density for this state as the 1-particle RhoCI density.

 Excited State   2:      Singlet-A      5.4737 eV  226.51 nm  f=0.1411  <S**2>=0.000
      62 -> 65         0.32857
      62 -> 67        -0.19160
      63 -> 67         0.12461
      64 -> 65         0.52679
      64 -> 66        -0.11035
      64 -> 67        -0.17549

 Excited State   3:      Singlet-A      5.5832 eV  222.07 nm  f=0.0896  <S**2>=0.000
      62 -> 65         0.43641
      62 -> 67        -0.23491
      63 -> 65        -0.17419
      63 -> 66        -0.10190
      63 -> 67         0.16481
      64 -> 65        -0.39848
      64 -> 66        -0.11845

 Excited State   4:      Singlet-A      6.1864 eV  200.42 nm  f=0.0092  <S**2>=0.000
      63 -> 66         0.37428
      64 -> 67         0.57629

 Excited State   5:      Singlet-A      6.3343 eV  195.73 nm  f=0.0324  <S**2>=0.000
      62 -> 65         0.28800
      62 -> 67        -0.13514
      63 -> 65         0.42789
      63 -> 67        -0.39855
      64 -> 66         0.21976

 Excited State   6:      Singlet-A      6.5142 eV  190.33 nm  f=0.1467  <S**2>=0.000
      62 -> 66         0.63276
      63 -> 66        -0.22687
      64 -> 65         0.11124
      64 -> 67         0.17220

 Excited State   7:      Singlet-A      6.7194 eV  184.52 nm  f=0.0428  <S**2>=0.000
      62 -> 65         0.28584
      62 -> 67         0.51994
      63 -> 65        -0.18619
      63 -> 67        -0.26442
      64 -> 66        -0.14346

 Excited State   8:      Singlet-A      6.9828 eV  177.56 nm  f=0.7478  <S**2>=0.000
      61 -> 65         0.23922
      62 -> 66         0.28026
      63 -> 66         0.49530
      64 -> 65        -0.15938
      64 -> 67        -0.25034

 Excited State   9:      Singlet-A      7.1182 eV  174.18 nm  f=0.1942  <S**2>=0.000
      61 -> 66        -0.23982
      62 -> 65         0.16527
      62 -> 67         0.29467
      63 -> 65         0.20445
      63 -> 67         0.41799
      64 -> 66         0.29530

 Excited State  10:      Singlet-A      7.4297 eV  166.88 nm  f=0.1181  <S**2>=0.000
      60 -> 65         0.11552
      61 -> 65         0.57750
      61 -> 67         0.16909
      62 -> 67        -0.10781
      63 -> 66        -0.15497
      64 -> 67         0.13113

 The electronic state is 1-A.
 Alpha  occ. eigenvalues --  -19.19710 -19.13829 -10.31445 -10.24701 -10.21327
 Alpha  occ. eigenvalues --  -10.19310 -10.19054 -10.18981 -10.18945 -10.18870
 Alpha  occ. eigenvalues --  -10.18589 -10.18218 -10.18179 -10.18112 -10.18087
 Alpha  occ. eigenvalues --  -10.17373 -10.17353  -1.10375  -1.02122  -0.85745
 Alpha  occ. eigenvalues --   -0.82355  -0.79915  -0.76196  -0.74718  -0.71373
 Alpha  occ. eigenvalues --   -0.69155  -0.68630  -0.66055  -0.62236  -0.61505
 Alpha  occ. eigenvalues --   -0.58289  -0.57509  -0.55189  -0.49312  -0.48485
 Alpha  occ. eigenvalues --   -0.48008  -0.47126  -0.46376  -0.44899  -0.44148
 Alpha  occ. eigenvalues --   -0.43205  -0.42863  -0.42350  -0.42279  -0.41190
 Alpha  occ. eigenvalues --   -0.40023  -0.39081  -0.38874  -0.38189  -0.37381
 Alpha  occ. eigenvalues --   -0.36815  -0.36012  -0.35437  -0.35029  -0.34183
 Alpha  occ. eigenvalues --   -0.33593  -0.33366  -0.33093  -0.32438  -0.32162
 Alpha  occ. eigenvalues --   -0.30959  -0.26969  -0.24896  -0.23020
 Alpha virt. eigenvalues --   -0.00634  -0.00092   0.02064   0.08348   0.08654
 Alpha virt. eigenvalues --    0.10000   0.11980   0.12233   0.12771   0.13801
 Alpha virt. eigenvalues --    0.14162   0.15168   0.15218   0.15597   0.15919

 Mulliken atomic charges:
              1
     1  C   -0.442280
     2  C   -0.246396
     3  C   -0.242178
     4  C   -0.351583
     5  C    0.185274
     6  C   -0.204167
     7  C   -0.146652
     8  C    0.341365
     9  C   -0.165298
    10  C   -0.203542
    11  O   -0.516847
    12  C    0.619740
    13  O   -0.456373
    14  C   -0.005985
    15  C   -0.451523
    16  C   -0.434476
    17  C   -0.450336
    18  H    0.144315
    19  H    0.143562
    20  H    0.143802
    21  H    0.132434
    22  H    0.132780
    23  H    0.137695
    24  H    0.137312
    25  H    0.142057
    26  H    0.143524
    27  H    0.129267
    28  H    0.149098
    29  H    0.139525
    30  H    0.126860
    31  H    0.150209
    32  H    0.163403
    33  H    0.147404
    34  H    0.155597
    35  H    0.136681
    36  H    0.156215
    37  H    0.161290
    38  H    0.151332
    39  H    0.146896
 Sum of Mulliken atomic charges =  -0.00000

 Dipole moment (field-independent basis, Debye):
    X=             -0.6909    Y=              1.3533    Z=              0.9225  Tot=              1.7776
 Quadrupole moment (field-independent basis, Debye-Ang):
   XX=            -91.2586   YY=           -103.3860   ZZ=           -105.4348
   XY=              4.8814   XZ=              4.3978   YZ=             -4.5273

 Summary of Natural Population Analysis:

                                       Natural Population
                Natural  -----------------------------------------------
    Atom  No    Charge         Core      Valence    Rydberg      Total
 -----------------------------------------------------------------------
      C    1   -0.67279      1.99946     4.66583    0.00750     6.67279
      C    2   -0.45436      1.99935     4.44505    0.00996     6.45436
      C    3   -0.44284      1.99931     4.43263    0.01090     6.44284
      C    4   -0.47217      1.99928     4.45969    0.01320     6.47217
      C    5    0.00012      1.99906     3.98292    0.01790     5.99988
      C    6   -0.22831      1.99907     4.21199    0.01726     6.22831
      C    7   -0.27766      1.99903     4.26032    0.01830     6.27766
      C    8    0.31424      1.99873     3.66329    0.02373     5.68576
      C    9   -0.26097      1.99904     4.24325    0.01869     6.26097
      C   10   -0.24222      1.99906     4.22579    0.01736     6.24222
      O   11   -0.52447      1.99969     6.51350    0.01127     8.52447
      C   12    0.81530      1.99927     3.13655    0.04888     5.18470
      O   13   -0.56320      1.99977     6.54336    0.02006     8.56320
      C   14   -0.14870      1.99905     4.13715    0.01250     6.14870
      C   15   -0.66978      1.99938     4.66066    0.00974     6.66978
      C   16   -0.66985      1.99939     4.65940    0.01105     6.66985
      C   17   -0.66953      1.99938     4.66031    0.00983     6.66953
      H   18    0.23313      0.00000     0.76604    0.00083     0.76687
      H   19    0.22536      0.00000     0.77357    0.00107     0.77464
      H   20    0.22549      0.00000     0.77344    0.00107     0.77451
      H   21    0.22683      0.00000     0.77150    0.00167     0.77317
      H   22    0.22701      0.00000     0.77132    0.00167     0.77299
      H   23    0.23103      0.00000     0.76709    0.00188     0.76897
      H   24    0.23092      0.00000     0.76720    0.00188     0.76908
      H   25    0.23905      0.00000     0.75884    0.00211     0.76095
      H   26    0.24000      0.00000     0.75791    0.00209     0.76000
      H   27    0.22983      0.00000     0.76912    0.00105     0.77017
      H   28    0.24829      0.00000     0.75065    0.00106     0.75171
      H   29    0.24038      0.00000     0.75842    0.00120     0.75962
      H   30    0.22933      0.00000     0.76962    0.00105     0.77067
      H   31    0.23556      0.00000     0.76349    0.00094     0.76444
      H   32    0.24343      0.00000     0.75551    0.00106     0.75657
      H   33    0.23408      0.00000     0.76471    0.00121     0.76592
      H   34    0.24258      0.00000     0.75637    0.00105     0.75742
      H   35    0.22961      0.00000     0.76947    0.00092     0.77039
      H   36    0.24277      0.00000     0.75619    0.00104     0.75723
      H   37    0.24242      0.00000     0.75644    0.00114     0.75758
      H   38    0.23620      0.00000     0.76288    0.00092     0.76380
      H   39    0.23389      0.00000     0.76503    0.00109     0.76611
 =======================================================================
   * Total *    0.00000     33.98734    93.70650    0.30615   128.00000

 Normal termination of Gaussian 09 at Fri Oct  1 06:28:56 2021.
