 Gaussian 09, Revision A.02,

 -----------------------------------
 #p opt b3lyp/6-31G* scf=(xqc,tight)
 -----------------------------------

 --------------------------------------
 C=CC[Si](Oc1ccc2c(c1)cccc2)(C)C_conf_0
 --------------------------------------
 Symbolic Z-matrix:
 Charge =  0 Multiplicity = 1

 SCF Done:  E(RB3LYP) =  -947.210407758     A.U. after   14 cycles
 SCF Done:  E(RB3LYP) =  -947.215958419     A.U. after   12 cycles
 SCF Done:  E(RB3LYP) =  -947.216756677     A.U. after   12 cycles
 SCF Done:  E(RB3LYP) =  -947.216926236     A.U. after   12 cycles
 SCF Done:  E(RB3LYP) =  -947.216990489     A.U. after   12 cycles
 SCF Done:  E(RB3LYP) =  -947.217007159     A.U. after   11 cycles
 SCF Done:  E(RB3LYP) =  -947.217024730     A.U. after   11 cycles
 SCF Done:  E(RB3LYP) =  -947.217039310     A.U. after   11 cycles
 SCF Done:  E(RB3LYP) =  -947.217057611     A.U. after   11 cycles
 SCF Done:  E(RB3LYP) =  -947.217073691     A.U. after   10 cycles
 SCF Done:  E(RB3LYP) =  -947.217083729     A.U. after    7 cycles
 SCF Done:  E(RB3LYP) =  -947.217084420     A.U. after    7 cycles
 SCF Done:  E(RB3LYP) =  -947.217085205     A.U. after    8 cycles
 SCF Done:  E(RB3LYP) =  -947.217086133     A.U. after    8 cycles
 SCF Done:  E(RB3LYP) =  -947.217086711     A.U. after    8 cycles
 SCF Done:  E(RB3LYP) =  -947.217086837     A.U. after    7 cycles
 SCF Done:  E(RB3LYP) =  -947.217086900     A.U. after    6 cycles
 SCF Done:  E(RB3LYP) =  -947.217086934     A.U. after    6 cycles
 Optimization completed.
    -- Stationary point found.
 Normal termination of Gaussian 09 at Tue Sep 28 22:04:04 2021.

 ----------------------------------------------------------------------
 #p freq b3lyp/6-31G* volume NMR pop=NPA density=current Geom=AllCheck
 Guess=Read
 ----------------------------------------------------------------------

 C=CC[Si](Oc1ccc2c(c1)cccc2)(C)C_conf_0
 --------------------------------------
 Redundant internal coordinates taken from checkpoint file:
 C15H18OSi_a4e1_conf_0.chk
 Charge =  0 Multiplicity = 1

 SCF Done:  E(RB3LYP) =  -947.217086934     A.U. after    1 cycles

  1  C    Isotropic =    81.9346   Anisotropy =   118.2274

  2  C    Isotropic =    63.0454   Anisotropy =   156.1591

  3  C    Isotropic =   163.8245   Anisotropy =    30.2997

  4  Si   Isotropic =   392.3674   Anisotropy =    31.8358

  5  O    Isotropic =   215.7630   Anisotropy =    78.8031

  6  C    Isotropic =    42.3400   Anisotropy =   118.4588

  7  C    Isotropic =    74.0712   Anisotropy =   133.7069

  8  C    Isotropic =    65.7571   Anisotropy =   143.3055

  9  C    Isotropic =    67.9813   Anisotropy =   192.7980

 10  C    Isotropic =    62.0988   Anisotropy =   193.4625

 11  C    Isotropic =    83.6555   Anisotropy =   104.2806

 12  C    Isotropic =    69.5660   Anisotropy =   141.3266

 13  C    Isotropic =    69.9686   Anisotropy =   161.9838

 14  C    Isotropic =    72.7780   Anisotropy =   157.3837

 15  C    Isotropic =    67.8544   Anisotropy =   146.0715

 16  C    Isotropic =   191.3417   Anisotropy =    10.7999

 17  C    Isotropic =   189.5979   Anisotropy =     8.4592

 18  H    Isotropic =    27.3494   Anisotropy =     6.8060

 19  H    Isotropic =    27.2469   Anisotropy =     6.9118

 20  H    Isotropic =    26.2716   Anisotropy =     7.3286

 21  H    Isotropic =    29.9345   Anisotropy =     6.4722

 22  H    Isotropic =    30.7643   Anisotropy =     5.7683

 23  H    Isotropic =    25.1780   Anisotropy =     7.5154

 24  H    Isotropic =    24.6323   Anisotropy =     6.5935

 25  H    Isotropic =    25.2712   Anisotropy =    10.3706

 26  H    Isotropic =    24.7673   Anisotropy =     8.4265

 27  H    Isotropic =    24.8705   Anisotropy =     5.4472

 28  H    Isotropic =    24.9968   Anisotropy =     4.6550

 29  H    Isotropic =    24.6674   Anisotropy =     6.7132

 30  H    Isotropic =    31.4437   Anisotropy =     8.3838

 31  H    Isotropic =    31.9208   Anisotropy =     9.5631

 32  H    Isotropic =    32.4477   Anisotropy =     9.9880

 33  H    Isotropic =    31.4608   Anisotropy =     8.9676

 34  H    Isotropic =    32.2334   Anisotropy =     9.7125

 35  H    Isotropic =    31.8368   Anisotropy =     9.0699

  Exact polarizability: 256.566 -17.212 143.461  -4.734  27.012 147.098
 Approx polarizability: 371.969 -37.245 232.246 -10.014  67.945 231.740

                     1                      2                      3
                     A                      A                      A
 Frequencies --    14.2558                23.9877                49.0245
 Red. masses --     4.3961                 3.9125                 3.3229
 Frc consts  --     0.0005                 0.0013                 0.0047
 IR Inten    --     0.1828                 0.0523                 0.4593

                     4                      5                      6
                     A                      A                      A
 Frequencies --    67.1388                83.1608               115.4049
 Red. masses --     3.5654                 2.9426                 2.9583
 Frc consts  --     0.0095                 0.0120                 0.0232
 IR Inten    --     0.1645                 0.2196                 0.0642

                     7                      8                      9
                     A                      A                      A
 Frequencies --   123.4360               135.2114               142.1533
 Red. masses --     1.1048                 2.0587                 1.1815
 Frc consts  --     0.0099                 0.0222                 0.0141
 IR Inten    --     0.1149                 0.2155                 0.1161

                    10                     11                     12
                     A                      A                      A
 Frequencies --   182.8717               185.7873               199.2939
 Red. masses --     3.1857                 2.9290                 2.9218
 Frc consts  --     0.0628                 0.0596                 0.0684
 IR Inten    --     0.2047                 0.5633                 0.5032

                    13                     14                     15
                     A                      A                      A
 Frequencies --   213.9498               227.2866               296.7303
 Red. masses --     2.9273                 3.4264                 4.0119
 Frc consts  --     0.0789                 0.1043                 0.2081
 IR Inten    --     2.7164                 2.9112                 2.4600

                    16                     17                     18
                     A                      A                      A
 Frequencies --   311.9613               347.2510               395.7075
 Red. masses --     4.2955                 3.6124                 2.7526
 Frc consts  --     0.2463                 0.2566                 0.2539
 IR Inten    --     5.7138                12.7912                 1.7437

                    19                     20                     21
                     A                      A                      A
 Frequencies --   411.9373               415.0859               468.8082
 Red. masses --     3.3553                 2.7850                 5.7260
 Frc consts  --     0.3355                 0.2827                 0.7415
 IR Inten    --     0.6132                 5.9692                 4.7893

                    22                     23                     24
                     A                      A                      A
 Frequencies --   486.2507               524.5101               547.0007
 Red. masses --     2.5367                 6.1990                 3.6378
 Frc consts  --     0.3534                 1.0048                 0.6413
 IR Inten    --     7.8237                 0.8016                 0.5439

                    25                     26                     27
                     A                      A                      A
 Frequencies --   559.2801               635.7912               642.9554
 Red. masses --     2.5262                 5.5238                 4.1497
 Frc consts  --     0.4656                 1.3156                 1.0107
 IR Inten    --     5.8634                14.5215                17.2640

                    28                     29                     30
                     A                      A                      A
 Frequencies --   655.3788               675.8337               698.7152
 Red. masses --     2.9178                 3.3780                 2.0448
 Frc consts  --     0.7384                 0.9091                 0.5882
 IR Inten    --     0.0838                26.2607                 8.2207

                    31                     32                     33
                     A                      A                      A
 Frequencies --   708.8112               728.8128               762.8619
 Red. masses --     1.6417                 1.5230                 1.3711
 Frc consts  --     0.4860                 0.4766                 0.4701
 IR Inten    --     2.3077                 9.4488                20.1523

                    34                     35                     36
                     A                      A                      A
 Frequencies --   770.1485               785.0470               787.8699
 Red. masses --     2.6128                 4.5364                 1.4957
 Frc consts  --     0.9131                 1.6472                 0.5470
 IR Inten    --     0.5699                 0.5304                14.9953

                    37                     38                     39
                     A                      A                      A
 Frequencies --   827.1999               829.4439               845.7000
 Red. masses --     2.8268                 1.3478                 2.0926
 Frc consts  --     1.1397                 0.5463                 0.8818
 IR Inten    --     6.9677                 6.8665                55.8503

                    40                     41                     42
                     A                      A                      A
 Frequencies --   857.0752               884.3663               887.2251
 Red. masses --     1.5823                 1.7629                 1.7602
 Frc consts  --     0.6848                 0.8124                 0.8164
 IR Inten    --    53.2438               103.2198               106.6550

                    43                     44                     45
                     A                      A                      A
 Frequencies --   890.7521               921.2376               940.8873
 Red. masses --     1.8625                 1.3611                 5.1789
 Frc consts  --     0.8707                 0.6806                 2.7012
 IR Inten    --   198.1339                42.5409               103.9005

                    46                     47                     48
                     A                      A                      A
 Frequencies --   948.0520               949.0839               965.6736
 Red. masses --     2.0134                 1.3473                 1.2955
 Frc consts  --     1.0662                 0.7150                 0.7118
 IR Inten    --    19.2341                 7.5589                 0.2958

                    49                     50                     51
                     A                      A                      A
 Frequencies --   985.5222               993.9474              1033.3527
 Red. masses --     1.2659                 3.4748                 1.1074
 Frc consts  --     0.7244                 2.0226                 0.6967
 IR Inten    --     0.0223               120.2919                10.7202

                    52                     53                     54
                     A                      A                      A
 Frequencies --  1052.2866              1070.7447              1152.0553
 Red. masses --     2.2752                 1.3250                 1.5967
 Frc consts  --     1.4844                 0.8950                 1.2486
 IR Inten    --     0.8064                37.4625                22.0962

                    55                     56                     57
                     A                      A                      A
 Frequencies --  1176.2457              1187.4227              1211.4453
 Red. masses --     1.2361                 1.1796                 1.5166
 Frc consts  --     1.0076                 0.9799                 1.3113
 IR Inten    --     1.6934                 2.0424                63.9396

                    58                     59                     60
                     A                      A                      A
 Frequencies --  1221.2851              1231.6272              1260.7060
 Red. masses --     1.5586                 1.4233                 2.0687
 Frc consts  --     1.3696                 1.2720                 1.9372
 IR Inten    --    72.3084                14.4335                95.7444

                    61                     62                     63
                     A                      A                      A
 Frequencies --  1295.6521              1303.5047              1331.7156
 Red. masses --     1.8458                 2.6529                 1.2578
 Frc consts  --     1.8256                 2.6558                 1.3143
 IR Inten    --    61.7762               225.0513                35.7826

                    64                     65                     66
                     A                      A                      A
 Frequencies --  1338.3129              1340.6625              1393.2603
 Red. masses --     1.2402                 1.2369                 2.0602
 Frc consts  --     1.3088                 1.3098                 2.3563
 IR Inten    --    47.1732                 0.0346                18.9419

                    67                     68                     69
                     A                      A                      A
 Frequencies --  1413.1214              1426.5910              1460.4902
 Red. masses --     6.0458                 3.9626                 1.1290
 Frc consts  --     7.1132                 4.7515                 1.4188
 IR Inten    --     4.7635                72.7656                 9.2861

                    70                     71                     72
                     A                      A                      A
 Frequencies --  1484.7110              1487.2291              1489.3921
 Red. masses --     1.1124                 1.8659                 1.1867
 Frc consts  --     1.4448                 2.4316                 1.5510
 IR Inten    --     4.7170                14.4146                 0.2526

                    73                     74                     75
                     A                      A                      A
 Frequencies --  1491.1501              1496.5029              1502.8776
 Red. masses --     1.1361                 1.0588                 1.0527
 Frc consts  --     1.4884                 1.3971                 1.4009
 IR Inten    --     5.1556                 1.5110                 4.5673

                    76                     77                     78
                     A                      A                      A
 Frequencies --  1519.6264              1561.8931              1626.8995
 Red. masses --     2.3357                 3.4250                 6.9636
 Frc consts  --     3.1780                 4.9228                10.8594
 IR Inten    --   110.8892                55.1329                 9.8357

                    79                     80                     81
                     A                      A                      A
 Frequencies --  1660.3188              1684.8915              1721.0212
 Red. masses --     5.3567                 6.1721                 4.2929
 Frc consts  --     8.7002                10.3235                 7.4917
 IR Inten    --    93.2372                87.0292                18.1677

                    82                     83                     84
                     A                      A                      A
 Frequencies --  3025.2417              3045.5573              3050.7504
 Red. masses --     1.0585                 1.0362                 1.0361
 Frc consts  --     5.7075                 5.6629                 5.6815
 IR Inten    --    12.4362                 4.0519                 3.6219

                    85                     86                     87
                     A                      A                      A
 Frequencies --  3068.4523              3115.6671              3121.6612
 Red. masses --     1.1014                 1.0998                 1.0996
 Frc consts  --     6.1098                 6.2901                 6.3133
 IR Inten    --    20.1996                10.7088                17.7740

                    88                     89                     90
                     A                      A                      A
 Frequencies --  3126.0988              3135.8525              3149.6452
 Red. masses --     1.1005                 1.1009                 1.0694
 Frc consts  --     6.3365                 6.3785                 6.2504
 IR Inten    --    13.8766                 7.6403                21.3717

                    91                     92                     93
                     A                      A                      A
 Frequencies --  3156.6164              3174.6281              3178.7353
 Red. masses --     1.0804                 1.0857                 1.0883
 Frc consts  --     6.3425                 6.4466                 6.4790
 IR Inten    --     4.8078                 5.5447                 0.2215

                    94                     95                     96
                     A                      A                      A
 Frequencies --  3183.8588              3193.5625              3199.5620
 Red. masses --     1.0884                 1.0929                 1.0897
 Frc consts  --     6.5005                 6.5671                 6.5728
 IR Inten    --    12.9356                29.9065                31.4046

                    97                     98                     99
                     A                      A                      A
 Frequencies --  3207.7450              3216.9661              3235.0706
 Red. masses --     1.0969                 1.0937                 1.1151
 Frc consts  --     6.6501                 6.6688                 6.8757
 IR Inten    --    32.1730                 9.1079                19.8498

 - Thermochemistry -
 -------------------
 Temperature   298.150 Kelvin.  Pressure   1.00000 Atm.
 Atom     1 has atomic number  6 and mass  12.00000

 Molecular mass:   242.11269 amu.
 Principal axes and moments of inertia in atomic units:
                           1         2         3
     Eigenvalues --  2257.898328409.609738595.51586
           X            1.00000   0.00007   0.00180
           Y           -0.00012   0.99971   0.02421
           Z           -0.00180  -0.02421   0.99971
 This molecule is an asymmetric top.
 Rotational symmetry number  1.
 Warning -- assumption of classical behavior for rotation
           may cause significant error
 Rotational temperatures (Kelvin)      0.03836     0.01030     0.01008
 Rotational constants (GHZ):           0.79930     0.21460     0.20996
 Zero-point vibrational energy     755552.7 (Joules/Mol)
                                  180.58142 (Kcal/Mol)
 Warning -- explicit consideration of  25 degrees of freedom as
           vibrations may cause significant error
 Vibrational temperatures:     20.51    34.51    70.54    96.60   119.65
          (Kelvin)            166.04   177.60   194.54   204.53   263.11
                              267.31   286.74   307.83   327.01   426.93
                              448.84   499.62   569.33   592.69   597.22
                              674.51   699.61   754.65   787.01   804.68
                              914.76   925.07   942.94   972.37  1005.29
                             1019.82  1048.60  1097.59  1108.07  1129.51
                             1133.57  1190.15  1193.38  1216.77  1233.14
                             1272.40  1276.52  1281.59  1325.45  1353.73
                             1364.03  1365.52  1389.39  1417.94  1430.07
                             1486.76  1514.00  1540.56  1657.55  1692.35
                             1708.43  1743.00  1757.15  1772.03  1813.87
                             1864.15  1875.45  1916.04  1925.53  1928.91
                             2004.59  2033.16  2052.54  2101.32  2136.17
                             2139.79  2142.90  2145.43  2153.13  2162.30
                             2186.40  2247.21  2340.74  2388.83  2424.18
                             2476.16  4352.64  4381.87  4389.34  4414.81
                             4482.74  4491.37  4497.75  4511.79  4531.63
                             4541.66  4567.58  4573.49  4580.86  4594.82
                             4603.45  4615.22  4628.49  4654.54

 Zero-point correction=                           0.287775 (Hartree/Particle)
 Thermal correction to Energy=                    0.305771
 Thermal correction to Enthalpy=                  0.306716
 Thermal correction to Gibbs Free Energy=         0.239877
 Sum of electronic and zero-point Energies=           -946.929312
 Sum of electronic and thermal Energies=              -946.911315
 Sum of electronic and thermal Enthalpies=            -946.910371
 Sum of electronic and thermal Free Energies=         -946.977210

                     E (Thermal)             CV                S
                      KCal/Mol        Cal/Mol-Kelvin    Cal/Mol-Kelvin
 Total                  191.874             68.040            140.673
 Electronic               0.000              0.000              0.000
 Translational            0.889              2.981             42.354
 Rotational               0.889              2.981             33.456
 Vibrational            190.097             62.078             64.863
 Vibration     1          0.593              1.986              7.307
 Vibration     2          0.593              1.985              6.273
 Vibration     3          0.595              1.978              4.856
 Vibration     4          0.598              1.970              4.236
 Vibration     5          0.600              1.961              3.815
 Vibration     6          0.608              1.937              3.176
 Vibration     7          0.610              1.929              3.046
 Vibration     8          0.613              1.918              2.871
 Vibration     9          0.616              1.911              2.775
 Vibration    10          0.630              1.863              2.299
 Vibration    11          0.632              1.859              2.269
 Vibration    12          0.637              1.841              2.140
 Vibration    13          0.644              1.820              2.010
 Vibration    14          0.651              1.799              1.900
 Vibration    15          0.690              1.680              1.435
 Vibration    16          0.700              1.651              1.352
 Vibration    17          0.725              1.581              1.179
 Vibration    18          0.762              1.479              0.979
 Vibration    19          0.776              1.444              0.920
 Vibration    20          0.778              1.437              0.909
 Vibration    21          0.826              1.319              0.741
 Vibration    22          0.842              1.281              0.693
 Vibration    23          0.879              1.196              0.600
 Vibration    24          0.902              1.146              0.550
 Vibration    25          0.915              1.119              0.525

 Normal termination of Gaussian 09 at Tue Sep 28 23:18:13 2021.
 Gaussian 09:  AM64L-G09RevA.02 11-Jun-2009

 ----------------------------------------------------------------------
 #p TD(NStates=10, Root=1) b3lyp/6-31G* volume pop=NPA density=current
 Geom=AllCheck Guess=Read
 ----------------------------------------------------------------------

 C=CC[Si](Oc1ccc2c(c1)cccc2)(C)C_conf_0
 --------------------------------------
 Redundant internal coordinates taken from checkpoint file:
 C15H18OSi_a4e1_conf_0.chk
 Charge =  0 Multiplicity = 1

                         Standard orientation:
 ---------------------------------------------------------------------
 Center     Atomic      Atomic             Coordinates (Angstroms)
 Number     Number       Type             X           Y           Z
 ---------------------------------------------------------------------
      1          6           0        3.688757    2.136478   -1.949118
      2          6           0        2.631960    1.738075   -1.236100
      3          6           0        2.628586    1.447841    0.238007
      4         14           0        2.518793   -0.411568    0.638360
      5          8           0        1.248354   -1.126868   -0.219993
      6          6           0       -0.090233   -0.880129   -0.283954
      7          6           0       -0.822648   -1.681571   -1.202882
      8          6           0       -2.177534   -1.515447   -1.345295
      9          6           0       -2.885676   -0.544896   -0.584718
     10          6           0       -2.148908    0.262063    0.341687
     11          6           0       -0.746648    0.071932    0.471876
     12          6           0       -2.852482    1.232609    1.105294
     13          6           0       -4.212367    1.397114    0.960559
     14          6           0       -4.938919    0.599044    0.044078
     15          6           0       -4.285809   -0.350412   -0.710403
     16          6           0        4.040179   -1.311367    0.011652
     17          6           0        2.289429   -0.671491    2.492714
     18          1           0        3.622750    2.303408   -3.020731
     19          1           0        4.658025    2.316863   -1.487541
     20          1           0        1.683720    1.575923   -1.749840
     21          1           0        1.793548    1.968856    0.726918
     22          1           0        3.549986    1.824910    0.704727
     23          1           0       -0.277018   -2.420606   -1.781140
     24          1           0       -2.728365   -2.133241   -2.050814
     25          1           0       -0.203249    0.688635    1.181601
     26          1           0       -2.297418    1.847712    1.810129
     27          1           0       -4.733919    2.144449    1.552832
     28          1           0       -6.011300    0.738742   -0.060878
     29          1           0       -4.836854   -0.967768   -1.416440
     30          1           0        4.210782   -1.092428   -1.047674
     31          1           0        3.928497   -2.395736    0.121878
     32          1           0        4.936102   -1.007665    0.566704
     33          1           0        1.372853   -0.208020    2.873679
     34          1           0        3.133644   -0.245456    3.049276
     35          1           0        2.242140   -1.740743    2.729849
 ---------------------------------------------------------------------

 SCF Done:  E(RB3LYP) =  -947.217086934     A.U. after    1 cycles

 Excitation energies and oscillator strengths:

 Excited State   1:      Singlet-A      4.2042 eV  294.90 nm  f=0.0373  <S**2>=0.000
      64 -> 66         0.18768
      64 -> 67         0.17345
      65 -> 66         0.62748
      65 -> 67        -0.19027
 This state for optimization and/or second-order correction.
 Total Energy, E(TD-HF/TD-KS) =  -947.062584287
 Copying the excited state density for this state as the 1-particle RhoCI density.

 Excited State   2:      Singlet-A      4.5475 eV  272.64 nm  f=0.0115  <S**2>=0.000
      64 -> 66         0.49556
      65 -> 66        -0.27305
      65 -> 67        -0.41080

 Excited State   3:      Singlet-A      5.1397 eV  241.23 nm  f=0.0181  <S**2>=0.000
      63 -> 66         0.67696
      64 -> 66        -0.17443

 Excited State   4:      Singlet-A      5.6139 eV  220.85 nm  f=0.0070  <S**2>=0.000
      65 -> 68         0.69655

 Excited State   5:      Singlet-A      5.6529 eV  219.33 nm  f=0.4634  <S**2>=0.000
      62 -> 66        -0.36621
      63 -> 66        -0.12750
      64 -> 66        -0.27456
      65 -> 67        -0.33840
      65 -> 69         0.36912

 Excited State   6:      Singlet-A      5.7953 eV  213.94 nm  f=0.5674  <S**2>=0.000
      62 -> 66        -0.24767
      63 -> 67        -0.14616
      64 -> 66         0.23221
      64 -> 67         0.32390
      65 -> 67         0.34534
      65 -> 69         0.33932

 Excited State   7:      Singlet-A      5.9143 eV  209.63 nm  f=0.2614  <S**2>=0.000
      61 -> 66         0.14424
      62 -> 67         0.15807
      63 -> 67        -0.11956
      64 -> 66        -0.18156
      64 -> 67         0.46735
      64 -> 69        -0.15268
      65 -> 66        -0.11157
      65 -> 67        -0.13493
      65 -> 69        -0.30873

 Excited State   8:      Singlet-A      6.0852 eV  203.75 nm  f=0.0779  <S**2>=0.000
      62 -> 66        -0.10945
      63 -> 67         0.66006
      64 -> 69        -0.10679
      65 -> 67         0.10010

 Excited State   9:      Singlet-A      6.2193 eV  199.36 nm  f=0.1529  <S**2>=0.000
      62 -> 66         0.27896
      62 -> 67        -0.21657
      63 -> 67         0.14255
      64 -> 66        -0.10157
      64 -> 67         0.30617
      64 -> 68        -0.12546
      64 -> 69         0.40196
      65 -> 69         0.18307

 Excited State  10:      Singlet-A      6.2891 eV  197.14 nm  f=0.0069  <S**2>=0.000
      64 -> 68         0.68896

 The electronic state is 1-A.
 Alpha  occ. eigenvalues --  -66.15318 -19.15752 -10.25022 -10.19600 -10.19099
 Alpha  occ. eigenvalues --  -10.19009 -10.18972 -10.18690 -10.18642 -10.18527
 Alpha  occ. eigenvalues --  -10.18509 -10.18438 -10.18351 -10.17724 -10.17237
 Alpha  occ. eigenvalues --  -10.16877 -10.16355  -5.29414  -3.65530  -3.65205
 Alpha  occ. eigenvalues --   -3.65182  -1.02977  -0.86551  -0.81096  -0.78116
 Alpha  occ. eigenvalues --   -0.76749  -0.73340  -0.71443  -0.70709  -0.68239
 Alpha  occ. eigenvalues --   -0.67466  -0.62836  -0.60625  -0.59398  -0.55209
 Alpha  occ. eigenvalues --   -0.54179  -0.51128  -0.50369  -0.46557  -0.45408
 Alpha  occ. eigenvalues --   -0.44601  -0.44257  -0.42989  -0.42531  -0.41715
 Alpha  occ. eigenvalues --   -0.41291  -0.40932  -0.40562  -0.39770  -0.39489
 Alpha  occ. eigenvalues --   -0.39177  -0.37772  -0.37655  -0.36917  -0.34789
 Alpha  occ. eigenvalues --   -0.34551  -0.33636  -0.32283  -0.31865  -0.30186
 Alpha  occ. eigenvalues --   -0.29335  -0.27641  -0.23962  -0.22692  -0.20412
 Alpha virt. eigenvalues --   -0.03181   0.00113   0.02242   0.03649   0.06807
 Alpha virt. eigenvalues --    0.07811   0.09348   0.09790   0.10371   0.11409
 Alpha virt. eigenvalues --    0.11890   0.12078   0.12863   0.14011   0.14911

 Mulliken atomic charges:
              1
     1  C   -0.341811
     2  C   -0.051631
     3  C   -0.544572
     4  Si   0.900399
     5  O   -0.587248
     6  C    0.397892
     7  C   -0.196961
     8  C   -0.214866
     9  C    0.150940
    10  C    0.138060
    11  C   -0.276228
    12  C   -0.207003
    13  C   -0.157680
    14  C   -0.113208
    15  C   -0.216003
    16  C   -0.666872
    17  C   -0.685881
    18  H    0.143018
    19  H    0.132096
    20  H    0.145277
    21  H    0.166484
    22  H    0.162274
    23  H    0.126244
    24  H    0.124977
    25  H    0.140203
    26  H    0.114370
    27  H    0.115587
    28  H    0.131158
    29  H    0.123439
    30  H    0.186130
    31  H    0.176472
    32  H    0.165223
    33  H    0.172578
    34  H    0.168922
    35  H    0.178220
 Sum of Mulliken atomic charges =  -0.00000

 Dipole moment (field-independent basis, Debye):
    X=              2.5413    Y=              0.2672    Z=              1.1842  Tot=              2.8164
 Quadrupole moment (field-independent basis, Debye-Ang):
   XX=            -99.7537   YY=           -109.5365   ZZ=           -105.8650
   XY=              0.0226   XZ=              5.2178   YZ=              3.0743

 Summary of Natural Population Analysis:

                                       Natural Population
                Natural  -----------------------------------------------
    Atom  No    Charge         Core      Valence    Rydberg      Total
 -----------------------------------------------------------------------
      C    1   -0.44320      1.99909     4.43216    0.01195     6.44320
      C    2   -0.21745      1.99913     4.20044    0.01788     6.21745
      C    3   -0.98932      1.99931     4.97559    0.01442     6.98932
     Si    4    2.03109      9.99772     1.92547    0.04572    11.96891
      O    5   -0.80464      1.99976     6.79251    0.01237     8.80464
      C    6    0.39010      1.99878     3.58881    0.02231     5.60990
      C    7   -0.34122      1.99905     4.32514    0.01703     6.34122
      C    8   -0.21913      1.99907     4.20470    0.01535     6.21913
      C    9   -0.04551      1.99902     4.03146    0.01503     6.04551
      C   10   -0.05210      1.99903     4.03733    0.01574     6.05210
      C   11   -0.26618      1.99899     4.25348    0.01372     6.26618
      C   12   -0.22729      1.99906     4.21297    0.01526     6.22729
      C   13   -0.29829      1.99912     4.28279    0.01638     6.29829
      C   14   -0.16574      1.99911     4.15201    0.01463     6.16574
      C   15   -0.25007      1.99907     4.23562    0.01538     6.25007
      C   16   -1.22770      1.99947     5.21887    0.00936     7.22770
      C   17   -1.22641      1.99947     5.21741    0.00952     7.22641
      H   18    0.22137      0.00000     0.77796    0.00067     0.77863
      H   19    0.20808      0.00000     0.79095    0.00097     0.79192
      H   20    0.23206      0.00000     0.76657    0.00138     0.76794
      H   21    0.26030      0.00000     0.73814    0.00156     0.73970
      H   22    0.25817      0.00000     0.74046    0.00137     0.74183
      H   23    0.24150      0.00000     0.75749    0.00100     0.75850
      H   24    0.23199      0.00000     0.76691    0.00110     0.76801
      H   25    0.22602      0.00000     0.77255    0.00144     0.77398
      H   26    0.22421      0.00000     0.77461    0.00117     0.77579
      H   27    0.23079      0.00000     0.76841    0.00081     0.76921
      H   28    0.23234      0.00000     0.76679    0.00087     0.76766
      H   29    0.22951      0.00000     0.76936    0.00112     0.77049
      H   30    0.26644      0.00000     0.73237    0.00119     0.73356
      H   31    0.26103      0.00000     0.73826    0.00071     0.73897
      H   32    0.25414      0.00000     0.74527    0.00059     0.74586
      H   33    0.25620      0.00000     0.74289    0.00091     0.74380
      H   34    0.25725      0.00000     0.74212    0.00063     0.74275
      H   35    0.26165      0.00000     0.73753    0.00082     0.73835
 =======================================================================
   * Total *   -0.00000     41.98424    87.71538    0.30038   130.00000

 Normal termination of Gaussian 09 at Wed Sep 29 04:24:04 2021.
