 Gaussian 09, Revision A.02,

 -----------------------------------
 #p opt b3lyp/6-31G* scf=(xqc,tight)
 -----------------------------------

 ----------------------------------------
 COc1nc(Oc2ccc3c(c2)cccc3)nc(n1)OC_conf_0
 ----------------------------------------
 Symbolic Z-matrix:
 Charge =  0 Multiplicity = 1

 SCF Done:  E(RB3LYP) =  -969.353991001     A.U. after   14 cycles
 SCF Done:  E(RB3LYP) =  -969.365056077     A.U. after   15 cycles
 SCF Done:  E(RB3LYP) =  -969.367534417     A.U. after   12 cycles
 SCF Done:  E(RB3LYP) =  -969.368489505     A.U. after   12 cycles
 SCF Done:  E(RB3LYP) =  -969.368791944     A.U. after   11 cycles
 SCF Done:  E(RB3LYP) =  -969.369046434     A.U. after   15 cycles
 SCF Done:  E(RB3LYP) =  -969.369169010     A.U. after   11 cycles
 SCF Done:  E(RB3LYP) =  -969.369268038     A.U. after   15 cycles
 SCF Done:  E(RB3LYP) =  -969.369322768     A.U. after   12 cycles
 SCF Done:  E(RB3LYP) =  -969.369405572     A.U. after   12 cycles
 SCF Done:  E(RB3LYP) =  -969.369938373     A.U. after   12 cycles
 SCF Done:  E(RB3LYP) =  -969.369812062     A.U. after   14 cycles
 SCF Done:  E(RB3LYP) =  -969.369988848     A.U. after   14 cycles
 SCF Done:  E(RB3LYP) =  -969.370011256     A.U. after   12 cycles
 SCF Done:  E(RB3LYP) =  -969.370016191     A.U. after    9 cycles
 SCF Done:  E(RB3LYP) =  -969.370017932     A.U. after    9 cycles
 SCF Done:  E(RB3LYP) =  -969.370017700     A.U. after    7 cycles
 SCF Done:  E(RB3LYP) =  -969.370017634     A.U. after    6 cycles
 Optimization completed.
    -- Stationary point found.
 Normal termination of Gaussian 09 at Tue Sep 28 20:20:49 2021.

 ----------------------------------------------------------------------
 #p freq b3lyp/6-31G* volume NMR pop=NPA density=current Geom=AllCheck
 Guess=Read
 ----------------------------------------------------------------------

 COc1nc(Oc2ccc3c(c2)cccc3)nc(n1)OC_conf_0
 ----------------------------------------
 Redundant internal coordinates taken from checkpoint file:
 C15H13N3O3_2849_conf_0.chk
 Charge =  0 Multiplicity = 1

 SCF Done:  E(RB3LYP) =  -969.370017634     A.U. after    1 cycles

  1  C    Isotropic =   136.6888   Anisotropy =    63.6068

  2  O    Isotropic =   191.1882   Anisotropy =    87.6043

  3  C    Isotropic =    24.1102   Anisotropy =    99.2433

  4  N    Isotropic =    66.5247   Anisotropy =   280.5683

  5  C    Isotropic =    22.9132   Anisotropy =    94.3005

  6  O    Isotropic =   137.9149   Anisotropy =    88.0798

  7  C    Isotropic =    45.2916   Anisotropy =   106.3195

  8  C    Isotropic =    73.1789   Anisotropy =   145.2657

  9  C    Isotropic =    66.7682   Anisotropy =   143.1430

 10  C    Isotropic =    65.5432   Anisotropy =   197.4382

 11  C    Isotropic =    62.6566   Anisotropy =   195.5245

 12  C    Isotropic =    76.0192   Anisotropy =   123.7474

 13  C    Isotropic =    67.9020   Anisotropy =   146.4198

 14  C    Isotropic =    69.7187   Anisotropy =   163.3446

 15  C    Isotropic =    70.6300   Anisotropy =   161.7752

 16  C    Isotropic =    67.7607   Anisotropy =   146.5585

 17  N    Isotropic =    56.6660   Anisotropy =   280.7880

 18  C    Isotropic =    22.5920   Anisotropy =   100.8726

 19  N    Isotropic =    62.5047   Anisotropy =   283.8957

 20  O    Isotropic =   190.3739   Anisotropy =    88.9441

 21  C    Isotropic =   136.2978   Anisotropy =    64.6916

 22  H    Isotropic =    28.7860   Anisotropy =     7.3522

 23  H    Isotropic =    28.7099   Anisotropy =     6.7138

 24  H    Isotropic =    28.8578   Anisotropy =     6.0567

 25  H    Isotropic =    25.0402   Anisotropy =     7.6586

 26  H    Isotropic =    24.5622   Anisotropy =     6.7166

 27  H    Isotropic =    24.8720   Anisotropy =     8.7238

 28  H    Isotropic =    24.5447   Anisotropy =     7.5892

 29  H    Isotropic =    24.7588   Anisotropy =     5.1348

 30  H    Isotropic =    24.7865   Anisotropy =     4.9488

 31  H    Isotropic =    24.5487   Anisotropy =     6.9525

 32  H    Isotropic =    28.5020   Anisotropy =     7.7730

 33  H    Isotropic =    28.2912   Anisotropy =     8.0372

 34  H    Isotropic =    28.2946   Anisotropy =     7.9853

  Exact polarizability: 292.008 -27.372 138.429  18.960  19.579 137.797
 Approx polarizability: 401.159 -49.468 234.841  36.460  39.552 241.010

                     1                      2                      3
                     A                      A                      A
 Frequencies --    18.4855                25.0264                45.9425
 Red. masses --     5.2608                 4.9108                 4.8551
 Frc consts  --     0.0011                 0.0018                 0.0060
 IR Inten    --     0.3191                 0.1044                 0.0838

                     4                      5                      6
                     A                      A                      A
 Frequencies --   100.9769               112.6433               121.8876
 Red. masses --     3.4231                 3.1912                 4.9413
 Frc consts  --     0.0206                 0.0239                 0.0433
 IR Inten    --     5.8673                 0.0387                 0.3018

                     7                      8                      9
                     A                      A                      A
 Frequencies --   153.1616               161.3390               186.5263
 Red. masses --     1.2833                 1.2643                 3.6670
 Frc consts  --     0.0177                 0.0194                 0.0752
 IR Inten    --     0.1237                 0.0061                 0.4872

                    10                     11                     12
                     A                      A                      A
 Frequencies --   189.7453               195.9235               204.7098
 Red. masses --     3.7846                 3.6813                 4.9744
 Frc consts  --     0.0803                 0.0833                 0.1228
 IR Inten    --     4.7485                 1.5577                 1.7635

                    13                     14                     15
                     A                      A                      A
 Frequencies --   229.8262               249.3893               277.0062
 Red. masses --     5.5510                 5.2042                 5.3410
 Frc consts  --     0.1728                 0.1907                 0.2415
 IR Inten    --     0.0079                 3.8255                 0.6667

                    16                     17                     18
                     A                      A                      A
 Frequencies --   311.4155               322.0165               408.0385
 Red. masses --     5.8030                 4.3208                 3.4104
 Frc consts  --     0.3316                 0.2640                 0.3346
 IR Inten    --     1.7942                 7.0511                 0.3384

                    19                     20                     21
                     A                      A                      A
 Frequencies --   443.2520               465.7534               487.9186
 Red. masses --     5.0514                 5.3008                 2.9641
 Frc consts  --     0.5847                 0.6775                 0.4157
 IR Inten    --     3.2047                13.2318                 6.6771

                    22                     23                     24
                     A                      A                      A
 Frequencies --   503.6715               530.6805               542.9953
 Red. masses --     4.5955                 6.3222                 4.6975
 Frc consts  --     0.6869                 1.0490                 0.8160
 IR Inten    --     4.7723                 0.3369                 2.1392

                    25                     26                     27
                     A                      A                      A
 Frequencies --   566.5987               603.5394               626.0612
 Red. masses --     9.6470                 7.1708                 4.9026
 Frc consts  --     1.8247                 1.5390                 1.1322
 IR Inten    --     5.0048                 4.2718                 1.4031

                    28                     29                     30
                     A                      A                      A
 Frequencies --   643.5511               692.9054               708.1043
 Red. masses --     6.2786                 4.0963                 4.6053
 Frc consts  --     1.5321                 1.1588                 1.3605
 IR Inten    --     1.6387                 1.4361                 1.0581

                    31                     32                     33
                     A                      A                      A
 Frequencies --   738.2497               749.6755               765.6751
 Red. masses --    11.8519                11.9338                 1.6011
 Frc consts  --     3.8058                 3.9516                 0.5530
 IR Inten    --     0.5738                 0.0887                22.9822

                    34                     35                     36
                     A                      A                      A
 Frequencies --   772.0844               783.3933               793.8168
 Red. masses --     2.8268                 4.6994                 4.1667
 Frc consts  --     0.9928                 1.6992                 1.5470
 IR Inten    --     3.8114                 2.3357                 3.2448

                    37                     38                     39
                     A                      A                      A
 Frequencies --   827.4065               830.4598               878.4825
 Red. masses --     3.8065                 1.9837                 1.5606
 Frc consts  --     1.5354                 0.8061                 0.7096
 IR Inten    --    42.9755                17.4119                15.4047

                    40                     41                     42
                     A                      A                      A
 Frequencies --   905.4932               913.2036               953.1687
 Red. masses --     1.6449                 4.6886                 1.3076
 Frc consts  --     0.7946                 2.3037                 0.6999
 IR Inten    --    13.5999                 6.2909                 1.1258

                    43                     44                     45
                     A                      A                      A
 Frequencies --   963.3106               971.4660               988.6662
 Red. masses --     1.3368                 5.7352                 5.1820
 Frc consts  --     0.7309                 3.1890                 2.9843
 IR Inten    --     2.7378                35.0178                 2.2592

                    46                     47                     48
                     A                      A                      A
 Frequencies --   991.0672               998.1942              1040.9961
 Red. masses --     1.2742                13.5917                 6.6404
 Frc consts  --     0.7374                 7.9791                 4.2398
 IR Inten    --     0.0152                 0.2045                10.2716

                    49                     50                     51
                     A                      A                      A
 Frequencies --  1051.9366              1126.7998              1150.6753
 Red. masses --     2.3086                 3.9556                 2.4853
 Frc consts  --     1.5051                 2.9591                 1.9388
 IR Inten    --     0.6174                87.7986                44.9759

                    52                     53                     54
                     A                      A                      A
 Frequencies --  1161.9568              1178.7685              1184.2841
 Red. masses --     2.0398                 1.2540                 1.2656
 Frc consts  --     1.6226                 1.0266                 1.0458
 IR Inten    --    55.0142                 3.4846                 0.0779

                    55                     56                     57
                     A                      A                      A
 Frequencies --  1184.6703              1188.1353              1200.7445
 Red. masses --     1.2664                 1.1993                 1.6983
 Frc consts  --     1.0471                 0.9975                 1.4427
 IR Inten    --     1.0740                 1.5815               202.9904

                    58                     59                     60
                     A                      A                      A
 Frequencies --  1222.1025              1238.4642              1252.5518
 Red. masses --     1.6672                 2.0096                 3.1257
 Frc consts  --     1.4671                 1.8160                 2.8893
 IR Inten    --    79.5084                91.6393               164.7717

                    61                     62                     63
                     A                      A                      A
 Frequencies --  1278.4808              1294.1284              1321.8137
 Red. masses --     1.7913                 1.8561                 9.9582
 Frc consts  --     1.7251                 1.8315                10.2512
 IR Inten    --   175.3553                15.6694                67.7911

                    64                     65                     66
                     A                      A                      A
 Frequencies --  1394.3643              1407.3969              1411.4904
 Red. masses --     2.0853                 4.1682                 5.4920
 Frc consts  --     2.3887                 4.8645                 6.4467
 IR Inten    --    94.2378              1058.7610                 1.4657

                    67                     68                     69
                     A                      A                      A
 Frequencies --  1418.9696              1425.3139              1470.9425
 Red. masses --     3.5092                 4.4982                 1.7280
 Frc consts  --     4.1629                 5.3840                 2.2029
 IR Inten    --   349.3092               110.0979                42.3248

                    70                     71                     72
                     A                      A                      A
 Frequencies --  1488.4836              1512.3232              1513.0675
 Red. masses --     2.4784                 1.0485                 1.0507
 Frc consts  --     3.2352                 1.4129                 1.4172
 IR Inten    --     2.2092                 5.8087                 9.5483

                    73                     74                     75
                     A                      A                      A
 Frequencies --  1516.1751              1519.4238              1521.7533
 Red. masses --     2.0096                 1.3297                 1.0947
 Frc consts  --     2.7218                 1.8086                 1.4937
 IR Inten    --    94.4230                54.5812                23.2574

                    76                     77                     78
                     A                      A                      A
 Frequencies --  1524.6606              1563.3385              1565.9418
 Red. masses --     1.3212                 3.4125                 3.4138
 Frc consts  --     1.8096                 4.9139                 4.9321
 IR Inten    --    19.9673                19.6858                22.1834

                    79                     80                     81
                     A                      A                      A
 Frequencies --  1602.5693              1628.5486              1631.8424
 Red. masses --     8.5886                10.0038                 7.1603
 Frc consts  --    12.9959                15.6321                11.2340
 IR Inten    --   616.7256              1076.6008                 7.6670

                    82                     83                     84
                     A                      A                      A
 Frequencies --  1664.3660              1690.7577              3075.7554
 Red. masses --     5.4808                 6.4453                 1.0293
 Frc consts  --     8.9453                10.8557                 5.7373
 IR Inten    --     3.1103                 2.7482                44.1907

                    85                     86                     87
                     A                      A                      A
 Frequencies --  3076.8326              3151.7838              3153.3748
 Red. masses --     1.0293                 1.1077                 1.1077
 Frc consts  --     5.7410                 6.4830                 6.4897
 IR Inten    --    25.4415                19.0343                18.3669

                    88                     89                     90
                     A                      A                      A
 Frequencies --  3178.9725              3180.2652              3181.1796
 Red. masses --     1.0859                 1.1073                 1.1074
 Frc consts  --     6.4655                 6.5984                 6.6031
 IR Inten    --     2.9811                24.7772                22.5948

                    91                     92                     93
                     A                      A                      A
 Frequencies --  3183.5870              3187.9996              3197.1639
 Red. masses --     1.0882                 1.0888                 1.0933
 Frc consts  --     6.4983                 6.5196                 6.5845
 IR Inten    --     0.8522                 8.8549                30.9678

                    94                     95                     96
                     A                      A                      A
 Frequencies --  3209.1798              3210.4895              3222.0936
 Red. masses --     1.0936                 1.0951                 1.0940
 Frc consts  --     6.6359                 6.6501                 6.6919
 IR Inten    --    22.0170                15.8965                 7.5664

 - Thermochemistry -
 -------------------
 Temperature   298.150 Kelvin.  Pressure   1.00000 Atm.
 Atom     1 has atomic number  6 and mass  12.00000

 Molecular mass:   283.09569 amu.
 Principal axes and moments of inertia in atomic units:
                           1         2         3
     Eigenvalues --  2264.84251********************
           X            1.00000  -0.00103   0.00038
           Y            0.00102   0.99965   0.02631
           Z           -0.00041  -0.02631   0.99965
 This molecule is an asymmetric top.
 Rotational symmetry number  1.
 Warning -- assumption of classical behavior for rotation
           may cause significant error
 Rotational temperatures (Kelvin)      0.03824     0.00683     0.00634
 Rotational constants (GHZ):           0.79685     0.14238     0.13219
 Zero-point vibrational energy     692098.4 (Joules/Mol)
                                  165.41549 (Kcal/Mol)
 Warning -- explicit consideration of  26 degrees of freedom as
           vibrations may cause significant error
 Vibrational temperatures:     26.60    36.01    66.10   145.28   162.07
          (Kelvin)            175.37   220.37   232.13   268.37   273.00
                              281.89   294.53   330.67   358.82   398.55
                              448.06   463.31   587.08   637.74   670.11
                              702.01   724.67   763.53   781.25   815.21
                              868.36   900.76   925.93   996.94  1018.80
                             1062.18  1078.61  1101.63  1110.86  1127.13
                             1142.12  1190.45  1194.84  1263.94  1302.80
                             1313.89  1371.40  1385.99  1397.72  1422.47
                             1425.92  1436.18  1497.76  1513.50  1621.21
                             1655.56  1671.79  1695.98  1703.92  1704.47
                             1709.46  1727.60  1758.33  1781.87  1802.14
                             1839.45  1861.96  1901.79  2006.18  2024.93
                             2030.82  2041.58  2050.71  2116.36  2141.59
                             2175.89  2176.96  2181.44  2186.11  2189.46
                             2193.64  2249.29  2253.04  2305.74  2343.12
                             2347.85  2394.65  2432.62  4425.32  4426.87
                             4534.71  4537.00  4573.83  4575.69  4577.00
                             4580.47  4586.81  4600.00  4617.29  4619.17
                             4635.87

 Zero-point correction=                           0.263606 (Hartree/Particle)
 Thermal correction to Energy=                    0.280983
 Thermal correction to Enthalpy=                  0.281928
 Thermal correction to Gibbs Free Energy=         0.216509
 Sum of electronic and zero-point Energies=           -969.106411
 Sum of electronic and thermal Energies=              -969.089034
 Sum of electronic and thermal Enthalpies=            -969.088090
 Sum of electronic and thermal Free Energies=         -969.153509

                     E (Thermal)             CV                S
                      KCal/Mol        Cal/Mol-Kelvin    Cal/Mol-Kelvin
 Total                  176.320             66.436            137.686
 Electronic               0.000              0.000              0.000
 Translational            0.889              2.981             42.820
 Rotational               0.889              2.981             34.327
 Vibrational            174.542             60.475             60.539
 Vibration     1          0.593              1.986              6.791
 Vibration     2          0.593              1.985              6.189
 Vibration     3          0.595              1.979              4.985
 Vibration     4          0.604              1.948              3.435
 Vibration     5          0.607              1.939              3.223
 Vibration     6          0.609              1.931              3.070
 Vibration     7          0.619              1.899              2.633
 Vibration     8          0.622              1.890              2.534
 Vibration     9          0.632              1.858              2.262
 Vibration    10          0.633              1.854              2.230
 Vibration    11          0.636              1.846              2.171
 Vibration    12          0.640              1.833              2.090
 Vibration    13          0.652              1.795              1.880
 Vibration    14          0.662              1.764              1.735
 Vibration    15          0.678              1.716              1.552
 Vibration    16          0.700              1.652              1.355
 Vibration    17          0.707              1.631              1.300
 Vibration    18          0.773              1.453              0.934
 Vibration    19          0.803              1.376              0.816
 Vibration    20          0.823              1.326              0.750
 Vibration    21          0.844              1.277              0.689
 Vibration    22          0.859              1.242              0.649
 Vibration    23          0.886              1.182              0.586
 Vibration    24          0.898              1.155              0.559
 Vibration    25          0.923              1.104              0.511
 Vibration    26          0.962              1.024              0.444

 Optimization completed.
    -- Stationary point found.
 Normal termination of Gaussian 09 at Tue Sep 28 22:30:42 2021.
 Gaussian 09:  AM64L-G09RevA.02 11-Jun-2009

 ----------------------------------------------------------------------
 #p TD(NStates=10, Root=1) b3lyp/6-31G* volume pop=NPA density=current
 Geom=AllCheck Guess=Read
 ----------------------------------------------------------------------

 COc1nc(Oc2ccc3c(c2)cccc3)nc(n1)OC_conf_0
 ----------------------------------------
 Redundant internal coordinates taken from checkpoint file:
 C15H13N3O3_2849_conf_0.chk
 Charge =  0 Multiplicity = 1

                         Standard orientation:
 ---------------------------------------------------------------------
 Center     Atomic      Atomic             Coordinates (Angstroms)
 Number     Number       Type             X           Y           Z
 ---------------------------------------------------------------------
      1          6           0        1.183143    3.148091   -0.420156
      2          8           0        2.457782    2.487093   -0.422956
      3          6           0        2.468819    1.170480   -0.216818
      4          7           0        1.312982    0.534333   -0.014871
      5          6           0        1.458790   -0.781773    0.179551
      6          8           0        0.358402   -1.532137    0.382895
      7          6           0       -0.898356   -0.924761    0.458226
      8          6           0       -1.252090   -0.190684    1.613936
      9          6           0       -2.523546    0.320041    1.722493
     10          6           0       -3.488285    0.118244    0.697412
     11          6           0       -3.115670   -0.638615   -0.461407
     12          6           0       -1.795272   -1.155157   -0.553170
     13          6           0       -4.079952   -0.846807   -1.483653
     14          6           0       -5.351108   -0.330120   -1.368564
     15          6           0       -5.719586    0.418189   -0.223917
     16          6           0       -4.808008    0.635495    0.784926
     17          7           0        2.592561   -1.468437    0.187859
     18          6           0        3.670007   -0.702292   -0.030633
     19          7           0        3.685295    0.615934   -0.238376
     20          8           0        4.822537   -1.370646   -0.030469
     21          6           0        6.024625   -0.620711   -0.258150
     22          1           0        1.411080    4.198364   -0.605287
     23          1           0        0.683770    3.027133    0.544541
     24          1           0        0.536783    2.750050   -1.206519
     25          1           0       -0.516201   -0.046869    2.397996
     26          1           0       -2.808294    0.885214    2.606561
     27          1           0       -1.493366   -1.737206   -1.418728
     28          1           0       -3.796198   -1.422159   -2.361567
     29          1           0       -6.078688   -0.496343   -2.158347
     30          1           0       -6.726231    0.819438   -0.145009
     31          1           0       -5.087561    1.208059    1.666300
     32          1           0        6.827176   -1.358123   -0.218722
     33          1           0        6.161945    0.139045    0.515646
     34          1           0        5.999086   -0.131621   -1.235349
 ---------------------------------------------------------------------

 SCF Done:  E(RB3LYP) =  -969.370017634     A.U. after    1 cycles

 Excitation energies and oscillator strengths:

 Excited State   1:      Singlet-A      4.3935 eV  282.20 nm  f=0.0373  <S**2>=0.000
      73 -> 75         0.26284
      73 -> 76        -0.11249
      74 -> 75         0.58618
      74 -> 76         0.19655
      74 -> 78         0.13318
 This state for optimization and/or second-order correction.
 Total Energy, E(TD-HF/TD-KS) =  -969.208559952
 Copying the excited state density for this state as the 1-particle RhoCI density.

 Excited State   2:      Singlet-A      4.5026 eV  275.36 nm  f=0.0160  <S**2>=0.000
      73 -> 75         0.44414
      74 -> 75        -0.35212
      74 -> 76         0.36000
      74 -> 78         0.19281

 Excited State   3:      Singlet-A      5.0199 eV  246.99 nm  f=0.0222  <S**2>=0.000
      74 -> 76        -0.33505
      74 -> 77         0.56640
      74 -> 78         0.21672

 Excited State   4:      Singlet-A      5.1574 eV  240.40 nm  f=0.0429  <S**2>=0.000
      74 -> 76        -0.31879
      74 -> 77        -0.38969
      74 -> 78         0.47669

 Excited State   5:      Singlet-A      5.4676 eV  226.76 nm  f=0.1463  <S**2>=0.000
      69 -> 75         0.16383
      69 -> 77         0.21134
      71 -> 75        -0.13957
      71 -> 76         0.14161
      71 -> 77        -0.10620
      71 -> 78        -0.10307
      73 -> 75         0.17318
      73 -> 76        -0.27155
      73 -> 77         0.43617
      73 -> 78         0.11533
      74 -> 78        -0.17203

 Excited State   6:      Singlet-A      5.6153 eV  220.80 nm  f=0.1139  <S**2>=0.000
      71 -> 75        -0.25030
      71 -> 76         0.14396
      71 -> 77        -0.22645
      72 -> 75         0.46716
      73 -> 75        -0.11469
      73 -> 76         0.19840
      73 -> 78        -0.14734
      74 -> 78         0.11832

 Excited State   7:      Singlet-A      5.6171 eV  220.73 nm  f=0.0048  <S**2>=0.000
      69 -> 77         0.15560
      71 -> 75         0.32776
      71 -> 76        -0.25639
      71 -> 77         0.23012
      71 -> 78         0.16679
      72 -> 75         0.15013
      73 -> 76         0.14449
      73 -> 77         0.34560
      73 -> 78        -0.17502

 Excited State   8:      Singlet-A      5.6430 eV  219.71 nm  f=0.0274  <S**2>=0.000
      69 -> 76        -0.11418
      69 -> 78         0.10052
      70 -> 75        -0.15000
      71 -> 75         0.19263
      71 -> 77         0.22873
      72 -> 75         0.37633
      73 -> 76        -0.33387
      73 -> 77        -0.10674
      73 -> 78         0.24523

 Excited State   9:      Singlet-A      5.7075 eV  217.23 nm  f=0.0273  <S**2>=0.000
      69 -> 75        -0.13664
      69 -> 77        -0.22421
      71 -> 76        -0.29929
      71 -> 77        -0.32722
      71 -> 78         0.36302
      72 -> 75         0.13123
      73 -> 76        -0.20102

 Excited State  10:      Singlet-A      5.7637 eV  215.11 nm  f=0.0380  <S**2>=0.000
      69 -> 75        -0.22364
      69 -> 77        -0.15302
      70 -> 75         0.46603
      70 -> 77         0.21345
      71 -> 76         0.17001
      71 -> 78        -0.17919
      72 -> 76        -0.14685
      72 -> 78         0.13033

 The electronic state is 1-A.
 Alpha  occ. eigenvalues --  -19.20387 -19.19939 -19.19469 -14.33832 -14.33385
 Alpha  occ. eigenvalues --  -14.33018 -10.32833 -10.32676 -10.32249 -10.25598
 Alpha  occ. eigenvalues --  -10.24451 -10.24030 -10.20544 -10.20300 -10.20032
 Alpha  occ. eigenvalues --  -10.19959 -10.19618 -10.19574 -10.19558 -10.19478
 Alpha  occ. eigenvalues --  -10.19462  -1.11437  -1.10003  -1.09411  -0.99684
 Alpha  occ. eigenvalues --   -0.90146  -0.89655  -0.87679  -0.82545  -0.77944
 Alpha  occ. eigenvalues --   -0.75365  -0.74038  -0.73371  -0.72526  -0.67091
 Alpha  occ. eigenvalues --   -0.63961  -0.63095  -0.61086  -0.60278  -0.58278
 Alpha  occ. eigenvalues --   -0.56607  -0.52704  -0.52066  -0.51392  -0.50687
 Alpha  occ. eigenvalues --   -0.49936  -0.47625  -0.47245  -0.45826  -0.45176
 Alpha  occ. eigenvalues --   -0.44422  -0.43616  -0.43549  -0.42414  -0.42093
 Alpha  occ. eigenvalues --   -0.41256  -0.39652  -0.38902  -0.38792  -0.37709
 Alpha  occ. eigenvalues --   -0.37257  -0.36061  -0.35550  -0.35190  -0.33944
 Alpha  occ. eigenvalues --   -0.32650  -0.30497  -0.28893  -0.28118  -0.27791
 Alpha  occ. eigenvalues --   -0.27416  -0.27056  -0.24271  -0.21956
 Alpha virt. eigenvalues --   -0.04293  -0.01595  -0.01377  -0.00752   0.02843
 Alpha virt. eigenvalues --    0.08859   0.09439   0.10802   0.11337   0.11668
 Alpha virt. eigenvalues --    0.11866   0.12448   0.12926   0.14165   0.15185

 Mulliken atomic charges:
              1
     1  C   -0.212880
     2  O   -0.459421
     3  C    0.680425
     4  N   -0.522884
     5  C    0.662350
     6  O   -0.519952
     7  C    0.378378
     8  C   -0.159297
     9  C   -0.224763
    10  C    0.157534
    11  C    0.129601
    12  C   -0.241052
    13  C   -0.191530
    14  C   -0.155955
    15  C   -0.109595
    16  C   -0.205006
    17  N   -0.489375
    18  C    0.680082
    19  N   -0.519459
    20  O   -0.455859
    21  C   -0.210925
    22  H    0.169364
    23  H    0.174368
    24  H    0.174199
    25  H    0.134110
    26  H    0.131889
    27  H    0.149822
    28  H    0.134589
    29  H    0.127608
    30  H    0.142140
    31  H    0.136435
    32  H    0.169310
    33  H    0.172775
    34  H    0.172971
 Sum of Mulliken atomic charges =  -0.00000

 Dipole moment (field-independent basis, Debye):
    X=             -1.3998    Y=              2.7344    Z=             -0.4596  Tot=              3.1061
 Quadrupole moment (field-independent basis, Debye-Ang):
   XX=           -100.4000   YY=           -121.8048   ZZ=           -112.9367
   XY=             -1.5346   XZ=             -0.2660   YZ=              5.2287

 Summary of Natural Population Analysis:

                                       Natural Population
                Natural  -----------------------------------------------
    Atom  No    Charge         Core      Valence    Rydberg      Total
 -----------------------------------------------------------------------
      C    1   -0.32152      1.99941     4.30842    0.01369     6.32152
      O    2   -0.50033      1.99972     6.48864    0.01197     8.50033
      C    3    0.77247      1.99922     3.19259    0.03572     5.22753
      N    4   -0.63240      1.99924     5.61404    0.01912     7.63240
      C    5    0.76237      1.99916     3.20202    0.03646     5.23763
      O    6   -0.48380      1.99966     6.47198    0.01216     8.48380
      C    7    0.36743      1.99870     3.61034    0.02354     5.63257
      C    8   -0.32110      1.99900     4.30563    0.01647     6.32110
      C    9   -0.21129      1.99907     4.19642    0.01580     6.21129
      C   10   -0.05579      1.99903     4.04175    0.01501     6.05579
      C   11   -0.05225      1.99903     4.03790    0.01532     6.05225
      C   12   -0.24234      1.99893     4.22752    0.01589     6.24234
      C   13   -0.19401      1.99906     4.17965    0.01530     6.19401
      C   14   -0.29405      1.99913     4.27851    0.01641     6.29405
      C   15   -0.15923      1.99911     4.14537    0.01475     6.15923
      C   16   -0.21310      1.99907     4.19870    0.01533     6.21310
      N   17   -0.56032      1.99926     5.53891    0.02215     7.56032
      C   18    0.76387      1.99921     3.20004    0.03688     5.23613
      N   19   -0.60859      1.99926     5.58843    0.02090     7.60859
      O   20   -0.49835      1.99972     6.48635    0.01228     8.49835
      C   21   -0.32102      1.99941     4.30787    0.01374     6.32102
      H   22    0.22541      0.00000     0.77400    0.00059     0.77459
      H   23    0.22147      0.00000     0.77712    0.00141     0.77853
      H   24    0.22154      0.00000     0.77712    0.00134     0.77846
      H   25    0.24624      0.00000     0.75292    0.00084     0.75376
      H   26    0.23370      0.00000     0.76520    0.00110     0.76630
      H   27    0.24793      0.00000     0.75067    0.00140     0.75207
      H   28    0.23283      0.00000     0.76605    0.00112     0.76717
      H   29    0.23625      0.00000     0.76297    0.00078     0.76375
      H   30    0.23681      0.00000     0.76235    0.00084     0.76319
      H   31    0.23377      0.00000     0.76509    0.00114     0.76623
      H   32    0.22532      0.00000     0.77408    0.00060     0.77468
      H   33    0.22098      0.00000     0.77767    0.00135     0.77902
      H   34    0.22109      0.00000     0.77756    0.00135     0.77891
 =======================================================================
   * Total *   -0.00000     41.98340   105.60387    0.41273   148.00000

 Normal termination of Gaussian 09 at Wed Sep 29 04:26:12 2021.
