 Gaussian 09, Revision A.02,

 -----------------------------------
 #p opt b3lyp/6-31G* scf=(xqc,tight)
 -----------------------------------

 ----------------------------------------
 COCOc1ccc2c(c1)cc(cc2)OC(=O)N(C)C_conf_0
 ----------------------------------------
 Symbolic Z-matrix:
 Charge =  0 Multiplicity = 1

 SCF Done:  E(RB3LYP) =  -937.469506264     A.U. after   15 cycles
 SCF Done:  E(RB3LYP) =  -937.479149578     A.U. after   12 cycles
 SCF Done:  E(RB3LYP) =  -937.480475438     A.U. after   12 cycles
 SCF Done:  E(RB3LYP) =  -937.480497344     A.U. after   12 cycles
 SCF Done:  E(RB3LYP) =  -937.481067678     A.U. after   11 cycles
 SCF Done:  E(RB3LYP) =  -937.481244812     A.U. after   12 cycles
 SCF Done:  E(RB3LYP) =  -937.481356117     A.U. after   11 cycles
 SCF Done:  E(RB3LYP) =  -937.481391895     A.U. after   11 cycles
 SCF Done:  E(RB3LYP) =  -937.481411232     A.U. after   10 cycles
 SCF Done:  E(RB3LYP) =  -937.481419506     A.U. after   16 cycles
 SCF Done:  E(RB3LYP) =  -937.481469545     A.U. after   10 cycles
 SCF Done:  E(RB3LYP) =  -937.481470022     A.U. after    9 cycles
 SCF Done:  E(RB3LYP) =  -937.481470174     A.U. after    7 cycles
 SCF Done:  E(RB3LYP) =  -937.481470311     A.U. after    7 cycles
 SCF Done:  E(RB3LYP) =  -937.481470456     A.U. after    7 cycles
 SCF Done:  E(RB3LYP) =  -937.481470531     A.U. after    7 cycles
 SCF Done:  E(RB3LYP) =  -937.481470561     A.U. after    6 cycles
 SCF Done:  E(RB3LYP) =  -937.481470570     A.U. after    5 cycles
 Optimization completed.
    -- Stationary point found.
 Normal termination of Gaussian 09 at Thu Sep 30 11:15:16 2021.

 ----------------------------------------------------------------------
 #p freq b3lyp/6-31G* volume NMR pop=NPA density=current Geom=AllCheck
 Guess=Read
 ----------------------------------------------------------------------

 COCOc1ccc2c(c1)cc(cc2)OC(=O)N(C)C_conf_0
 ----------------------------------------
 Redundant internal coordinates taken from checkpoint file:
 C15H17NO4_187d_conf_0.chk
 Charge =  0 Multiplicity = 1

 SCF Done:  E(RB3LYP) =  -937.481470570     A.U. after    1 cycles

  1  C    Isotropic =   134.6530   Anisotropy =    74.5099

  2  O    Isotropic =   283.2525   Anisotropy =    41.9267

  3  C    Isotropic =    97.1229   Anisotropy =    37.4953

  4  O    Isotropic =   203.6445   Anisotropy =    59.6626

  5  C    Isotropic =    43.2974   Anisotropy =   121.6804

  6  C    Isotropic =    84.6953   Anisotropy =   138.5268

  7  C    Isotropic =    66.1232   Anisotropy =   145.1080

  8  C    Isotropic =    70.5663   Anisotropy =   188.8558

  9  C    Isotropic =    61.6025   Anisotropy =   191.3460

 10  C    Isotropic =    82.7868   Anisotropy =   113.0027

 11  C    Isotropic =    79.3450   Anisotropy =   116.0372

 12  C    Isotropic =    45.0231   Anisotropy =   107.4355

 13  C    Isotropic =    74.9174   Anisotropy =   146.1579

 14  C    Isotropic =    67.2910   Anisotropy =   142.2365

 15  O    Isotropic =   144.8363   Anisotropy =   127.3860

 16  C    Isotropic =    46.6756   Anisotropy =    76.2215

 17  O    Isotropic =    66.2123   Anisotropy =   385.2316

 18  N    Isotropic =   180.4844   Anisotropy =    83.5359

 19  C    Isotropic =   155.2721   Anisotropy =    51.3552

 20  C    Isotropic =   155.4257   Anisotropy =    49.7362

 21  H    Isotropic =    28.5757   Anisotropy =     8.3392

 22  H    Isotropic =    29.2268   Anisotropy =     7.2700

 23  H    Isotropic =    28.1426   Anisotropy =     7.4485

 24  H    Isotropic =    27.2152   Anisotropy =     4.6490

 25  H    Isotropic =    26.6767   Anisotropy =     4.6715

 26  H    Isotropic =    25.6790   Anisotropy =     8.0550

 27  H    Isotropic =    24.6884   Anisotropy =     7.1394

 28  H    Isotropic =    25.2563   Anisotropy =     9.1639

 29  H    Isotropic =    25.2230   Anisotropy =     9.4369

 30  H    Isotropic =    24.8745   Anisotropy =     8.8571

 31  H    Isotropic =    24.7326   Anisotropy =     6.9084

 32  H    Isotropic =    28.1401   Anisotropy =     6.9282

 33  H    Isotropic =    29.8820   Anisotropy =     9.3790

 34  H    Isotropic =    29.9084   Anisotropy =     9.3140

 35  H    Isotropic =    28.2336   Anisotropy =     5.0929

 36  H    Isotropic =    29.7510   Anisotropy =     8.8306

 37  H    Isotropic =    29.6075   Anisotropy =     9.1383

  Exact polarizability: 304.430   5.039 174.221   7.432  -4.175  94.222
 Approx polarizability: 402.470   4.555 293.957  21.636 -10.494 146.015

                     1                      2                      3
                     A                      A                      A
 Frequencies --    23.3966                32.0068                33.1138
 Red. masses --     4.5702                 3.4682                 3.2238
 Frc consts  --     0.0015                 0.0021                 0.0021
 IR Inten    --     0.5916                 2.8693                 0.4407

                     4                      5                      6
                     A                      A                      A
 Frequencies --    48.3718                49.6280                76.4858
 Red. masses --     2.8244                 1.7576                 3.5505
 Frc consts  --     0.0039                 0.0026                 0.0122
 IR Inten    --     0.9095                 0.1292                 3.1064

                     7                      8                      9
                     A                      A                      A
 Frequencies --   100.3713               114.5591               131.0746
 Red. masses --     3.9229                 2.4311                 2.3757
 Frc consts  --     0.0233                 0.0188                 0.0240
 IR Inten    --     1.0527                 1.4788                 0.0804

                    10                     11                     12
                     A                      A                      A
 Frequencies --   143.0773               151.6550               162.0069
 Red. masses --     1.5299                 1.7056                 3.9168
 Frc consts  --     0.0185                 0.0231                 0.0606
 IR Inten    --     0.4572                 2.4468                 1.2197

                    13                     14                     15
                     A                      A                      A
 Frequencies --   189.3696               212.2854               227.7549
 Red. masses --     2.5830                 4.4664                 2.2215
 Frc consts  --     0.0546                 0.1186                 0.0679
 IR Inten    --     2.9908                 2.4686                 2.8080

                    16                     17                     18
                     A                      A                      A
 Frequencies --   260.7844               304.6231               316.2598
 Red. masses --     5.0581                 5.2056                 5.0827
 Frc consts  --     0.2027                 0.2846                 0.2995
 IR Inten    --     0.9144                 1.1580                 0.6593

                    19                     20                     21
                     A                      A                      A
 Frequencies --   322.1293               372.2273               396.0688
 Red. masses --     4.5581                 3.9123                 3.9203
 Frc consts  --     0.2787                 0.3194                 0.3623
 IR Inten    --     7.9393                24.9518                 2.5598

                    22                     23                     24
                     A                      A                      A
 Frequencies --   422.2016               442.5295               457.3567
 Red. masses --     2.9566                 3.5486                 3.7606
 Frc consts  --     0.3105                 0.4094                 0.4635
 IR Inten    --     1.3133                 2.5629                 4.0679

                    25                     26                     27
                     A                      A                      A
 Frequencies --   484.8172               505.4371               565.9935
 Red. masses --     2.6131                 4.1849                 6.3471
 Frc consts  --     0.3619                 0.6299                 1.1980
 IR Inten    --     7.2764                12.0647                 3.1615

                    28                     29                     30
                     A                      A                      A
 Frequencies --   582.1455               597.3095               637.3134
 Red. masses --     6.4140                 5.4416                 4.1812
 Frc consts  --     1.2807                 1.1439                 1.0006
 IR Inten    --     2.1813                 2.9440                 2.7394

                    31                     32                     33
                     A                      A                      A
 Frequencies --   649.8664               657.0543               738.8405
 Red. masses --     7.0342                 3.0405                11.5778
 Frc consts  --     1.7503                 0.7734                 3.7237
 IR Inten    --     0.6515                 1.9366                18.5028

                    34                     35                     36
                     A                      A                      A
 Frequencies --   750.3885               757.1460               787.3871
 Red. masses --     3.5649                 5.2800                 2.9058
 Frc consts  --     1.1827                 1.7834                 1.0614
 IR Inten    --     5.4469                 2.3726                 0.8677

                    37                     38                     39
                     A                      A                      A
 Frequencies --   790.5804               820.9370               838.1483
 Red. masses --     1.9757                 3.6386                 2.1907
 Frc consts  --     0.7276                 1.4448                 0.9067
 IR Inten    --     1.3585                 8.0442                29.4953

                    40                     41                     42
                     A                      A                      A
 Frequencies --   850.6077               870.9170               903.7168
 Red. masses --     1.8893                 2.3821                 1.6981
 Frc consts  --     0.8054                 1.0645                 0.8171
 IR Inten    --     9.8802                10.5573                38.0352

                    43                     44                     45
                     A                      A                      A
 Frequencies --   940.2219               956.2311               973.8751
 Red. masses --     1.2675                 1.3206                 3.9409
 Frc consts  --     0.6602                 0.7115                 2.2022
 IR Inten    --     0.3261                 2.2933                38.0215

                    46                     47                     48
                     A                      A                      A
 Frequencies --   976.0901               978.1606              1041.4496
 Red. masses --     4.2598                 3.9560                 4.4915
 Frc consts  --     2.3912                 2.2301                 2.8702
 IR Inten    --    23.0692                97.0070               339.5625

                    49                     50                     51
                     A                      A                      A
 Frequencies --  1046.6327              1094.9993              1138.5699
 Red. masses --     2.5309                 1.3638                 1.5483
 Frc consts  --     1.6335                 0.9635                 1.1825
 IR Inten    --    21.3622                 7.7764                56.2300

                    52                     53                     54
                     A                      A                      A
 Frequencies --  1144.4340              1163.1163              1176.9312
 Red. masses --     1.2161                 1.5526                 1.5027
 Frc consts  --     0.9384                 1.2376                 1.2264
 IR Inten    --     0.1237               107.6234               157.8009

                    55                     56                     57
                     A                      A                      A
 Frequencies --  1183.9286              1189.2659              1192.7080
 Red. masses --     1.4213                 1.6165                 1.7417
 Frc consts  --     1.1738                 1.3470                 1.4598
 IR Inten    --    55.1852               326.4862               370.7628

                    58                     59                     60
                     A                      A                      A
 Frequencies --  1194.9217              1212.3438              1237.8853
 Red. masses --     1.2178                 2.2029                 2.3739
 Frc consts  --     1.0245                 1.9077                 2.1432
 IR Inten    --   153.5395               106.8495               142.2651

                    61                     62                     63
                     A                      A                      A
 Frequencies --  1247.8310              1267.4422              1292.8557
 Red. masses --     3.4400                 2.3256                 1.8188
 Frc consts  --     3.1559                 2.2011                 1.7911
 IR Inten    --   401.9412                 7.2199                11.2038

                    64                     65                     66
                     A                      A                      A
 Frequencies --  1293.8723              1303.7225              1326.5127
 Red. masses --     3.5996                 3.5275                 1.1703
 Frc consts  --     3.5505                 3.5326                 1.2133
 IR Inten    --   251.1729               117.9473                 6.4493

                    67                     68                     69
                     A                      A                      A
 Frequencies --  1376.3190              1404.8822              1424.1809
 Red. masses --     2.0693                 3.8507                 5.6520
 Frc consts  --     2.3095                 4.4778                 6.7543
 IR Inten    --     2.6312               124.9366                80.4742

                    70                     71                     72
                     A                      A                      A
 Frequencies --  1441.3637              1457.7642              1460.2980
 Red. masses --     2.6854                 1.2884                 1.1781
 Frc consts  --     3.2871                 1.6132                 1.4802
 IR Inten    --   262.4076                51.2855                26.3091

                    73                     74                     75
                     A                      A                      A
 Frequencies --  1485.9843              1491.6868              1502.3971
 Red. masses --     2.7419                 1.3304                 1.2940
 Frc consts  --     3.5672                 1.7442                 1.7209
 IR Inten    --    35.1544                38.0791                23.3024

                    76                     77                     78
                     A                      A                      A
 Frequencies --  1513.0624              1515.2936              1519.4338
 Red. masses --     1.4795                 1.3824                 1.0432
 Frc consts  --     1.9957                 1.8702                 1.4190
 IR Inten    --    13.7284                 0.5721                 1.2032

                    79                     80                     81
                     A                      A                      A
 Frequencies --  1530.6121              1531.3067              1537.6111
 Red. masses --     1.0497                 1.0456                 1.0515
 Frc consts  --     1.4490                 1.4445                 1.4647
 IR Inten    --    16.7980                14.9409                 8.2474

                    82                     83                     84
                     A                      A                      A
 Frequencies --  1551.8710              1564.6950              1570.1636
 Red. masses --     1.2110                 1.3403                 2.2822
 Frc consts  --     1.7183                 1.9333                 3.3150
 IR Inten    --    27.9916               112.2443                27.3659

                    85                     86                     87
                     A                      A                      A
 Frequencies --  1623.0598              1669.1469              1692.4141
 Red. masses --     7.3233                 5.9230                 6.5289
 Frc consts  --    11.3665                 9.7226                11.0180
 IR Inten    --    12.3272                21.5675               156.7753

                    88                     89                     90
                     A                      A                      A
 Frequencies --  1816.9097              2967.5414              3017.5640
 Red. masses --    10.8934                 1.0663                 1.0450
 Frc consts  --    21.1875                 5.5325                 5.6063
 IR Inten    --   401.0270                56.0926                55.7311

                    91                     92                     93
                     A                      A                      A
 Frequencies --  3028.0275              3035.6518              3073.9922
 Red. masses --     1.0407                 1.0411                 1.1034
 Frc consts  --     5.6222                 5.6528                 6.1429
 IR Inten    --    28.2873               128.8957                59.6605

                    94                     95                     96
                     A                      A                      A
 Frequencies --  3079.0898              3080.9607              3100.4262
 Red. masses --     1.1048                 1.0974                 1.0921
 Frc consts  --     6.1713                 6.1376                 6.1852
 IR Inten    --    15.8290                46.7981                33.7506

                    97                     98                     99
                     A                      A                      A
 Frequencies --  3157.0283              3183.7651              3188.3231
 Red. masses --     1.1029                 1.0892                 1.0895
 Frc consts  --     6.4763                 6.5051                 6.5253
 IR Inten    --    36.1242                 1.8371                24.1241

                   100                    101                    102
                     A                      A                      A
 Frequencies --  3194.4440              3205.2462              3209.0256
 Red. masses --     1.0961                 1.0908                 1.0910
 Frc consts  --     6.5902                 6.6027                 6.6192
 IR Inten    --     0.8762                 4.0217                 8.1551

                   103                    104                    105
                     A                      A                      A
 Frequencies --  3211.2400              3224.0816              3249.5369
 Red. masses --     1.0943                 1.0921                 1.0931
 Frc consts  --     6.6486                 6.6886                 6.8010
 IR Inten    --     3.5459                17.0293                 3.0820

 - Thermochemistry -
 -------------------
 Temperature   298.150 Kelvin.  Pressure   1.00000 Atm.
 Atom     1 has atomic number  6 and mass  12.00000

 Molecular mass:   275.11576 amu.
 Principal axes and moments of inertia in atomic units:
                           1         2         3
     Eigenvalues --  1839.86246********************
           X            0.99999   0.00398  -0.00238
           Y           -0.00396   0.99994   0.01054
           Z            0.00242  -0.01053   0.99994
 This molecule is an asymmetric top.
 Rotational symmetry number  1.
 Warning -- assumption of classical behavior for rotation
           may cause significant error
 Rotational temperatures (Kelvin)      0.04708     0.00539     0.00498
 Rotational constants (GHZ):           0.98091     0.11240     0.10381
 Zero-point vibrational energy     790961.0 (Joules/Mol)
                                  189.04420 (Kcal/Mol)
 Warning -- explicit consideration of  29 degrees of freedom as
           vibrations may cause significant error
 Vibrational temperatures:     33.66    46.05    47.64    69.60    71.40
          (Kelvin)            110.05   144.41   164.82   188.59   205.86
                              218.20   233.09   272.46   305.43   327.69
                              375.21   438.28   455.03   463.47   535.55
                              569.85   607.45   636.70   658.03   697.54
                              727.21   814.34   837.58   859.39   916.95
                              935.01   945.35  1063.03  1079.64  1089.36
                             1132.87  1137.47  1181.14  1205.91  1223.83
                             1253.05  1300.25  1352.77  1375.80  1401.19
                             1404.37  1407.35  1498.41  1505.87  1575.46
                             1638.15  1646.58  1673.46  1693.34  1703.41
                             1711.09  1716.04  1719.22  1744.29  1781.04
                             1795.35  1823.56  1860.13  1861.59  1875.76
                             1908.55  1980.21  2021.31  2049.08  2073.80
                             2097.39  2101.04  2138.00  2146.20  2161.61
                             2176.96  2180.17  2186.12  2202.21  2203.21
                             2212.28  2232.79  2251.24  2259.11  2335.22
                             2401.53  2435.00  2614.12  4269.62  4341.60
                             4356.65  4367.62  4422.78  4430.12  4432.81
                             4460.82  4542.25  4580.72  4587.28  4596.09
                             4611.63  4617.07  4620.25  4638.73  4675.35

 Zero-point correction=                           0.301261 (Hartree/Particle)
 Thermal correction to Energy=                    0.320795
 Thermal correction to Enthalpy=                  0.321740
 Thermal correction to Gibbs Free Energy=         0.250419
 Sum of electronic and zero-point Energies=           -937.180209
 Sum of electronic and thermal Energies=              -937.160675
 Sum of electronic and thermal Enthalpies=            -937.159731
 Sum of electronic and thermal Free Energies=         -937.231051

                     E (Thermal)             CV                S
                      KCal/Mol        Cal/Mol-Kelvin    Cal/Mol-Kelvin
 Total                  201.302             71.234            150.106
 Electronic               0.000              0.000              0.000
 Translational            0.889              2.981             42.735
 Rotational               0.889              2.981             34.595
 Vibrational            199.525             65.272             72.776
 Vibration     1          0.593              1.985              6.323
 Vibration     2          0.594              1.983              5.701
 Vibration     3          0.594              1.983              5.634
 Vibration     4          0.595              1.978              4.883
 Vibration     5          0.595              1.978              4.832
 Vibration     6          0.599              1.965              3.979
 Vibration     7          0.604              1.949              3.447
 Vibration     8          0.607              1.937              3.190
 Vibration     9          0.612              1.922              2.930
 Vibration    10          0.616              1.910              2.762
 Vibration    11          0.619              1.901              2.651
 Vibration    12          0.622              1.889              2.526
 Vibration    13          0.633              1.855              2.234
 Vibration    14          0.643              1.822              2.024
 Vibration    15          0.651              1.799              1.897
 Vibration    16          0.669              1.744              1.657
 Vibration    17          0.696              1.665              1.391
 Vibration    18          0.703              1.643              1.329
 Vibration    19          0.707              1.631              1.299
 Vibration    20          0.744              1.529              1.071
 Vibration    21          0.763              1.479              0.977
 Vibration    22          0.785              1.422              0.885
 Vibration    23          0.802              1.377              0.819
 Vibration    24          0.815              1.345              0.774
 Vibration    25          0.841              1.284              0.697
 Vibration    26          0.861              1.238              0.645
 Vibration    27          0.922              1.105              0.512
 Vibration    28          0.939              1.070              0.481
 Vibration    29          0.955              1.038              0.454

 Optimization completed.
    -- Stationary point found.
 Normal termination of Gaussian 09 at Thu Sep 30 12:57:38 2021.
 Gaussian 09:  AM64L-G09RevA.02 11-Jun-2009

 ----------------------------------------------------------------------
 #p TD(NStates=10, Root=1) b3lyp/6-31G* volume pop=NPA density=current
 Geom=AllCheck Guess=Read
 ----------------------------------------------------------------------

 COCOc1ccc2c(c1)cc(cc2)OC(=O)N(C)C_conf_0
 ----------------------------------------
 Redundant internal coordinates taken from checkpoint file:
 C15H17NO4_187d_conf_0.chk
 Charge =  0 Multiplicity = 1

                         Standard orientation:
 ---------------------------------------------------------------------
 Center     Atomic      Atomic             Coordinates (Angstroms)
 Number     Number       Type             X           Y           Z
 ---------------------------------------------------------------------
      1          6           0        6.411610   -1.997833   -0.496580
      2          8           0        6.354100   -1.017607    0.534699
      3          6           0        5.396196   -0.044997    0.333895
      4          8           0        4.103436   -0.637242    0.453466
      5          6           0        2.995667    0.123719    0.201635
      6          6           0        3.043552    1.524956   -0.028612
      7          6           0        1.876697    2.220094   -0.263713
      8          6           0        0.617433    1.572984   -0.279048
      9          6           0        0.574462    0.159363   -0.040871
     10          6           0        1.781399   -0.538936    0.194173
     11          6           0       -0.687723   -0.495295   -0.050486
     12          6           0       -1.835807    0.218801   -0.288699
     13          6           0       -1.807605    1.614865   -0.532356
     14          6           0       -0.598709    2.267530   -0.521176
     15          8           0       -3.018021   -0.510933   -0.386646
     16          6           0       -4.134637   -0.084779    0.301539
     17          8           0       -4.145647    0.878387    1.044215
     18          7           0       -5.204221   -0.889291    0.031834
     19          6           0       -6.464178   -0.618333    0.705474
     20          6           0       -5.173069   -2.052802   -0.840853
     21          1           0        7.267508   -2.636422   -0.268561
     22          1           0        6.562690   -1.526787   -1.479837
     23          1           0        5.499129   -2.603023   -0.525875
     24          1           0        5.487696    0.419904   -0.663817
     25          1           0        5.544119    0.708116    1.116844
     26          1           0        3.987829    2.057446   -0.014760
     27          1           0        1.917670    3.292597   -0.438671
     28          1           0        1.768130   -1.609545    0.375801
     29          1           0       -0.749361   -1.564980    0.125486
     30          1           0       -2.733061    2.148185   -0.707932
     31          1           0       -0.561847    3.339097   -0.702099
     32          1           0       -6.349975    0.272578    1.320969
     33          1           0       -6.751329   -1.466249    1.341880
     34          1           0       -7.262131   -0.454585   -0.030568
     35          1           0       -4.204082   -2.133729   -1.326859
     36          1           0       -5.951881   -1.964196   -1.609657
     37          1           0       -5.364219   -2.970228   -0.266992
 ---------------------------------------------------------------------

 SCF Done:  E(RB3LYP) =  -937.481470570     A.U. after    3 cycles

 Excitation energies and oscillator strengths:

 Excited State   1:      Singlet-A      4.1178 eV  301.09 nm  f=0.0506  <S**2>=0.000
      72 -> 74         0.17765
      72 -> 75         0.15040
      73 -> 74         0.64122
      73 -> 75        -0.17003
 This state for optimization and/or second-order correction.
 Total Energy, E(TD-HF/TD-KS) =  -937.330144334
 Copying the excited state density for this state as the 1-particle RhoCI density.

 Excited State   2:      Singlet-A      4.3975 eV  281.94 nm  f=0.0152  <S**2>=0.000
      72 -> 74         0.52468
      73 -> 74        -0.24929
      73 -> 75        -0.39494

 Excited State   3:      Singlet-A      5.1664 eV  239.98 nm  f=0.0571  <S**2>=0.000
      71 -> 74         0.68201
      72 -> 74         0.13022
      73 -> 75         0.11731

 Excited State   4:      Singlet-A      5.4876 eV  225.94 nm  f=0.6431  <S**2>=0.000
      68 -> 74        -0.10694
      69 -> 74        -0.18415
      70 -> 74         0.34100
      71 -> 74        -0.14873
      72 -> 74         0.29435
      73 -> 75         0.36620
      73 -> 76        -0.26435

 Excited State   5:      Singlet-A      5.7041 eV  217.36 nm  f=0.8273  <S**2>=0.000
      70 -> 74         0.46617
      72 -> 74        -0.24756
      73 -> 75        -0.34200
      73 -> 76        -0.27096

 Excited State   6:      Singlet-A      5.7531 eV  215.51 nm  f=0.0993  <S**2>=0.000
      67 -> 74         0.13427
      68 -> 74         0.13993
      69 -> 74         0.27281
      70 -> 74         0.32480
      72 -> 75        -0.19416
      73 -> 76         0.45138

 Excited State   7:      Singlet-A      5.7802 eV  214.50 nm  f=0.1059  <S**2>=0.000
      67 -> 74        -0.10846
      69 -> 74         0.25177
      70 -> 74         0.13655
      72 -> 75         0.57547
      72 -> 76        -0.10038
      73 -> 75         0.13526

 Excited State   8:      Singlet-A      6.0891 eV  203.62 nm  f=0.0785  <S**2>=0.000
      67 -> 74        -0.12026
      68 -> 74        -0.24808
      69 -> 74         0.43351
      71 -> 75        -0.27288
      72 -> 75        -0.19814
      72 -> 76        -0.22528
      73 -> 76        -0.16415

 Excited State   9:      Singlet-A      6.1339 eV  202.13 nm  f=0.0054  <S**2>=0.000
      68 -> 74         0.51195
      69 -> 74        -0.14386
      71 -> 75        -0.40446
      72 -> 76        -0.15225

 Excited State  10:      Singlet-A      6.1669 eV  201.05 nm  f=0.0709  <S**2>=0.000
      68 -> 74         0.23569
      69 -> 75        -0.10605
      70 -> 75         0.12094
      71 -> 75         0.48982
      72 -> 75        -0.16751
      72 -> 76        -0.33918

 The electronic state is 1-A.
 Alpha  occ. eigenvalues --  -19.19344 -19.17608 -19.16450 -19.11511 -14.37005
 Alpha  occ. eigenvalues --  -10.33250 -10.29155 -10.25026 -10.24876 -10.23221
 Alpha  occ. eigenvalues --  -10.22259 -10.21718 -10.19931 -10.19435 -10.19285
 Alpha  occ. eigenvalues --  -10.19217 -10.19040 -10.18660 -10.18538 -10.18148
 Alpha  occ. eigenvalues --   -1.10468  -1.08608  -1.03005  -1.01292  -0.94165
 Alpha  occ. eigenvalues --   -0.86940  -0.81763  -0.77396  -0.74846  -0.74164
 Alpha  occ. eigenvalues --   -0.72561  -0.71321  -0.69985  -0.65238  -0.63030
 Alpha  occ. eigenvalues --   -0.61342  -0.59739  -0.57158  -0.54286  -0.52932
 Alpha  occ. eigenvalues --   -0.51509  -0.51067  -0.50436  -0.49024  -0.48525
 Alpha  occ. eigenvalues --   -0.47353  -0.45379  -0.44965  -0.44024  -0.43624
 Alpha  occ. eigenvalues --   -0.42549  -0.42265  -0.41913  -0.41739  -0.40867
 Alpha  occ. eigenvalues --   -0.40696  -0.40525  -0.39371  -0.38866  -0.37943
 Alpha  occ. eigenvalues --   -0.35998  -0.35590  -0.35244  -0.33162  -0.32756
 Alpha  occ. eigenvalues --   -0.31452  -0.28925  -0.28087  -0.27799  -0.26834
 Alpha  occ. eigenvalues --   -0.24444  -0.22414  -0.20188
 Alpha virt. eigenvalues --   -0.03472   0.00077   0.03517   0.05473   0.09039
 Alpha virt. eigenvalues --    0.09250   0.09524   0.11018   0.11363   0.12472
 Alpha virt. eigenvalues --    0.12690   0.13291   0.13721   0.14329   0.15059

 Mulliken atomic charges:
              1
     1  C   -0.216687
     2  O   -0.446672
     3  C    0.183616
     4  O   -0.484405
     5  C    0.386148
     6  C   -0.218622
     7  C   -0.222365
     8  C    0.167949
     9  C    0.137748
    10  C   -0.256353
    11  C   -0.261621
    12  C    0.343308
    13  C   -0.117836
    14  C   -0.236797
    15  O   -0.562179
    16  C    0.780602
    17  O   -0.512732
    18  N   -0.435540
    19  C   -0.316785
    20  C   -0.315122
    21  H    0.170681
    22  H    0.139126
    23  H    0.165636
    24  H    0.141577
    25  H    0.170637
    26  H    0.123279
    27  H    0.129109
    28  H    0.143718
    29  H    0.126925
    30  H    0.152836
    31  H    0.127977
    32  H    0.204403
    33  H    0.151952
    34  H    0.150973
    35  H    0.199285
    36  H    0.153136
    37  H    0.153096
 Sum of Mulliken atomic charges =  -0.00000

 Dipole moment (field-independent basis, Debye):
    X=              1.4313    Y=             -2.1298    Z=             -2.4350  Tot=              3.5376
 Quadrupole moment (field-independent basis, Debye-Ang):
   XX=            -87.7376   YY=           -107.0686   ZZ=           -120.3895
   XY=              9.0217   XZ=             -1.4460   YZ=             -0.5991

 Summary of Natural Population Analysis:

                                       Natural Population
                Natural  -----------------------------------------------
    Atom  No    Charge         Core      Valence    Rydberg      Total
 -----------------------------------------------------------------------
      C    1   -0.32143      1.99944     4.30772    0.01427     6.32143
      O    2   -0.55885      1.99980     6.54651    0.01255     8.55885
      C    3    0.20978      1.99938     3.76376    0.02708     5.79022
      O    4   -0.48177      1.99973     6.47022    0.01182     8.48177
      C    5    0.36308      1.99880     3.61558    0.02254     5.63692
      C    6   -0.38558      1.99905     4.37184    0.01469     6.38558
      C    7   -0.20648      1.99907     4.19101    0.01640     6.20648
      C    8   -0.05184      1.99902     4.03806    0.01475     6.05184
      C    9   -0.05158      1.99904     4.03722    0.01533     6.05158
      C   10   -0.23375      1.99900     4.21859    0.01616     6.23375
      C   11   -0.26241      1.99897     4.24768    0.01576     6.26241
      C   12    0.25675      1.99873     3.72182    0.02271     5.74325
      C   13   -0.19962      1.99902     4.18645    0.01415     6.19962
      C   14   -0.24376      1.99907     4.22912    0.01556     6.24376
      O   15   -0.56266      1.99969     6.55271    0.01026     8.56266
      C   16    0.94162      1.99937     3.01380    0.04521     5.05838
      O   17   -0.64751      1.99978     6.62871    0.01903     8.64751
      N   18   -0.49005      1.99932     5.47978    0.01096     7.49005
      C   19   -0.46822      1.99947     4.45698    0.01177     6.46822
      C   20   -0.46980      1.99946     4.45885    0.01149     6.46980
      H   21    0.22621      0.00000     0.77322    0.00057     0.77379
      H   22    0.19379      0.00000     0.80448    0.00173     0.80621
      H   23    0.21059      0.00000     0.78760    0.00181     0.78941
      H   24    0.18777      0.00000     0.80906    0.00318     0.81223
      H   25    0.22034      0.00000     0.77781    0.00185     0.77966
      H   26    0.23154      0.00000     0.76760    0.00085     0.76846
      H   27    0.23354      0.00000     0.76534    0.00111     0.76646
      H   28    0.24334      0.00000     0.75507    0.00159     0.75666
      H   29    0.23797      0.00000     0.76059    0.00145     0.76203
      H   30    0.25262      0.00000     0.74624    0.00113     0.74738
      H   31    0.23252      0.00000     0.76641    0.00107     0.76748
      H   32    0.26270      0.00000     0.73572    0.00157     0.73730
      H   33    0.21746      0.00000     0.78111    0.00144     0.78254
      H   34    0.21777      0.00000     0.78084    0.00139     0.78223
      H   35    0.25777      0.00000     0.74128    0.00096     0.74223
      H   36    0.22002      0.00000     0.77846    0.00152     0.77998
      H   37    0.21814      0.00000     0.78023    0.00164     0.78186
 =======================================================================
   * Total *    0.00000     39.98520   105.64745    0.36735   146.00000

 Normal termination of Gaussian 09 at Thu Sep 30 19:53:20 2021.
