 Gaussian 09, Revision A.02,

 -----------------------------------
 #p opt b3lyp/6-31G* scf=(xqc,tight)
 -----------------------------------

 ---------------------------------------------
 COc1nc(Oc2ccc3c(c2)oc(=O)cc3C)nc(n1)OC_conf_0
 ---------------------------------------------
 Symbolic Z-matrix:
 Charge =  0 Multiplicity = 1

 SCF Done:  E(RB3LYP) =  -1119.79966638     A.U. after   16 cycles
 SCF Done:  E(RB3LYP) =  -1119.81213975     A.U. after   13 cycles
 SCF Done:  E(RB3LYP) =  -1119.81795791     A.U. after   13 cycles
 SCF Done:  E(RB3LYP) =  -1119.81966475     A.U. after   12 cycles
 SCF Done:  E(RB3LYP) =  -1119.82026030     A.U. after   12 cycles
 SCF Done:  E(RB3LYP) =  -1119.82053962     A.U. after   12 cycles
 SCF Done:  E(RB3LYP) =  -1119.82065699     A.U. after   16 cycles
 SCF Done:  E(RB3LYP) =  -1119.82073121     A.U. after   11 cycles
 SCF Done:  E(RB3LYP) =  -1119.82076707     A.U. after   11 cycles
 SCF Done:  E(RB3LYP) =  -1119.82081858     A.U. after   11 cycles
 SCF Done:  E(RB3LYP) =  -1119.82087314     A.U. after   12 cycles
 SCF Done:  E(RB3LYP) =  -1119.82089913     A.U. after   12 cycles
 SCF Done:  E(RB3LYP) =  -1119.82092072     A.U. after   10 cycles
 SCF Done:  E(RB3LYP) =  -1119.82092251     A.U. after   11 cycles
 SCF Done:  E(RB3LYP) =  -1119.82092383     A.U. after    7 cycles
 SCF Done:  E(RB3LYP) =  -1119.82092470     A.U. after    8 cycles
 SCF Done:  E(RB3LYP) =  -1119.82092501     A.U. after    8 cycles
 Optimization completed.
    -- Stationary point found.
 Normal termination of Gaussian 09 at Tue Sep 28 18:11:35 2021.

 ----------------------------------------------------------------------
 #p freq b3lyp/6-31G* volume NMR pop=NPA density=current Geom=AllCheck
 Guess=Read
 ----------------------------------------------------------------------

 COc1nc(Oc2ccc3c(c2)oc(=O)cc3C)nc(n1)OC_conf_0
 ---------------------------------------------
 Redundant internal coordinates taken from checkpoint file:
 C15H13N3O5_662d_conf_0.chk
 Charge =  0 Multiplicity = 1

 SCF Done:  E(RB3LYP) =  -1119.82092501     A.U. after    1 cycles

  1  C    Isotropic =   136.0289   Anisotropy =    65.0594

  2  O    Isotropic =   189.4587   Anisotropy =    92.1425

  3  C    Isotropic =    23.0500   Anisotropy =   101.2182

  4  N    Isotropic =    63.1176   Anisotropy =   281.0681

  5  C    Isotropic =    23.9491   Anisotropy =    91.2809

  6  O    Isotropic =   138.1443   Anisotropy =   107.0723

  7  C    Isotropic =    41.4939   Anisotropy =   111.0399

  8  C    Isotropic =    76.8121   Anisotropy =   144.4628

  9  C    Isotropic =    71.1084   Anisotropy =   158.3376

 10  C    Isotropic =    77.5162   Anisotropy =   164.2911

 11  C    Isotropic =    39.2784   Anisotropy =   124.2229

 12  C    Isotropic =    85.1886   Anisotropy =   115.0278

 13  O    Isotropic =    72.0076   Anisotropy =   251.5570

 14  C    Isotropic =    41.1082   Anisotropy =    78.6858

 15  O    Isotropic =   -58.9911   Anisotropy =   523.3757

 16  C    Isotropic =    78.8230   Anisotropy =    92.7609

 17  C    Isotropic =    45.9767   Anisotropy =   177.2469

 18  C    Isotropic =   169.7904   Anisotropy =    25.5139

 19  N    Isotropic =    63.3947   Anisotropy =   276.6281

 20  C    Isotropic =    23.7415   Anisotropy =    99.5529

 21  N    Isotropic =    60.6854   Anisotropy =   284.8365

 22  O    Isotropic =   190.4662   Anisotropy =    90.8364

 23  C    Isotropic =   136.2579   Anisotropy =    65.7823

 24  H    Isotropic =    28.4535   Anisotropy =     7.6641

 25  H    Isotropic =    28.1957   Anisotropy =     7.8768

 26  H    Isotropic =    28.2087   Anisotropy =     7.5835

 27  H    Isotropic =    25.2700   Anisotropy =     8.1616

 28  H    Isotropic =    24.9483   Anisotropy =     8.7023

 29  H    Isotropic =    25.4377   Anisotropy =     7.3401

 30  H    Isotropic =    26.3766   Anisotropy =     6.9261

 31  H    Isotropic =    30.2947   Anisotropy =     7.5003

 32  H    Isotropic =    29.8497   Anisotropy =     7.0736

 33  H    Isotropic =    29.8935   Anisotropy =     7.0850

 34  H    Isotropic =    28.5769   Anisotropy =     7.8851

 35  H    Isotropic =    28.3373   Anisotropy =     8.4153

 36  H    Isotropic =    28.3252   Anisotropy =     8.2407

  Exact polarizability: 298.848   7.524 179.183  21.096 -17.652 127.451
 Approx polarizability: 408.382   1.384 288.614  52.542 -43.629 214.123

                     1                      2                      3
                     A                      A                      A
 Frequencies --    11.3037                24.6268                41.8817
 Red. masses --     6.2733                 6.2921                 5.0077
 Frc consts  --     0.0005                 0.0022                 0.0052
 IR Inten    --     1.2036                 1.0001                 1.3776

                     4                      5                      6
                     A                      A                      A
 Frequencies --    94.3886               100.6514               110.2657
 Red. masses --     7.3498                 3.5829                 3.9964
 Frc consts  --     0.0386                 0.0214                 0.0286
 IR Inten    --     1.5387                 5.7461                 0.0218

                     7                      8                      9
                     A                      A                      A
 Frequencies --   113.8044               147.5870               162.5331
 Red. masses --     3.7037                 1.3312                 1.4062
 Frc consts  --     0.0283                 0.0171                 0.0219
 IR Inten    --     0.4530                 0.2335                 0.3041

                    10                     11                     12
                     A                      A                      A
 Frequencies --   163.5355               169.2669               185.4735
 Red. masses --     2.6175                 1.9910                 3.3863
 Frc consts  --     0.0412                 0.0336                 0.0686
 IR Inten    --     0.8445                 0.2122                 0.6385

                    13                     14                     15
                     A                      A                      A
 Frequencies --   205.4467               213.7645               230.4922
 Red. masses --     2.6938                 1.7265                 5.8771
 Frc consts  --     0.0670                 0.0465                 0.1840
 IR Inten    --     1.6348                 3.1159                 0.1263

                    16                     17                     18
                     A                      A                      A
 Frequencies --   241.1346               253.7848               262.7498
 Red. masses --     6.8084                 5.9866                 5.2743
 Frc consts  --     0.2332                 0.2272                 0.2145
 IR Inten    --     1.5245                 2.0972                 3.4822

                    19                     20                     21
                     A                      A                      A
 Frequencies --   282.0806               310.3774               346.4832
 Red. masses --     4.8128                 4.5702                 4.4819
 Frc consts  --     0.2256                 0.2594                 0.3170
 IR Inten    --     2.6065                 2.8553                10.0982

                    22                     23                     24
                     A                      A                      A
 Frequencies --   394.7233               437.7251               454.9453
 Red. masses --     6.7130                 6.8218                 4.7633
 Frc consts  --     0.6162                 0.7701                 0.5809
 IR Inten    --     3.7490                 8.6967                14.7308

                    25                     26                     27
                     A                      A                      A
 Frequencies --   465.0913               518.6022               531.9085
 Red. masses --     3.9357                 6.4186                 7.2899
 Frc consts  --     0.5016                 1.0171                 1.2152
 IR Inten    --     1.9520                 2.5055                 0.2570

                    28                     29                     30
                     A                      A                      A
 Frequencies --   553.1022               565.2305               590.3330
 Red. masses --     4.2491                 5.9137                 6.0578
 Frc consts  --     0.7659                 1.1132                 1.2438
 IR Inten    --     0.5251                 9.3465                 0.9786

                    31                     32                     33
                     A                      A                      A
 Frequencies --   598.8236               609.8704               665.6520
 Red. masses --     5.8141                 7.0637                 4.7715
 Frc consts  --     1.2284                 1.5480                 1.2456
 IR Inten    --     2.8431                 1.0235                 2.0775

                    34                     35                     36
                     A                      A                      A
 Frequencies --   694.2379               703.8103               735.9131
 Red. masses --     7.2971                 3.7685                11.7631
 Frc consts  --     2.0721                 1.0998                 3.7534
 IR Inten    --     0.6000                 5.4671                 3.2892

                    37                     38                     39
                     A                      A                      A
 Frequencies --   739.9887               742.8055               749.9974
 Red. masses --     5.5003                 4.3011                11.8899
 Frc consts  --     1.7745                 1.3982                 3.9405
 IR Inten    --     5.1476                 8.7672                 0.0115

                    40                     41                     42
                     A                      A                      A
 Frequencies --   780.7742               813.7207               826.7667
 Red. masses --     4.1597                 5.0363                 6.2471
 Frc consts  --     1.4940                 1.9648                 2.5159
 IR Inten    --     2.9855                 6.0786                41.9234

                    43                     44                     45
                     A                      A                      A
 Frequencies --   831.1473               880.1303               884.9578
 Red. masses --     2.3137                 1.4349                 2.8432
 Frc consts  --     0.9417                 0.6549                 1.3119
 IR Inten    --     5.7128                19.8414                30.2112

                    46                     47                     48
                     A                      A                      A
 Frequencies --   890.8670               948.9444               978.3139
 Red. masses --     2.0719                 1.2981                 7.6130
 Frc consts  --     0.9688                 0.6887                 4.2930
 IR Inten    --    28.2802                 1.3052                15.8894

                    49                     50                     51
                     A                      A                      A
 Frequencies --   992.4548               998.0570              1032.7447
 Red. masses --     3.5750                13.0447                 2.2968
 Frc consts  --     2.0747                 7.6559                 1.4433
 IR Inten    --    47.6962                 1.6279                24.5963

                    52                     53                     54
                     A                      A                      A
 Frequencies --  1043.1356              1076.0167              1087.6719
 Red. masses --     3.9640                 1.5523                 2.9451
 Frc consts  --     2.5413                 1.0589                 2.0528
 IR Inten    --    22.0519                 2.6040                 8.1860

                    55                     56                     57
                     A                      A                      A
 Frequencies --  1127.2042              1158.0265              1171.3881
 Red. masses --     3.6415                 3.1545                 4.1408
 Frc consts  --     2.7260                 2.4924                 3.3476
 IR Inten    --    61.8862               125.3749               337.3731

                    58                     59                     60
                     A                      A                      A
 Frequencies --  1175.8329              1184.3417              1185.1185
 Red. masses --     1.5088                 1.2655                 1.2664
 Frc consts  --     1.2291                 1.0458                 1.0479
 IR Inten    --    29.1093                 0.4375                 1.0499

                    61                     62                     63
                     A                      A                      A
 Frequencies --  1209.6908              1229.2355              1240.8562
 Red. masses --     2.1430                 2.0126                 2.0769
 Frc consts  --     1.8476                 1.7918                 1.8841
 IR Inten    --    42.3237               222.8438               148.1027

                    64                     65                     66
                     A                      A                      A
 Frequencies --  1253.9314              1292.8743              1307.1897
 Red. masses --     1.6700                 1.7351                 3.9961
 Frc consts  --     1.5471                 1.7088                 4.0231
 IR Inten    --    14.4962                 3.4055               342.9380

                    67                     68                     69
                     A                      A                      A
 Frequencies --  1317.8828              1379.8425              1405.5992
 Red. masses --    10.0060                 8.3686                 4.2361
 Frc consts  --    10.2391                 9.3877                 4.9311
 IR Inten    --     4.0478                 3.9827              1127.3495

                    70                     71                     72
                     A                      A                      A
 Frequencies --  1415.8290              1418.6795              1442.4778
 Red. masses --     2.7789                 3.2861                 1.3873
 Frc consts  --     3.2820                 3.8967                 1.7007
 IR Inten    --   152.7765               639.6765                11.8603

                    73                     74                     75
                     A                      A                      A
 Frequencies --  1463.4507              1471.3263              1509.8716
 Red. masses --     3.2215                 1.8170                 1.0443
 Frc consts  --     4.0650                 2.3175                 1.4027
 IR Inten    --    18.3135                59.3497                 8.9997

                    76                     77                     78
                     A                      A                      A
 Frequencies --  1511.9188              1512.5010              1518.2839
 Red. masses --     1.0485                 1.0485                 1.0926
 Frc consts  --     1.4121                 1.4133                 1.4840
 IR Inten    --     6.6203                 6.2550                 7.9685

                    79                     80                     81
                     A                      A                      A
 Frequencies --  1518.5683              1521.1736              1524.8593
 Red. masses --     1.2103                 1.0875                 1.3567
 Frc consts  --     1.6445                 1.4826                 1.8586
 IR Inten    --   120.4016                13.6777                38.3179

                    82                     83                     84
                     A                      A                      A
 Frequencies --  1546.1691              1567.8859              1604.4480
 Red. masses --     3.1506                 3.5591                 8.7855
 Frc consts  --     4.4376                 5.1549                13.3251
 IR Inten    --    54.1536                 1.5601               884.1469

                    85                     86                     87
                     A                      A                      A
 Frequencies --  1611.2410              1628.8812              1671.5378
 Red. masses --     7.5325                 9.7788                 6.6058
 Frc consts  --    11.5216                15.2867                10.8744
 IR Inten    --   197.5838               677.1637                60.5060

                    88                     89                     90
                     A                      A                      A
 Frequencies --  1682.5810              1842.5196              3049.3946
 Red. masses --     7.3890                12.1351                 1.0384
 Frc consts  --    12.3251                24.2728                 5.6889
 IR Inten    --    77.4881               615.9313                10.3614

                    91                     92                     93
                     A                      A                      A
 Frequencies --  3077.7726              3078.0372              3102.4522
 Red. masses --     1.0292                 1.0292                 1.1003
 Frc consts  --     5.7442                 5.7452                 6.2396
 IR Inten    --    45.3601                27.1651                10.8953

                    94                     95                     96
                     A                      A                      A
 Frequencies --  3145.4079              3155.0142              3155.7132
 Red. masses --     1.1006                 1.1078                 1.1079
 Frc consts  --     6.4154                 6.4971                 6.5003
 IR Inten    --    16.9450                16.3495                19.3429

                    97                     98                     99
                     A                      A                      A
 Frequencies --  3183.0058              3183.2535              3215.2896
 Red. masses --     1.1075                 1.1076                 1.0887
 Frc consts  --     6.6111                 6.6124                 6.6315
 IR Inten    --    19.6597                23.2520                 6.3777

                   100                    101                    102
                     A                      A                      A
 Frequencies --  3227.6212              3242.8403              3244.1265
 Red. masses --     1.0918                 1.0926                 1.0941
 Frc consts  --     6.7011                 6.7698                 6.7840
 IR Inten    --     2.0363                 0.3777                 4.6546

 - Thermochemistry -
 -------------------
 Temperature   298.150 Kelvin.  Pressure   1.00000 Atm.
 Atom     1 has atomic number  6 and mass  12.00000

 Molecular mass:   315.08552 amu.
 Principal axes and moments of inertia in atomic units:
                           1         2         3
     Eigenvalues --  3283.36526********************
           X            0.99991   0.01149  -0.00745
           Y           -0.01147   0.99993   0.00274
           Z            0.00749  -0.00266   0.99997
 This molecule is an asymmetric top.
 Rotational symmetry number  1.
 Warning -- assumption of classical behavior for rotation
           may cause significant error
 Rotational temperatures (Kelvin)      0.02638     0.00525     0.00480
 Rotational constants (GHZ):           0.54966     0.10944     0.10005
 Zero-point vibrational energy     712814.3 (Joules/Mol)
                                  170.36670 (Kcal/Mol)
 Warning -- explicit consideration of  32 degrees of freedom as
           vibrations may cause significant error
 Vibrational temperatures:     16.26    35.43    60.26   135.80   144.81
          (Kelvin)            158.65   163.74   212.34   233.85   235.29
                              243.54   266.85   295.59   307.56   331.63
                              346.94   365.14   378.04   405.85   446.56
                              498.51   567.92   629.79   654.56   669.16
                              746.15   765.30   795.79   813.24   849.36
                              861.57   877.47   957.72   998.85  1012.62
                             1058.81  1064.68  1068.73  1079.08  1123.36
                             1170.76  1189.53  1195.83  1266.31  1273.26
                             1281.76  1365.32  1407.57  1427.92  1435.98
                             1485.89  1500.84  1548.15  1564.92  1621.79
                             1666.14  1685.36  1691.76  1704.00  1705.12
                             1740.47  1768.59  1785.31  1804.13  1860.16
                             1880.75  1896.14  1985.28  2022.34  2037.06
                             2041.16  2075.40  2105.58  2116.91  2172.37
                             2175.31  2176.15  2184.47  2184.88  2188.63
                             2193.93  2224.59  2255.84  2308.44  2318.21
                             2343.59  2404.97  2420.86  2650.97  4387.39
                             4428.22  4428.60  4463.73  4525.53  4539.36
                             4540.36  4579.63  4579.99  4626.08  4643.82
                             4665.72  4667.57

 Zero-point correction=                           0.271497 (Hartree/Particle)
 Thermal correction to Energy=                    0.291403
 Thermal correction to Enthalpy=                  0.292348
 Thermal correction to Gibbs Free Energy=         0.220950
 Sum of electronic and zero-point Energies=          -1119.549428
 Sum of electronic and thermal Energies=             -1119.529522
 Sum of electronic and thermal Enthalpies=           -1119.528577
 Sum of electronic and thermal Free Energies=        -1119.599975

                     E (Thermal)             CV                S
                      KCal/Mol        Cal/Mol-Kelvin    Cal/Mol-Kelvin
 Total                  182.858             74.650            150.269
 Electronic               0.000              0.000              0.000
 Translational            0.889              2.981             43.139
 Rotational               0.889              2.981             35.234
 Vibrational            181.081             68.688             71.897
 Vibration     1          0.593              1.987              7.768
 Vibration     2          0.593              1.985              6.221
 Vibration     3          0.595              1.980              5.168
 Vibration     4          0.603              1.953              3.567
 Vibration     5          0.604              1.949              3.442
 Vibration     6          0.606              1.941              3.264
 Vibration     7          0.607              1.938              3.203
 Vibration     8          0.617              1.905              2.703
 Vibration     9          0.623              1.888              2.520
 Vibration    10          0.623              1.887              2.509
 Vibration    11          0.625              1.880              2.444
 Vibration    12          0.632              1.860              2.273
 Vibration    13          0.640              1.832              2.084
 Vibration    14          0.644              1.820              2.011
 Vibration    15          0.652              1.794              1.875
 Vibration    16          0.658              1.777              1.794
 Vibration    17          0.665              1.756              1.704
 Vibration    18          0.670              1.741              1.643
 Vibration    19          0.681              1.707              1.521
 Vibration    20          0.699              1.654              1.360
 Vibration    21          0.724              1.582              1.182
 Vibration    22          0.762              1.481              0.982
 Vibration    23          0.798              1.388              0.834
 Vibration    24          0.813              1.350              0.781
 Vibration    25          0.823              1.327              0.751
 Vibration    26          0.874              1.209              0.613
 Vibration    27          0.887              1.179              0.583
 Vibration    28          0.908              1.133              0.538
 Vibration    29          0.921              1.106              0.513
 Vibration    30          0.948              1.052              0.467
 Vibration    31          0.957              1.034              0.452
 Vibration    32          0.969              1.011              0.433

 Optimization completed.
    -- Stationary point found.
 Normal termination of Gaussian 09 at Tue Sep 28 20:49:57 2021.
 Gaussian 09:  AM64L-G09RevA.02 11-Jun-2009

 ----------------------------------------------------------------------
 #p TD(NStates=10, Root=1) b3lyp/6-31G* volume pop=NPA density=current
 Geom=AllCheck Guess=Read
 ----------------------------------------------------------------------

 COc1nc(Oc2ccc3c(c2)oc(=O)cc3C)nc(n1)OC_conf_0
 ---------------------------------------------
 Redundant internal coordinates taken from checkpoint file:
 C15H13N3O5_662d_conf_0.chk
 Charge =  0 Multiplicity = 1

                         Standard orientation:
 ---------------------------------------------------------------------
 Center     Atomic      Atomic             Coordinates (Angstroms)
 Number     Number       Type             X           Y           Z
 ---------------------------------------------------------------------
      1          6           0       -5.336869   -2.593047   -0.622675
      2          8           0       -5.329563   -1.236897   -0.148314
      3          6           0       -4.151721   -0.624546   -0.053934
      4          7           0       -3.045495   -1.280422   -0.403113
      5          6           0       -1.933681   -0.551577   -0.255581
      6          8           0       -0.813095   -1.227205   -0.589270
      7          6           0        0.435797   -0.614771   -0.560552
      8          6           0        0.733487    0.486673   -1.372104
      9          6           0        2.026758    0.984457   -1.375100
     10          6           0        3.043169    0.404453   -0.590185
     11          6           0        2.702205   -0.708145    0.204026
     12          6           0        1.404419   -1.222311    0.223501
     13          8           0        3.615639   -1.339076    0.992889
     14          6           0        4.948159   -0.922651    1.068553
     15          8           0        5.689527   -1.539719    1.795646
     16          6           0        5.303339    0.226774    0.249601
     17          6           0        4.418276    0.876390   -0.548238
     18          6           0        4.838077    2.060908   -1.376305
     19          7           0       -1.843387    0.695391    0.177773
     20          6           0       -3.036028    1.232556    0.489590
     21          7           0       -4.220986    0.635707    0.400537
     22          8           0       -2.966468    2.488226    0.925768
     23          6           0       -4.197912    3.131726    1.289936
     24          1           0       -6.386975   -2.886670   -0.615833
     25          1           0       -4.751951   -3.237817    0.037971
     26          1           0       -4.926439   -2.652493   -1.633780
     27          1           0       -0.041298    0.941805   -1.976649
     28          1           0        2.259560    1.840829   -1.999256
     29          1           0        1.167605   -2.081949    0.839222
     30          1           0        6.340679    0.535191    0.320225
     31          1           0        5.896961    2.286645   -1.227686
     32          1           0        4.257168    2.953131   -1.112430
     33          1           0        4.674763    1.873849   -2.444817
     34          1           0       -3.906798    4.131332    1.614114
     35          1           0       -4.692001    2.591862    2.101602
     36          1           0       -4.875373    3.185580    0.433991
 ---------------------------------------------------------------------

 SCF Done:  E(RB3LYP) =  -1119.82092501     A.U. after    1 cycles

 Excitation energies and oscillator strengths:

 Excited State   1:      Singlet-A      4.1742 eV  297.03 nm  f=0.2837  <S**2>=0.000
      81 -> 83         0.17780
      81 -> 86        -0.11086
      82 -> 83         0.66565
 This state for optimization and/or second-order correction.
 Total Energy, E(TD-HF/TD-KS) =  -1119.66752622
 Copying the excited state density for this state as the 1-particle RhoCI density.

 Excited State   2:      Singlet-A      4.4512 eV  278.54 nm  f=0.0000  <S**2>=0.000
      80 -> 83         0.68425
      80 -> 87        -0.12233

 Excited State   3:      Singlet-A      4.6436 eV  267.00 nm  f=0.1377  <S**2>=0.000
      81 -> 83         0.62050
      82 -> 83        -0.17858
      82 -> 84         0.13948
      82 -> 86         0.21076

 Excited State   4:      Singlet-A      5.1279 eV  241.78 nm  f=0.0092  <S**2>=0.000
      82 -> 84         0.62333
      82 -> 85        -0.25212
      82 -> 86        -0.12107

 Excited State   5:      Singlet-A      5.2355 eV  236.81 nm  f=0.0140  <S**2>=0.000
      78 -> 85         0.10674
      82 -> 84         0.22365
      82 -> 85         0.62610

 Excited State   6:      Singlet-A      5.3888 eV  230.08 nm  f=0.0027  <S**2>=0.000
      76 -> 83         0.24046
      77 -> 83         0.13652
      78 -> 83         0.23297
      79 -> 83         0.57454

 Excited State   7:      Singlet-A      5.4065 eV  229.32 nm  f=0.0012  <S**2>=0.000
      76 -> 83         0.28022
      76 -> 84        -0.12592
      77 -> 83         0.16122
      78 -> 83         0.43905
      79 -> 83        -0.37000

 Excited State   8:      Singlet-A      5.4349 eV  228.13 nm  f=0.0140  <S**2>=0.000
      76 -> 83        -0.16160
      77 -> 83        -0.20308
      78 -> 83         0.13993
      81 -> 83        -0.18024
      81 -> 84        -0.20265
      81 -> 86        -0.14606
      81 -> 87         0.15389
      82 -> 86         0.48218
      82 -> 87         0.18380

 Excited State   9:      Singlet-A      5.4991 eV  225.46 nm  f=0.0003  <S**2>=0.000
      76 -> 83        -0.41933
      76 -> 84         0.20241
      77 -> 83         0.44734
      77 -> 84        -0.20996
      78 -> 83         0.14366

 Excited State  10:      Singlet-A      5.5240 eV  224.45 nm  f=0.0298  <S**2>=0.000
      76 -> 83        -0.27018
      77 -> 83        -0.36463
      78 -> 83         0.38708
      81 -> 84         0.18524
      81 -> 87        -0.10187
      82 -> 86        -0.13869
      82 -> 87        -0.20875

 The electronic state is 1-A.
 Alpha  occ. eigenvalues --  -19.21594 -19.20990 -19.20433 -19.20360 -19.12632
 Alpha  occ. eigenvalues --  -14.34292 -14.34231 -14.34125 -10.33759 -10.33253
 Alpha  occ. eigenvalues --  -10.33194 -10.31504 -10.27421 -10.27286 -10.24780
 Alpha  occ. eigenvalues --  -10.24730 -10.23641 -10.21765 -10.21522 -10.20698
 Alpha  occ. eigenvalues --  -10.20624 -10.20610 -10.20552  -1.12403  -1.11114
 Alpha  occ. eigenvalues --   -1.10853  -1.10168  -1.02270  -1.00530  -0.90886
 Alpha  occ. eigenvalues --   -0.90596  -0.87953  -0.84003  -0.77131  -0.76801
 Alpha  occ. eigenvalues --   -0.74890  -0.73830  -0.73420  -0.69220  -0.65621
 Alpha  occ. eigenvalues --   -0.63925  -0.63368  -0.60971  -0.59395  -0.58414
 Alpha  occ. eigenvalues --   -0.54514  -0.53912  -0.52142  -0.51768  -0.51384
 Alpha  occ. eigenvalues --   -0.50149  -0.48234  -0.47164  -0.46589  -0.45842
 Alpha  occ. eigenvalues --   -0.45475  -0.44678  -0.44494  -0.43972  -0.43798
 Alpha  occ. eigenvalues --   -0.42817  -0.42001  -0.41688  -0.40694  -0.39715
 Alpha  occ. eigenvalues --   -0.38915  -0.38169  -0.38007  -0.37855  -0.36648
 Alpha  occ. eigenvalues --   -0.36305  -0.34753  -0.34261  -0.32058  -0.30246
 Alpha  occ. eigenvalues --   -0.28612  -0.28522  -0.28339  -0.28012  -0.27021
 Alpha  occ. eigenvalues --   -0.25686  -0.23242
 Alpha virt. eigenvalues --   -0.06420  -0.02379  -0.02006  -0.01233   0.00525
 Alpha virt. eigenvalues --    0.07894   0.08795   0.10188   0.10752   0.11200
 Alpha virt. eigenvalues --    0.11709   0.12087   0.12156   0.13349   0.13709

 Mulliken atomic charges:
              1
     1  C   -0.213692
     2  O   -0.456671
     3  C    0.684982
     4  N   -0.519446
     5  C    0.661744
     6  O   -0.519910
     7  C    0.346070
     8  C   -0.093056
     9  C   -0.238551
    10  C    0.121487
    11  C    0.320488
    12  C   -0.215783
    13  O   -0.495216
    14  C    0.585280
    15  O   -0.443443
    16  C   -0.325980
    17  C    0.168756
    18  C   -0.532041
    19  N   -0.501871
    20  C    0.683999
    21  N   -0.516883
    22  O   -0.457003
    23  C   -0.213656
    24  H    0.172420
    25  H    0.176605
    26  H    0.175186
    27  H    0.170717
    28  H    0.151563
    29  H    0.174478
    30  H    0.140865
    31  H    0.165273
    32  H    0.160498
    33  H    0.158583
    34  H    0.172162
    35  H    0.176974
    36  H    0.175075
 Sum of Mulliken atomic charges =  -0.00000

 Dipole moment (field-independent basis, Debye):
    X=             -5.0617    Y=              2.4595    Z=             -2.9765  Tot=              6.3662
 Quadrupole moment (field-independent basis, Debye-Ang):
   XX=           -140.0346   YY=           -121.4633   ZZ=           -128.8525
   XY=             14.6955   XZ=            -13.9134   YZ=              2.8218

 Summary of Natural Population Analysis:

                                       Natural Population
                Natural  -----------------------------------------------
    Atom  No    Charge         Core      Valence    Rydberg      Total
 -----------------------------------------------------------------------
      C    1   -0.32168      1.99941     4.30865    0.01362     6.32168
      O    2   -0.49761      1.99972     6.48572    0.01216     8.49761
      C    3    0.77202      1.99922     3.19255    0.03621     5.22798
      N    4   -0.60550      1.99926     5.58522    0.02102     7.60550
      C    5    0.75809      1.99916     3.20664    0.03611     5.24191
      O    6   -0.48211      1.99967     6.47001    0.01242     8.48211
      C    7    0.27826      1.99873     3.70023    0.02278     5.72174
      C    8   -0.15531      1.99900     4.14238    0.01393     6.15531
      C    9   -0.25769      1.99910     4.24374    0.01485     6.25769
      C   10   -0.05948      1.99895     4.04693    0.01360     6.05948
      C   11    0.40183      1.99875     3.57711    0.02231     5.59817
      C   12   -0.30018      1.99894     4.28529    0.01596     6.30018
      O   13   -0.47545      1.99970     6.46358    0.01218     8.47545
      C   14    0.73970      1.99925     3.21864    0.04241     5.26030
      O   15   -0.51934      1.99980     6.49932    0.02023     8.51934
      C   16   -0.38122      1.99887     4.36730    0.01505     6.38122
      C   17   -0.05367      1.99901     4.03798    0.01667     6.05367
      C   18   -0.69177      1.99939     4.68450    0.00788     6.69177
      N   19   -0.58892      1.99923     5.56907    0.02062     7.58892
      C   20    0.76951      1.99922     3.19509    0.03619     5.23049
      N   21   -0.60469      1.99926     5.58441    0.02102     7.60469
      O   22   -0.49800      1.99972     6.48611    0.01218     8.49800
      C   23   -0.32157      1.99941     4.30851    0.01366     6.32157
      H   24    0.22706      0.00000     0.77235    0.00059     0.77294
      H   25    0.22300      0.00000     0.77569    0.00131     0.77700
      H   26    0.22219      0.00000     0.77650    0.00131     0.77781
      H   27    0.25806      0.00000     0.74109    0.00086     0.74194
      H   28    0.24925      0.00000     0.74991    0.00084     0.75075
      H   29    0.27088      0.00000     0.72787    0.00125     0.72912
      H   30    0.24963      0.00000     0.74918    0.00119     0.75037
      H   31    0.24664      0.00000     0.75260    0.00076     0.75336
      H   32    0.23837      0.00000     0.76005    0.00157     0.76163
      H   33    0.23730      0.00000     0.76111    0.00159     0.76270
      H   34    0.22690      0.00000     0.77251    0.00059     0.77310
      H   35    0.22332      0.00000     0.77538    0.00130     0.77668
      H   36    0.22219      0.00000     0.77650    0.00131     0.77781
 =======================================================================
   * Total *   -0.00000     45.98275   117.54971    0.46753   164.00000

 Normal termination of Gaussian 09 at Wed Sep 29 03:44:07 2021.
