 Gaussian 09, Revision A.02,

 -----------------------------------
 #p opt b3lyp/6-31G* scf=(xqc,tight)
 -----------------------------------

 -----------------------------------
 O=C(C(C)(C)C)Oc1cccc2c1cccc2_conf_0
 -----------------------------------
 Symbolic Z-matrix:
 Charge =  0 Multiplicity = 1

 SCF Done:  E(RB3LYP) =  -731.702605436     A.U. after   16 cycles
 SCF Done:  E(RB3LYP) =  -731.708416858     A.U. after   12 cycles
 SCF Done:  E(RB3LYP) =  -731.707555343     A.U. after   15 cycles
 SCF Done:  E(RB3LYP) =  -731.708838707     A.U. after   13 cycles
 SCF Done:  E(RB3LYP) =  -731.709173389     A.U. after   12 cycles
 SCF Done:  E(RB3LYP) =  -731.709362953     A.U. after   12 cycles
 SCF Done:  E(RB3LYP) =  -731.709552008     A.U. after   11 cycles
 SCF Done:  E(RB3LYP) =  -731.709659768     A.U. after   12 cycles
 SCF Done:  E(RB3LYP) =  -731.709781627     A.U. after   12 cycles
 SCF Done:  E(RB3LYP) =  -731.709855235     A.U. after   14 cycles
 SCF Done:  E(RB3LYP) =  -731.709866682     A.U. after   11 cycles
 SCF Done:  E(RB3LYP) =  -731.709872125     A.U. after   12 cycles
 SCF Done:  E(RB3LYP) =  -731.709879162     A.U. after   12 cycles
 SCF Done:  E(RB3LYP) =  -731.709890427     A.U. after   11 cycles
 SCF Done:  E(RB3LYP) =  -731.709896529     A.U. after   11 cycles
 SCF Done:  E(RB3LYP) =  -731.709897286     A.U. after    9 cycles
 SCF Done:  E(RB3LYP) =  -731.709897386     A.U. after    7 cycles
 SCF Done:  E(RB3LYP) =  -731.709897360     A.U. after    7 cycles
 Optimization completed.
    -- Stationary point found.
 Normal termination of Gaussian 09 at Wed Sep 29 06:20:22 2021.

 ----------------------------------------------------------------------
 #p freq b3lyp/6-31G* volume NMR pop=NPA density=current Geom=AllCheck
 Guess=Read
 ----------------------------------------------------------------------

 O=C(C(C)(C)C)Oc1cccc2c1cccc2_conf_0
 -----------------------------------
 Redundant internal coordinates taken from checkpoint file:
 C15H16O2_5eb6_conf_0.chk
 Charge =  0 Multiplicity = 1

 SCF Done:  E(RB3LYP) =  -731.709897360     A.U. after    1 cycles

  1  O    Isotropic =   -64.0006   Anisotropy =   576.5305

  2  C    Isotropic =    22.3779   Anisotropy =    78.7931

  3  C    Isotropic =   148.2113   Anisotropy =    24.9627

  4  C    Isotropic =   162.2448   Anisotropy =    37.5120

  5  C    Isotropic =   161.5683   Anisotropy =    38.0354

  6  C    Isotropic =   162.6000   Anisotropy =    31.6699

  7  O    Isotropic =   112.8715   Anisotropy =   174.1957

  8  C    Isotropic =    48.5700   Anisotropy =    99.4065

  9  C    Isotropic =    75.9737   Anisotropy =   146.4079

 10  C    Isotropic =    70.5348   Anisotropy =   158.6997

 11  C    Isotropic =    70.6827   Anisotropy =   142.2008

 12  C    Isotropic =    62.3149   Anisotropy =   195.5124

 13  C    Isotropic =    69.4355   Anisotropy =   179.4338

 14  C    Isotropic =    73.0777   Anisotropy =   161.9501

 15  C    Isotropic =    70.5239   Anisotropy =   161.9467

 16  C    Isotropic =    70.2748   Anisotropy =   162.6524

 17  C    Isotropic =    67.7854   Anisotropy =   145.5623

 18  H    Isotropic =    30.1016   Anisotropy =     7.3994

 19  H    Isotropic =    30.6754   Anisotropy =     7.8500

 20  H    Isotropic =    30.9858   Anisotropy =     7.9799

 21  H    Isotropic =    30.3313   Anisotropy =     5.4633

 22  H    Isotropic =    30.9742   Anisotropy =     7.9702

 23  H    Isotropic =    30.7290   Anisotropy =     8.3554

 24  H    Isotropic =    30.6509   Anisotropy =     7.8297

 25  H    Isotropic =    30.5305   Anisotropy =     8.3162

 26  H    Isotropic =    31.4214   Anisotropy =     7.9750

 27  H    Isotropic =    24.9856   Anisotropy =     9.3061

 28  H    Isotropic =    24.7960   Anisotropy =     5.0520

 29  H    Isotropic =    24.7122   Anisotropy =     6.1391

 30  H    Isotropic =    24.1579   Anisotropy =    10.2476

 31  H    Isotropic =    24.7548   Anisotropy =     6.3018

 32  H    Isotropic =    24.7637   Anisotropy =     4.9223

 33  H    Isotropic =    24.5630   Anisotropy =     6.6098

  Exact polarizability: 207.910  -9.628 188.999  -5.013   2.400  85.548
 Approx polarizability: 297.576 -20.105 329.698 -11.644  -0.738 134.717

                     1                      2                      3
                     A                      A                      A
 Frequencies --    13.2172                43.0972                43.6544
 Red. masses --     3.4062                 5.2361                 4.7996
 Frc consts  --     0.0004                 0.0057                 0.0054
 IR Inten    --     0.2128                 0.1018                 0.8962

                     4                      5                      6
                     A                      A                      A
 Frequencies --    78.9174               150.1190               178.4703
 Red. masses --     4.4821                 3.9788                 4.1063
 Frc consts  --     0.0164                 0.0528                 0.0771
 IR Inten    --     0.7445                 0.6313                 1.4616

                     7                      8                      9
                     A                      A                      A
 Frequencies --   198.9630               203.7318               225.1737
 Red. masses --     2.7920                 2.1224                 1.3856
 Frc consts  --     0.0651                 0.0519                 0.0414
 IR Inten    --     1.0168                 0.3498                 0.1191

                    10                     11                     12
                     A                      A                      A
 Frequencies --   251.6142               270.4164               279.1703
 Red. masses --     2.1610                 1.1061                 1.4046
 Frc consts  --     0.0806                 0.0477                 0.0645
 IR Inten    --     1.0019                 0.1203                 0.3591

                    13                     14                     15
                     A                      A                      A
 Frequencies --   308.6469               323.8480               356.4879
 Red. masses --     3.7226                 3.0897                 3.1562
 Frc consts  --     0.2089                 0.1909                 0.2363
 IR Inten    --     0.8015                 7.3925                 6.0731

                    16                     17                     18
                     A                      A                      A
 Frequencies --   376.7126               426.1416               441.5036
 Red. masses --     2.3507                 3.4204                 3.2376
 Frc consts  --     0.1966                 0.3660                 0.3718
 IR Inten    --     0.7585                 3.6215                 2.1772

                    19                     20                     21
                     A                      A                      A
 Frequencies --   460.5212               479.2236               520.5730
 Red. masses --     4.5687                 3.4426                 6.6469
 Frc consts  --     0.5709                 0.4658                 1.0613
 IR Inten    --     0.9832                 0.0213                 0.8088

                    22                     23                     24
                     A                      A                      A
 Frequencies --   539.7172               569.8434               582.7315
 Red. masses --     6.2059                 3.8971                 4.1193
 Frc consts  --     1.0651                 0.7456                 0.8242
 IR Inten    --     0.3980                 5.3118                 4.2644

                    25                     26                     27
                     A                      A                      A
 Frequencies --   623.2890               648.8603               735.2331
 Red. masses --     4.7333                 4.0029                 5.7481
 Frc consts  --     1.0834                 0.9929                 1.8307
 IR Inten    --     1.6969                 0.5389                 4.9926

                    28                     29                     30
                     A                      A                      A
 Frequencies --   747.8291               757.1489               784.4106
 Red. masses --     1.3588                 6.5021                 2.5775
 Frc consts  --     0.4477                 2.1962                 0.9344
 IR Inten    --     0.6252                 3.5259                21.9225

                    31                     32                     33
                     A                      A                      A
 Frequencies --   799.8776               806.4182               826.5699
 Red. masses --     2.5910                 2.4130                 2.5811
 Frc consts  --     0.9767                 0.9245                 1.0390
 IR Inten    --    23.6164                26.5063                 5.6642

                    34                     35                     36
                     A                      A                      A
 Frequencies --   864.2512               883.5286               900.9207
 Red. masses --     2.5008                 2.2336                 1.9861
 Frc consts  --     1.1006                 1.0273                 0.9498
 IR Inten    --     4.4861                 3.7084                 3.4433

                    37                     38                     39
                     A                      A                      A
 Frequencies --   916.5313               948.5560               956.1160
 Red. masses --     2.4495                 1.7604                 1.6337
 Frc consts  --     1.2123                 0.9332                 0.8799
 IR Inten    --     4.9605                 1.2662                 3.6978

                    40                     41                     42
                     A                      A                      A
 Frequencies --   957.0361               970.4962               981.3833
 Red. masses --     1.3301                 1.2862                 1.1977
 Frc consts  --     0.7178                 0.7138                 0.6796
 IR Inten    --     0.1818                 0.8203                 0.0152

                    43                     44                     45
                     A                      A                      A
 Frequencies --   991.9858              1044.9304              1053.1734
 Red. masses --     1.2725                 3.0542                 1.9036
 Frc consts  --     0.7378                 1.9648                 1.2440
 IR Inten    --     0.1142                 2.6240                32.7249

                    46                     47                     48
                     A                      A                      A
 Frequencies --  1058.8914              1069.9805              1105.1157
 Red. masses --     1.4352                 1.9885                 2.1905
 Frc consts  --     0.9481                 1.3413                 1.5762
 IR Inten    --     1.3353                21.1631                 8.7580

                    49                     50                     51
                     A                      A                      A
 Frequencies --  1145.5844              1178.9652              1190.5027
 Red. masses --     4.1211                 1.3860                 1.1703
 Frc consts  --     3.1866                 1.1350                 0.9772
 IR Inten    --   705.5121                 6.5288                 3.1116

                    52                     53                     54
                     A                      A                      A
 Frequencies --  1201.4335              1242.6209              1250.3930
 Red. masses --     1.3039                 2.6468                 2.1837
 Frc consts  --     1.1089                 2.4079                 2.0116
 IR Inten    --    37.4114                 1.8235                 4.8825

                    55                     56                     57
                     A                      A                      A
 Frequencies --  1256.8447              1266.6297              1290.5846
 Red. masses --     2.1640                 2.5376                 1.8764
 Frc consts  --     2.0141                 2.3987                 1.8414
 IR Inten    --    57.8524                44.9966                44.0368

                    58                     59                     60
                     A                      A                      A
 Frequencies --  1308.4147              1394.5992              1416.1176
 Red. masses --     3.0369                 3.5942                 7.4493
 Frc consts  --     3.0632                 4.1186                 8.8017
 IR Inten    --    28.7992                 0.8468                 0.7217

                    61                     62                     63
                     A                      A                      A
 Frequencies --  1421.4547              1429.5695              1434.8665
 Red. masses --     1.2094                 1.2680                 1.9411
 Frc consts  --     1.4397                 1.5268                 2.3546
 IR Inten    --     3.7383                10.4878                49.1693

                    64                     65                     66
                     A                      A                      A
 Frequencies --  1458.4863              1491.0284              1508.1997
 Red. masses --     1.2232                 2.1373                 1.0613
 Frc consts  --     1.5330                 2.7995                 1.4223
 IR Inten    --    12.4395                 6.0502                 0.2552

                    67                     68                     69
                     A                      A                      A
 Frequencies --  1510.1135              1515.9099              1520.2186
 Red. masses --     2.3864                 1.0456                 1.0465
 Frc consts  --     3.2064                 1.4157                 1.4250
 IR Inten    --    10.7956                 0.5046                 0.4354

                    70                     71                     72
                     A                      A                      A
 Frequencies --  1530.6134              1532.6047              1550.4386
 Red. masses --     1.0495                 1.0529                 1.0651
 Frc consts  --     1.4486                 1.4571                 1.5085
 IR Inten    --     5.9641                 6.8567                30.1052

                    73                     74                     75
                     A                      A                      A
 Frequencies --  1563.9884              1629.6127              1658.4094
 Red. masses --     3.4864                 7.0531                 5.1027
 Frc consts  --     5.0245                11.0357                 8.2686
 IR Inten    --     9.7018                16.0171                18.2476

                    76                     77                     78
                     A                      A                      A
 Frequencies --  1686.9021              1835.1497              3049.9819
 Red. masses --     6.3665                12.7379                 1.0354
 Frc consts  --    10.6741                25.2750                 5.6747
 IR Inten    --     2.6471               191.1992                26.0798

                    79                     80                     81
                     A                      A                      A
 Frequencies --  3052.1976              3061.7071              3113.9009
 Red. masses --     1.0360                 1.0365                 1.1031
 Frc consts  --     5.6862                 5.7244                 6.3018
 IR Inten    --    10.6945                26.1072                12.9078

                    82                     83                     84
                     A                      A                      A
 Frequencies --  3115.9554              3129.4847              3137.3535
 Red. masses --     1.1024                 1.1019                 1.1022
 Frc consts  --     6.3065                 6.3581                 6.3919
 IR Inten    --    22.8347                39.0125                 1.9858

                    85                     86                     87
                     A                      A                      A
 Frequencies --  3140.0406              3141.7110              3180.8650
 Red. masses --     1.1025                 1.1012                 1.0861
 Frc consts  --     6.4049                 6.4041                 6.4744
 IR Inten    --    22.8817                46.0861                 0.7249

                    88                     89                     90
                     A                      A                      A
 Frequencies --  3186.6889              3192.2097              3205.9002
 Red. masses --     1.0870                 1.0897                 1.0944
 Frc consts  --     6.5036                 6.5422                 6.6270
 IR Inten    --     1.8270                16.7262                30.0480

                    91                     92                     93
                     A                      A                      A
 Frequencies --  3207.0675              3228.4487              3238.1850
 Red. masses --     1.0949                 1.0929                 1.0931
 Frc consts  --     6.6351                 6.7112                 6.7535
 IR Inten    --    30.4954                 9.9360                 5.1252

 - Thermochemistry -
 -------------------
 Temperature   298.150 Kelvin.  Pressure   1.00000 Atm.
 Atom     1 has atomic number  8 and mass  15.99491

 Molecular mass:   228.11503 amu.
 Principal axes and moments of inertia in atomic units:
                           1         2         3
     Eigenvalues --  1945.980476178.384827498.71837
           X            0.99994   0.00993  -0.00474
           Y           -0.00990   0.99993   0.00702
           Z            0.00481  -0.00697   0.99996
 This molecule is an asymmetric top.
 Rotational symmetry number  1.
 Warning -- assumption of classical behavior for rotation
           may cause significant error
 Rotational temperatures (Kelvin)      0.04451     0.01402     0.01155
 Rotational constants (GHZ):           0.92742     0.29211     0.24067
 Zero-point vibrational energy     721090.9 (Joules/Mol)
                                  172.34486 (Kcal/Mol)
 Warning -- explicit consideration of  24 degrees of freedom as
           vibrations may cause significant error
 Vibrational temperatures:     19.02    62.01    62.81   113.54   215.99
          (Kelvin)            256.78   286.26   293.12   323.97   362.02
                              389.07   401.66   444.07   465.94   512.91
                              542.00   613.12   635.22   662.59   689.50
                              748.99   776.53   819.88   838.42   896.77
                              933.56  1057.84  1075.96  1089.37  1128.59
                             1150.84  1160.25  1189.25  1243.46  1271.20
                             1296.22  1318.68  1364.76  1375.64  1376.96
                             1396.33  1411.99  1427.24  1503.42  1515.28
                             1523.51  1539.46  1590.01  1648.24  1696.27
                             1712.87  1728.59  1787.85  1799.03  1808.32
                             1822.40  1856.86  1882.51  2006.51  2037.47
                             2045.15  2056.83  2064.45  2098.43  2145.25
                             2169.96  2172.71  2181.05  2187.25  2202.21
                             2205.07  2230.73  2250.23  2344.65  2386.08
                             2427.07  2640.37  4388.24  4391.43  4405.11
                             4480.20  4483.16  4502.62  4513.95  4517.81
                             4520.22  4576.55  4584.93  4592.87  4612.57
                             4614.25  4645.01  4659.02

 Zero-point correction=                           0.274649 (Hartree/Particle)
 Thermal correction to Energy=                    0.290161
 Thermal correction to Enthalpy=                  0.291106
 Thermal correction to Gibbs Free Energy=         0.230599
 Sum of electronic and zero-point Energies=           -731.435248
 Sum of electronic and thermal Energies=              -731.419736
 Sum of electronic and thermal Enthalpies=            -731.418792
 Sum of electronic and thermal Free Energies=         -731.479299

                     E (Thermal)             CV                S
                      KCal/Mol        Cal/Mol-Kelvin    Cal/Mol-Kelvin
 Total                  182.079             60.669            127.347
 Electronic               0.000              0.000              0.000
 Translational            0.889              2.981             42.176
 Rotational               0.889              2.981             32.866
 Vibrational            180.302             54.708             52.305
 Vibration     1          0.593              1.987              7.457
 Vibration     2          0.595              1.980              5.111
 Vibration     3          0.595              1.980              5.086
 Vibration     4          0.600              1.963              3.918
 Vibration     5          0.618              1.903              2.671
 Vibration     6          0.629              1.869              2.344
 Vibration     7          0.637              1.841              2.143
 Vibration     8          0.639              1.835              2.099
 Vibration     9          0.650              1.803              1.917
 Vibration    10          0.664              1.760              1.719
 Vibration    11          0.674              1.728              1.594
 Vibration    12          0.679              1.712              1.539
 Vibration    13          0.698              1.657              1.370
 Vibration    14          0.708              1.628              1.291
 Vibration    15          0.732              1.562              1.137
 Vibration    16          0.747              1.520              1.052
 Vibration    17          0.788              1.413              0.871
 Vibration    18          0.801              1.380              0.822
 Vibration    19          0.818              1.338              0.765
 Vibration    20          0.836              1.296              0.712
 Vibration    21          0.876              1.204              0.609
 Vibration    22          0.895              1.162              0.566
 Vibration    23          0.926              1.096              0.505
 Vibration    24          0.940              1.069              0.480

 Normal termination of Gaussian 09 at Wed Sep 29 07:37:20 2021.
 Gaussian 09:  AM64L-G09RevA.02 11-Jun-2009

 ----------------------------------------------------------------------
 #p TD(NStates=10, Root=1) b3lyp/6-31G* volume pop=NPA density=current
 Geom=AllCheck Guess=Read
 ----------------------------------------------------------------------

 O=C(C(C)(C)C)Oc1cccc2c1cccc2_conf_0
 -----------------------------------
 Redundant internal coordinates taken from checkpoint file:
 C15H16O2_5eb6_conf_0.chk
 Charge =  0 Multiplicity = 1

                         Standard orientation:
 ---------------------------------------------------------------------
 Center     Atomic      Atomic             Coordinates (Angstroms)
 Number     Number       Type             X           Y           Z
 ---------------------------------------------------------------------
      1          8           0       -1.836863    1.190249   -1.277958
      2          6           0       -1.902541    0.389708   -0.378574
      3          6           0       -3.159254   -0.371050    0.057980
      4          6           0       -2.891295   -1.891624    0.018899
      5          6           0       -3.517083    0.057774    1.499689
      6          6           0       -4.304224   -0.010287   -0.901784
      7          8           0       -0.830416    0.049641    0.415621
      8          6           0        0.409360    0.667419    0.237611
      9          6           0        0.544812    2.035143    0.274810
     10          6           0        1.831255    2.612406    0.167270
     11          6           0        2.947853    1.820040    0.032672
     12          6           0        2.830060    0.405332   -0.003010
     13          6           0        1.532071   -0.196234    0.098350
     14          6           0        1.419669   -1.611615    0.059626
     15          6           0        2.541038   -2.399010   -0.074894
     16          6           0        3.825117   -1.810414   -0.174166
     17          6           0        3.962964   -0.441811   -0.138666
     18          1           0       -2.105092   -2.177925    0.723058
     19          1           0       -2.594281   -2.218297   -0.984426
     20          1           0       -3.805566   -2.432014    0.289954
     21          1           0       -2.713159   -0.186649    2.199800
     22          1           0       -4.426216   -0.462371    1.822612
     23          1           0       -3.709053    1.135491    1.556599
     24          1           0       -4.065262   -0.296906   -1.930531
     25          1           0       -4.501714    1.065636   -0.896689
     26          1           0       -5.218599   -0.533278   -0.600010
     27          1           0       -0.331093    2.664129    0.379188
     28          1           0        1.926909    3.694099    0.193798
     29          1           0        3.935759    2.266238   -0.047962
     30          1           0        0.436475   -2.062048    0.137307
     31          1           0        2.442247   -3.480760   -0.105044
     32          1           0        4.701412   -2.444410   -0.278601
     33          1           0        4.946672    0.015271   -0.215248
 ---------------------------------------------------------------------

 SCF Done:  E(RB3LYP) =  -731.709897360     A.U. after    1 cycles

 Excitation energies and oscillator strengths:

 Excited State   1:      Singlet-A      4.3021 eV  288.20 nm  f=0.1157  <S**2>=0.000
      60 -> 63         0.13591
      61 -> 62         0.68902
 This state for optimization and/or second-order correction.
 Total Energy, E(TD-HF/TD-KS) =  -731.551799146
 Copying the excited state density for this state as the 1-particle RhoCI density.

 Excited State   2:      Singlet-A      4.4714 eV  277.28 nm  f=0.0004  <S**2>=0.000
      60 -> 62        -0.48813
      61 -> 63         0.50912

 Excited State   3:      Singlet-A      5.2132 eV  237.83 nm  f=0.0120  <S**2>=0.000
      61 -> 64         0.69364

 Excited State   4:      Singlet-A      5.3582 eV  231.39 nm  f=0.0419  <S**2>=0.000
      58 -> 62        -0.17312
      58 -> 64        -0.14367
      59 -> 62         0.52711
      59 -> 64         0.33250
      60 -> 62        -0.14234
      60 -> 64        -0.13706
      61 -> 63        -0.11628

 Excited State   5:      Singlet-A      5.6807 eV  218.26 nm  f=0.0118  <S**2>=0.000
      58 -> 62         0.54398
      59 -> 62         0.23293
      61 -> 65        -0.34141

 Excited State   6:      Singlet-A      5.8822 eV  210.78 nm  f=0.0127  <S**2>=0.000
      58 -> 62         0.23650
      58 -> 64        -0.17439
      59 -> 62        -0.30868
      59 -> 64         0.43702
      60 -> 64        -0.31080

 Excited State   7:      Singlet-A      5.9444 eV  208.57 nm  f=0.7650  <S**2>=0.000
      59 -> 62         0.15414
      59 -> 64         0.12089
      60 -> 62         0.45363
      60 -> 64         0.21992
      61 -> 63         0.43121

 Excited State   8:      Singlet-A      6.1294 eV  202.28 nm  f=0.0596  <S**2>=0.000
      57 -> 62         0.10510
      58 -> 63         0.29254
      59 -> 63         0.25580
      59 -> 64         0.24274
      60 -> 64         0.44239
      60 -> 65        -0.18951
      61 -> 63        -0.10564

 Excited State   9:      Singlet-A      6.2207 eV  199.31 nm  f=0.1858  <S**2>=0.000
      58 -> 63         0.10719
      58 -> 64        -0.10186
      58 -> 65         0.10841
      59 -> 63        -0.15572
      60 -> 63         0.63980
      61 -> 62        -0.11440

 Excited State  10:      Singlet-A      6.3420 eV  195.50 nm  f=0.0395  <S**2>=0.000
      57 -> 62         0.31520
      58 -> 62         0.23848
      58 -> 63        -0.10302
      59 -> 62         0.14830
      61 -> 65         0.52335

 The electronic state is 1-A.
 Alpha  occ. eigenvalues --  -19.20049 -19.14161 -10.31776 -10.25159 -10.21624
 Alpha  occ. eigenvalues --  -10.20168 -10.20075 -10.19415 -10.19257 -10.19250
 Alpha  occ. eigenvalues --  -10.19214 -10.19177 -10.19117 -10.19049 -10.18489
 Alpha  occ. eigenvalues --  -10.18480 -10.17588  -1.10686  -1.02511  -0.87356
 Alpha  occ. eigenvalues --   -0.82910  -0.81872  -0.77339  -0.74349  -0.72404
 Alpha  occ. eigenvalues --   -0.69431  -0.68919  -0.66245  -0.62184  -0.61865
 Alpha  occ. eigenvalues --   -0.58725  -0.55125  -0.52075  -0.50363  -0.49068
 Alpha  occ. eigenvalues --   -0.48927  -0.47254  -0.46565  -0.44444  -0.43634
 Alpha  occ. eigenvalues --   -0.43390  -0.42573  -0.42188  -0.41169  -0.40355
 Alpha  occ. eigenvalues --   -0.39400  -0.38672  -0.38301  -0.37760  -0.37070
 Alpha  occ. eigenvalues --   -0.35993  -0.34889  -0.34079  -0.33641  -0.33469
 Alpha  occ. eigenvalues --   -0.32704  -0.31456  -0.27702  -0.27058  -0.24424
 Alpha  occ. eigenvalues --   -0.21217
 Alpha virt. eigenvalues --   -0.03984  -0.00961   0.00528   0.03823   0.07601
 Alpha virt. eigenvalues --    0.09704   0.09987   0.10359   0.12521   0.12703
 Alpha virt. eigenvalues --    0.14079   0.14803   0.15115   0.15681   0.16998

 Mulliken atomic charges:
              1
     1  O   -0.463729
     2  C    0.620581
     3  C   -0.007308
     4  C   -0.455192
     5  C   -0.452848
     6  C   -0.434083
     7  O   -0.524174
     8  C    0.273938
     9  C   -0.136274
    10  C   -0.145694
    11  C   -0.183183
    12  C    0.133282
    13  C    0.103618
    14  C   -0.199486
    15  C   -0.135277
    16  C   -0.125716
    17  C   -0.214756
    18  H    0.165093
    19  H    0.152421
    20  H    0.147887
    21  H    0.163076
    22  H    0.148980
    23  H    0.150504
    24  H    0.156141
    25  H    0.156936
    26  H    0.136858
    27  H    0.153214
    28  H    0.141585
    29  H    0.138465
    30  H    0.144966
    31  H    0.130670
    32  H    0.130370
    33  H    0.129136
 Sum of Mulliken atomic charges =  -0.00000

 Dipole moment (field-independent basis, Debye):
    X=              0.0982    Y=             -0.5772    Z=              1.4033  Tot=              1.5206
 Quadrupole moment (field-independent basis, Debye-Ang):
   XX=            -88.2476   YY=            -92.5102   ZZ=           -105.8358
   XY=              4.5867   XZ=             -3.9478   YZ=              3.4860

 Summary of Natural Population Analysis:

                                       Natural Population
                Natural  -----------------------------------------------
    Atom  No    Charge         Core      Valence    Rydberg      Total
 -----------------------------------------------------------------------
      O    1   -0.57717      1.99977     6.55719    0.02022     8.57717
      C    2    0.82173      1.99927     3.12976    0.04924     5.17827
      C    3   -0.15058      1.99905     4.13908    0.01245     6.15058
      C    4   -0.67042      1.99938     4.66110    0.00994     6.67042
      C    5   -0.66957      1.99938     4.66050    0.00969     6.66957
      C    6   -0.66959      1.99940     4.65910    0.01110     6.66959
      O    7   -0.53438      1.99969     6.52361    0.01108     8.53438
      C    8    0.34197      1.99866     3.63574    0.02364     5.65803
      C    9   -0.25456      1.99901     4.24012    0.01543     6.25456
      C   10   -0.22124      1.99912     4.20662    0.01550     6.22124
      C   11   -0.18817      1.99905     4.17373    0.01538     6.18817
      C   12   -0.05823      1.99904     4.04406    0.01513     6.05823
      C   13   -0.08574      1.99896     4.07169    0.01509     6.08574
      C   14   -0.22219      1.99907     4.20634    0.01678     6.22219
      C   15   -0.22435      1.99911     4.20970    0.01554     6.22435
      C   16   -0.23070      1.99911     4.21619    0.01540     6.23070
      C   17   -0.22067      1.99906     4.20568    0.01593     6.22067
      H   18    0.24002      0.00000     0.75886    0.00112     0.75998
      H   19    0.23696      0.00000     0.76208    0.00096     0.76304
      H   20    0.23511      0.00000     0.76379    0.00109     0.76489
      H   21    0.24292      0.00000     0.75599    0.00109     0.75708
      H   22    0.23483      0.00000     0.76398    0.00119     0.76517
      H   23    0.23551      0.00000     0.76355    0.00095     0.76449
      H   24    0.24275      0.00000     0.75623    0.00102     0.75725
      H   25    0.24359      0.00000     0.75535    0.00107     0.75641
      H   26    0.22967      0.00000     0.76940    0.00093     0.77033
      H   27    0.25439      0.00000     0.74463    0.00098     0.74561
      H   28    0.24143      0.00000     0.75777    0.00080     0.75857
      H   29    0.23494      0.00000     0.76390    0.00116     0.76506
      H   30    0.23989      0.00000     0.75886    0.00124     0.76011
      H   31    0.23530      0.00000     0.76386    0.00083     0.76470
      H   32    0.23589      0.00000     0.76329    0.00082     0.76411
      H   33    0.23067      0.00000     0.76815    0.00118     0.76933
 =======================================================================
   * Total *   -0.00000     33.98612    87.70990    0.30397   122.00000

 Normal termination of Gaussian 09 at Wed Sep 29 13:37:24 2021.
