 Gaussian 09, Revision A.02,

 -----------------------------------
 #p opt b3lyp/6-31G* scf=(xqc,tight)
 -----------------------------------

 ----------------------------------
 CCN(C(=O)Oc1cccc2c1cccc2)CC_conf_0
 ----------------------------------
 Symbolic Z-matrix:
 Charge =  0 Multiplicity = 1

 SCF Done:  E(RB3LYP) =  -787.060049168     A.U. after   15 cycles
 SCF Done:  E(RB3LYP) =  -787.067090894     A.U. after   13 cycles
 SCF Done:  E(RB3LYP) =  -787.066845273     A.U. after   16 cycles
 SCF Done:  E(RB3LYP) =  -787.068339779     A.U. after   13 cycles
 SCF Done:  E(RB3LYP) =  -787.068969898     A.U. after   13 cycles
 SCF Done:  E(RB3LYP) =  -787.069096822     A.U. after   13 cycles
 SCF Done:  E(RB3LYP) =  -787.069162699     A.U. after   13 cycles
 SCF Done:  E(RB3LYP) =  -787.069343981     A.U. after   12 cycles
 SCF Done:  E(RB3LYP) =  -787.069392960     A.U. after   11 cycles
 SCF Done:  E(RB3LYP) =  -787.069404876     A.U. after   12 cycles
 SCF Done:  E(RB3LYP) =  -787.069421780     A.U. after   11 cycles
 SCF Done:  E(RB3LYP) =  -787.069426854     A.U. after   10 cycles
 SCF Done:  E(RB3LYP) =  -787.069426835     A.U. after    8 cycles
 SCF Done:  E(RB3LYP) =  -787.069426877     A.U. after    7 cycles
 Optimization completed.
    -- Stationary point found.
 Normal termination of Gaussian 09 at Wed Sep 29 18:30:53 2021.

 ----------------------------------------------------------------------
 #p freq b3lyp/6-31G* volume NMR pop=NPA density=current Geom=AllCheck
 Guess=Read
 ----------------------------------------------------------------------

 CCN(C(=O)Oc1cccc2c1cccc2)CC_conf_0
 ----------------------------------
 Redundant internal coordinates taken from checkpoint file:
 C15H17NO2_0d82_conf_0.chk
 Charge =  0 Multiplicity = 1

 SCF Done:  E(RB3LYP) =  -787.069426877     A.U. after    1 cycles

  1  C    Isotropic =   174.6586   Anisotropy =    22.2015

  2  C    Isotropic =   147.0220   Anisotropy =    40.5100

  3  N    Isotropic =   157.9203   Anisotropy =    68.2635

  4  C    Isotropic =    46.5449   Anisotropy =    79.4152

  5  O    Isotropic =    64.0712   Anisotropy =   381.8784

  6  O    Isotropic =   148.9030   Anisotropy =   145.1872

  7  C    Isotropic =    48.2364   Anisotropy =    99.7421

  8  C    Isotropic =    75.5238   Anisotropy =   147.7222

  9  C    Isotropic =    70.3302   Anisotropy =   158.8607

 10  C    Isotropic =    71.4991   Anisotropy =   140.7671

 11  C    Isotropic =    62.4341   Anisotropy =   195.1356

 12  C    Isotropic =    69.4167   Anisotropy =   179.9607

 13  C    Isotropic =    73.1542   Anisotropy =   160.9807

 14  C    Isotropic =    70.8335   Anisotropy =   161.0356

 15  C    Isotropic =    70.6057   Anisotropy =   161.9020

 16  C    Isotropic =    67.8308   Anisotropy =   145.2615

 17  C    Isotropic =   146.1836   Anisotropy =    43.7209

 18  C    Isotropic =   175.5934   Anisotropy =    21.3992

 19  H    Isotropic =    31.3205   Anisotropy =    10.3877

 20  H    Isotropic =    30.9278   Anisotropy =     7.5527

 21  H    Isotropic =    30.6870   Anisotropy =     5.7255

 22  H    Isotropic =    29.2181   Anisotropy =     6.4780

 23  H    Isotropic =    28.1317   Anisotropy =     6.4693

 24  H    Isotropic =    24.8536   Anisotropy =     9.5210

 25  H    Isotropic =    24.7967   Anisotropy =     5.1174

 26  H    Isotropic =    24.7516   Anisotropy =     6.1135

 27  H    Isotropic =    24.1752   Anisotropy =    10.5719

 28  H    Isotropic =    24.7783   Anisotropy =     6.2415

 29  H    Isotropic =    24.7937   Anisotropy =     4.8898

 30  H    Isotropic =    24.5716   Anisotropy =     6.6319

 31  H    Isotropic =    28.2451   Anisotropy =     6.3606

 32  H    Isotropic =    29.4487   Anisotropy =     6.6454

 33  H    Isotropic =    30.7148   Anisotropy =     6.1561

 34  H    Isotropic =    31.3885   Anisotropy =    10.8599

 35  H    Isotropic =    31.0495   Anisotropy =     7.0664

  Exact polarizability: 220.368  -5.116 192.032  -7.159   8.583  98.025
 Approx polarizability: 311.316 -10.234 338.112 -18.134  15.238 141.735

                     1                      2                      3
                     A                      A                      A
 Frequencies --    20.7084                31.0938                47.5250
 Red. masses --     3.9127                 3.8442                 3.5554
 Frc consts  --     0.0010                 0.0022                 0.0047
 IR Inten    --     0.3473                 0.5659                 0.8672

                     4                      5                      6
                     A                      A                      A
 Frequencies --    66.1204                78.2487               103.4474
 Red. masses --     2.7808                 3.4643                 6.5353
 Frc consts  --     0.0072                 0.0125                 0.0412
 IR Inten    --     0.1672                 0.8725                 1.7404

                     7                      8                      9
                     A                      A                      A
 Frequencies --   113.8154               159.8053               179.9372
 Red. masses --     3.5274                 3.7333                 4.1071
 Frc consts  --     0.0269                 0.0562                 0.0783
 IR Inten    --     0.3807                 1.3819                 1.7341

                    10                     11                     12
                     A                      A                      A
 Frequencies --   220.5214               233.8517               241.5924
 Red. masses --     1.8484                 1.3768                 2.2299
 Frc consts  --     0.0530                 0.0444                 0.0767
 IR Inten    --     0.9083                 0.3129                 2.4947

                    13                     14                     15
                     A                      A                      A
 Frequencies --   276.6814               294.0639               328.2656
 Red. masses --     1.8037                 4.5795                 2.7257
 Frc consts  --     0.0814                 0.2333                 0.1731
 IR Inten    --     1.3583                 0.4760                 2.0654

                    16                     17                     18
                     A                      A                      A
 Frequencies --   372.4530               427.7905               436.2090
 Red. masses --     3.0822                 3.3409                 3.0655
 Frc consts  --     0.2519                 0.3602                 0.3437
 IR Inten    --    20.0064                 4.0120                 0.6003

                    19                     20                     21
                     A                      A                      A
 Frequencies --   458.2631               479.3618               495.9721
 Red. masses --     4.1243                 3.4416                 3.9294
 Frc consts  --     0.5103                 0.4659                 0.5695
 IR Inten    --     1.6274                 0.3710                 4.7839

                    22                     23                     24
                     A                      A                      A
 Frequencies --   528.9785               542.0800               574.5498
 Red. masses --     6.0482                 5.2377                 3.7101
 Frc consts  --     0.9971                 0.9068                 0.7216
 IR Inten    --     0.3988                 1.3983                 3.1071

                    25                     26                     27
                     A                      A                      A
 Frequencies --   613.8802               629.4958               658.9834
 Red. masses --     4.5455                 4.4582                 3.9536
 Frc consts  --     1.0093                 1.0409                 1.0116
 IR Inten    --     6.0221                 1.4999                 1.6384

                    28                     29                     30
                     A                      A                      A
 Frequencies --   742.2898               745.7621               748.0201
 Red. masses --     9.2262                 3.3101                 1.5729
 Frc consts  --     2.9952                 1.0846                 0.5185
 IR Inten    --    21.3840                 4.1093                 0.9269

                    31                     32                     33
                     A                      A                      A
 Frequencies --   782.0344               793.2817               794.6135
 Red. masses --     2.3805                 1.3924                 1.2153
 Frc consts  --     0.8578                 0.5163                 0.4521
 IR Inten    --    16.6454                24.0634                 9.5850

                    34                     35                     36
                     A                      A                      A
 Frequencies --   802.9024               806.8223               838.2592
 Red. masses --     3.0987                 1.7296                 2.5189
 Frc consts  --     1.1769                 0.6634                 1.0429
 IR Inten    --     7.4110                35.0329                 5.1701

                    37                     38                     39
                     A                      A                      A
 Frequencies --   881.0248               882.8841               904.7503
 Red. masses --     2.2934                 2.7486                 1.4806
 Frc consts  --     1.0488                 1.2623                 0.7141
 IR Inten    --     0.9994                 1.5094                 0.5143

                    40                     41                     42
                     A                      A                      A
 Frequencies --   950.5256               955.6052               967.2072
 Red. masses --     2.4098                 1.3316                 2.6518
 Frc consts  --     1.2828                 0.7164                 1.4616
 IR Inten    --    13.9412                 0.5932                30.1841

                    43                     44                     45
                     A                      A                      A
 Frequencies --   969.1682               990.0682              1040.2541
 Red. masses --     1.2888                 1.2707                 3.5950
 Frc consts  --     0.7132                 0.7339                 2.2921
 IR Inten    --     1.0518                 0.1811                 9.3951

                    46                     47                     48
                     A                      A                      A
 Frequencies --  1052.1724              1083.9649              1103.3284
 Red. masses --     2.4453                 2.4748                 1.9340
 Frc consts  --     1.5950                 1.7133                 1.3872
 IR Inten    --    10.0780                59.5993                21.5377

                    49                     50                     51
                     A                      A                      A
 Frequencies --  1111.8961              1121.8734              1127.3601
 Red. masses --     2.0318                 1.9952                 1.7198
 Frc consts  --     1.4800                 1.4795                 1.2879
 IR Inten    --    37.9757                16.6016                23.7723

                    52                     53                     54
                     A                      A                      A
 Frequencies --  1179.1766              1185.3357              1190.9363
 Red. masses --     1.3707                 1.8888                 1.3445
 Frc consts  --     1.1230                 1.5635                 1.1235
 IR Inten    --    14.0278               324.9332                42.9734

                    55                     56                     57
                     A                      A                      A
 Frequencies --  1204.3172              1250.1926              1256.8161
 Red. masses --     1.3640                 2.1671                 2.5695
 Frc consts  --     1.1656                 1.9957                 2.3913
 IR Inten    --    90.8893                 4.4110               190.9790

                    58                     59                     60
                     A                      A                      A
 Frequencies --  1268.4482              1289.6693              1311.3910
 Red. masses --     2.1421                 1.8918                 1.5965
 Frc consts  --     2.0306                 1.8539                 1.6176
 IR Inten    --    88.2099               141.2156               166.1105

                    61                     62                     63
                     A                      A                      A
 Frequencies --  1357.4986              1393.9676              1400.2251
 Red. masses --     1.2974                 3.5379                 1.2860
 Frc consts  --     1.4087                 4.0504                 1.4856
 IR Inten    --    17.2722                 0.7644                20.9818

                    64                     65                     66
                     A                      A                      A
 Frequencies --  1415.6327              1420.3371              1433.4560
 Red. masses --     7.1930                 1.3022                 1.8900
 Frc consts  --     8.4930                 1.5478                 2.2881
 IR Inten    --     0.7675                19.8542               140.1857

                    67                     68                     69
                     A                      A                      A
 Frequencies --  1438.4778              1440.0958              1462.8780
 Red. masses --     1.3344                 1.2595                 2.0606
 Frc consts  --     1.6269                 1.5390                 2.5981
 IR Inten    --     2.7888                23.1700               176.0491

                    70                     71                     72
                     A                      A                      A
 Frequencies --  1491.2681              1505.8085              1510.7585
 Red. masses --     2.1102                 1.0736                 2.3874
 Frc consts  --     2.7649                 1.4343                 3.2105
 IR Inten    --     1.2572                 6.3051                 9.1834

                    73                     74                     75
                     A                      A                      A
 Frequencies --  1521.5118              1523.7825              1527.8676
 Red. masses --     1.0451                 1.0651                 1.0950
 Frc consts  --     1.4255                 1.4571                 1.5061
 IR Inten    --     2.8593                 0.6432                30.2992

                    76                     77                     78
                     A                      A                      A
 Frequencies --  1534.4822              1538.3384              1564.6470
 Red. masses --     1.0582                 1.1210                 3.5230
 Frc consts  --     1.4681                 1.5631                 5.0816
 IR Inten    --     7.2661                25.3786                 6.8818

                    79                     80                     81
                     A                      A                      A
 Frequencies --  1630.6353              1658.1045              1686.5811
 Red. masses --     7.0261                 5.0973                 6.3473
 Frc consts  --    11.0072                 8.2568                10.6378
 IR Inten    --    11.3830                17.3365                 1.8912

                    82                     83                     84
                     A                      A                      A
 Frequencies --  1815.2144              3052.3224              3053.7082
 Red. masses --    11.3603                 1.0362                 1.0361
 Frc consts  --    22.0545                 5.6881                 5.6924
 IR Inten    --   356.3079                19.1434                18.6616

                    85                     86                     87
                     A                      A                      A
 Frequencies --  3063.7105              3073.9004              3113.2590
 Red. masses --     1.0675                 1.0683                 1.1019
 Frc consts  --     5.9037                 5.9472                 6.2925
 IR Inten    --    29.8462                34.3935                18.4725

                    88                     89                     90
                     A                      A                      A
 Frequencies --  3115.6357              3133.2589              3133.9501
 Red. masses --     1.1021                 1.0977                 1.0979
 Frc consts  --     6.3031                 6.3494                 6.3530
 IR Inten    --    18.4452                19.5132                21.3812

                    91                     92                     93
                     A                      A                      A
 Frequencies --  3145.8652              3147.3324              3179.9349
 Red. masses --     1.1022                 1.1028                 1.0859
 Frc consts  --     6.4267                 6.4364                 6.4696
 IR Inten    --    17.4754                43.7032                 0.6914

                    94                     95                     96
                     A                      A                      A
 Frequencies --  3185.7497              3190.9088              3204.7536
 Red. masses --     1.0869                 1.0895                 1.0946
 Frc consts  --     6.4990                 6.5360                 6.6238
 IR Inten    --     1.9454                16.1427                32.0935

                    97                     98                     99
                     A                      A                      A
 Frequencies --  3205.9725              3225.5941              3244.1471
 Red. masses --     1.0949                 1.0930                 1.0929
 Frc consts  --     6.6304                 6.7004                 6.7769
 IR Inten    --    33.9394                12.9099                 4.3521

 - Thermochemistry -
 -------------------
 Temperature   298.150 Kelvin.  Pressure   1.00000 Atm.
 Atom     1 has atomic number  6 and mass  12.00000

 Molecular mass:   243.12593 amu.
 Principal axes and moments of inertia in atomic units:
                           1         2         3
     Eigenvalues --  2348.236817559.175678407.82030
           X            0.99996   0.00892  -0.00147
           Y           -0.00891   0.99995   0.00433
           Z            0.00151  -0.00432   0.99999
 This molecule is an asymmetric top.
 Rotational symmetry number  1.
 Warning -- assumption of classical behavior for rotation
           may cause significant error
 Rotational temperatures (Kelvin)      0.03688     0.01146     0.01030
 Rotational constants (GHZ):           0.76855     0.23875     0.21465
 Zero-point vibrational energy     769722.9 (Joules/Mol)
                                  183.96818 (Kcal/Mol)
 Warning -- explicit consideration of  25 degrees of freedom as
           vibrations may cause significant error
 Vibrational temperatures:     29.79    44.74    68.38    95.13   112.58
          (Kelvin)            148.84   163.75   229.92   258.89   317.28
                              336.46   347.60   398.08   423.09   472.30
                              535.88   615.49   627.61   659.34   689.69
                              713.59   761.08   779.93   826.65   883.24
                              905.70   948.13  1067.99  1072.98  1076.23
                             1125.17  1141.35  1143.27  1155.20  1160.84
                             1206.07  1267.60  1270.27  1301.73  1367.59
                             1374.90  1391.59  1394.42  1424.49  1496.69
                             1513.84  1559.58  1587.44  1599.77  1614.12
                             1622.02  1696.57  1705.43  1713.49  1732.74
                             1798.75  1808.28  1825.01  1855.54  1886.80
                             1953.14  2005.61  2014.61  2036.78  2043.55
                             2062.42  2069.65  2071.97  2104.75  2145.60
                             2166.52  2173.64  2189.11  2192.38  2198.26
                             2207.77  2213.32  2251.18  2346.12  2385.64
                             2426.61  2611.69  4391.61  4393.60  4407.99
                             4422.65  4479.28  4482.70  4508.06  4509.05
                             4526.19  4528.30  4575.21  4583.58  4591.00
                             4610.92  4612.67  4640.90  4667.60

 Zero-point correction=                           0.293172 (Hartree/Particle)
 Thermal correction to Energy=                    0.309830
 Thermal correction to Enthalpy=                  0.310774
 Thermal correction to Gibbs Free Energy=         0.246966
 Sum of electronic and zero-point Energies=           -786.776255
 Sum of electronic and thermal Energies=              -786.759597
 Sum of electronic and thermal Enthalpies=            -786.758653
 Sum of electronic and thermal Free Energies=         -786.822461

                     E (Thermal)             CV                S
                      KCal/Mol        Cal/Mol-Kelvin    Cal/Mol-Kelvin
 Total                  194.421             63.500            134.296
 Electronic               0.000              0.000              0.000
 Translational            0.889              2.981             42.366
 Rotational               0.889              2.981             33.367
 Vibrational            192.644             57.538             58.563
 Vibration     1          0.593              1.986              6.565
 Vibration     2          0.594              1.983              5.758
 Vibration     3          0.595              1.979              4.918
 Vibration     4          0.598              1.970              4.266
 Vibration     5          0.600              1.964              3.934
 Vibration     6          0.605              1.946              3.388
 Vibration     7          0.607              1.938              3.203
 Vibration     8          0.622              1.892              2.552
 Vibration     9          0.629              1.867              2.329
 Vibration    10          0.647              1.810              1.955
 Vibration    11          0.654              1.789              1.849
 Vibration    12          0.658              1.777              1.791
 Vibration    13          0.678              1.717              1.554
 Vibration    14          0.689              1.685              1.450
 Vibration    15          0.711              1.619              1.269
 Vibration    16          0.744              1.529              1.070
 Vibration    17          0.789              1.410              0.866
 Vibration    18          0.797              1.391              0.839
 Vibration    19          0.816              1.343              0.771
 Vibration    20          0.836              1.296              0.712
 Vibration    21          0.852              1.259              0.668
 Vibration    22          0.884              1.186              0.589
 Vibration    23          0.897              1.157              0.561
 Vibration    24          0.931              1.086              0.496
 Vibration    25          0.973              1.002              0.426

 Normal termination of Gaussian 09 at Wed Sep 29 20:14:37 2021.
 Gaussian 09:  AM64L-G09RevA.02 11-Jun-2009

 ----------------------------------------------------------------------
 #p TD(NStates=10, Root=1) b3lyp/6-31G* volume pop=NPA density=current
 Geom=AllCheck Guess=Read
 ----------------------------------------------------------------------

 CCN(C(=O)Oc1cccc2c1cccc2)CC_conf_0
 ----------------------------------
 Redundant internal coordinates taken from checkpoint file:
 C15H17NO2_0d82_conf_0.chk
 Charge =  0 Multiplicity = 1

                         Standard orientation:
 ---------------------------------------------------------------------
 Center     Atomic      Atomic             Coordinates (Angstroms)
 Number     Number       Type             X           Y           Z
 ---------------------------------------------------------------------
      1          6           0       -3.027934   -0.764399    2.435539
      2          6           0       -2.808342   -1.226530    0.992291
      3          7           0       -2.762954   -0.120613    0.030006
      4          6           0       -1.629346    0.564166   -0.287953
      5          8           0       -1.559839    1.484610   -1.079310
      6          8           0       -0.548651    0.066012    0.420975
      7          6           0        0.702392    0.658601    0.276408
      8          6           0        0.891095    2.010155    0.448619
      9          6           0        2.196566    2.548178    0.373759
     10          6           0        3.281481    1.734686    0.141331
     11          6           0        3.109492    0.336365   -0.035761
     12          6           0        1.790986   -0.224615    0.025652
     13          6           0        1.624896   -1.622638   -0.162911
     14          6           0        2.712919   -2.432375   -0.399574
     15          6           0        4.017374   -1.884228   -0.455513
     16          6           0        4.207329   -0.532979   -0.278154
     17          6           0       -4.008283    0.296504   -0.623510
     18          6           0       -4.262096   -0.430522   -1.946121
     19          1           0       -3.094156   -1.628457    3.106956
     20          1           0       -3.955126   -0.188113    2.531969
     21          1           0       -2.195560   -0.135772    2.766176
     22          1           0       -3.621798   -1.889994    0.677608
     23          1           0       -1.882267   -1.799424    0.918102
     24          1           0        0.039992    2.655705    0.626461
     25          1           0        2.332772    3.617835    0.505813
     26          1           0        4.284266    2.150895    0.088317
     27          1           0        0.625433   -2.041328   -0.121662
     28          1           0        2.572001   -3.500004   -0.545542
     29          1           0        4.867576   -2.535116   -0.640937
     30          1           0        5.206651   -0.106406   -0.323074
     31          1           0       -3.952505    1.373743   -0.793817
     32          1           0       -4.826700    0.112315    0.081810
     33          1           0       -3.461707   -0.207188   -2.657907
     34          1           0       -5.213036   -0.104956   -2.383570
     35          1           0       -4.308424   -1.516637   -1.804675
 ---------------------------------------------------------------------

 SCF Done:  E(RB3LYP) =  -787.069426877     A.U. after    1 cycles

 Excitation energies and oscillator strengths:

 Excited State   1:      Singlet-A      4.3070 eV  287.87 nm  f=0.1162  <S**2>=0.000
      64 -> 67         0.12466
      65 -> 66         0.68862
 This state for optimization and/or second-order correction.
 Total Energy, E(TD-HF/TD-KS) =  -786.911147087
 Copying the excited state density for this state as the 1-particle RhoCI density.

 Excited State   2:      Singlet-A      4.4708 eV  277.32 nm  f=0.0009  <S**2>=0.000
      63 -> 66         0.19644
      64 -> 66        -0.43785
      65 -> 67         0.51689

 Excited State   3:      Singlet-A      5.0706 eV  244.52 nm  f=0.0121  <S**2>=0.000
      63 -> 66         0.62053
      64 -> 66         0.33069

 Excited State   4:      Singlet-A      5.5996 eV  221.42 nm  f=0.0426  <S**2>=0.000
      62 -> 66         0.61033
      64 -> 66        -0.11314
      65 -> 67        -0.11750
      65 -> 68        -0.27972

 Excited State   5:      Singlet-A      5.6757 eV  218.45 nm  f=0.0713  <S**2>=0.000
      61 -> 66         0.57375
      64 -> 66        -0.15340
      65 -> 67        -0.14275
      65 -> 68         0.31983

 Excited State   6:      Singlet-A      5.8417 eV  212.24 nm  f=0.0877  <S**2>=0.000
      61 -> 66         0.13888
      63 -> 67         0.55168
      64 -> 66         0.14378
      64 -> 67         0.30548
      65 -> 67         0.18300

 Excited State   7:      Singlet-A      5.9961 eV  206.77 nm  f=0.6866  <S**2>=0.000
      61 -> 66         0.23928
      61 -> 67         0.12334
      62 -> 67        -0.10688
      63 -> 66        -0.19354
      63 -> 67        -0.21747
      64 -> 66         0.31587
      64 -> 67        -0.23396
      65 -> 67         0.34554
      65 -> 68        -0.15091

 Excited State   8:      Singlet-A      6.1372 eV  202.02 nm  f=0.1683  <S**2>=0.000
      60 -> 66         0.14272
      61 -> 66        -0.17721
      62 -> 66         0.25206
      63 -> 67        -0.15491
      64 -> 66         0.12591
      64 -> 67         0.14249
      65 -> 67         0.13591
      65 -> 68         0.47333
      65 -> 69        -0.21306

 Excited State   9:      Singlet-A      6.2342 eV  198.88 nm  f=0.1414  <S**2>=0.000
      61 -> 66         0.12706
      61 -> 68        -0.10002
      62 -> 66        -0.12178
      62 -> 67        -0.15651
      62 -> 68         0.11308
      63 -> 67        -0.32628
      64 -> 67         0.51539
      65 -> 66        -0.10955
      65 -> 68        -0.13489

 Excited State  10:      Singlet-A      6.2884 eV  197.16 nm  f=0.1546  <S**2>=0.000
      60 -> 66         0.11041
      61 -> 67        -0.28083
      62 -> 67         0.43946
      63 -> 68         0.12637
      64 -> 66         0.13797
      64 -> 68        -0.33950
      65 -> 67         0.14061

 The electronic state is 1-A.
 Alpha  occ. eigenvalues --  -19.19364 -19.11525 -14.36453 -10.33015 -10.24764
 Alpha  occ. eigenvalues --  -10.22847 -10.22270 -10.19742 -10.19674 -10.18968
 Alpha  occ. eigenvalues --  -10.18932 -10.18891 -10.18846 -10.18809 -10.18650
 Alpha  occ. eigenvalues --  -10.18589 -10.18408 -10.17966  -1.10316  -1.01324
 Alpha  occ. eigenvalues --   -0.94055  -0.86851  -0.81735  -0.77674  -0.77018
 Alpha  occ. eigenvalues --   -0.74559  -0.73933  -0.71532  -0.66181  -0.64536
 Alpha  occ. eigenvalues --   -0.62274  -0.61509  -0.59955  -0.55232  -0.52870
 Alpha  occ. eigenvalues --   -0.51469  -0.49957  -0.49318  -0.48532  -0.46590
 Alpha  occ. eigenvalues --   -0.45031  -0.44511  -0.44058  -0.43196  -0.42565
 Alpha  occ. eigenvalues --   -0.41873  -0.40985  -0.40190  -0.39822  -0.39210
 Alpha  occ. eigenvalues --   -0.38174  -0.37778  -0.37250  -0.36919  -0.35810
 Alpha  occ. eigenvalues --   -0.34952  -0.34405  -0.33477  -0.32342  -0.30840
 Alpha  occ. eigenvalues --   -0.27319  -0.26854  -0.24217  -0.23961  -0.20711
 Alpha virt. eigenvalues --   -0.03461  -0.00552   0.03561   0.05683   0.07787
 Alpha virt. eigenvalues --    0.09575   0.10271   0.10396   0.11712   0.12166
 Alpha virt. eigenvalues --    0.13162   0.14063   0.14997   0.15265   0.15718

 Mulliken atomic charges:
              1
     1  C   -0.442992
     2  C   -0.149168
     3  N   -0.436746
     4  C    0.788277
     5  O   -0.510832
     6  O   -0.545429
     7  C    0.281011
     8  C   -0.129850
     9  C   -0.150152
    10  C   -0.180142
    11  C    0.133045
    12  C    0.104709
    13  C   -0.209144
    14  C   -0.137145
    15  C   -0.126836
    16  C   -0.225254
    17  C   -0.146690
    18  C   -0.443950
    19  H    0.150695
    20  H    0.150754
    21  H    0.166545
    22  H    0.151770
    23  H    0.182735
    24  H    0.154265
    25  H    0.137926
    26  H    0.137635
    27  H    0.128194
    28  H    0.121999
    29  H    0.123264
    30  H    0.120333
    31  H    0.183512
    32  H    0.145834
    33  H    0.176649
    34  H    0.149224
    35  H    0.145951
 Sum of Mulliken atomic charges =  -0.00000

 Dipole moment (field-independent basis, Debye):
    X=             -2.4216    Y=             -0.9229    Z=              1.6488  Tot=              3.0716
 Quadrupole moment (field-independent basis, Debye-Ang):
   XX=            -89.4923   YY=           -100.6915   ZZ=           -109.7189
   XY=              6.9783   XZ=             -2.7042   YZ=              3.4323

 Summary of Natural Population Analysis:

                                       Natural Population
                Natural  -----------------------------------------------
    Atom  No    Charge         Core      Valence    Rydberg      Total
 -----------------------------------------------------------------------
      C    1   -0.68781      1.99945     4.68086    0.00750     6.68781
      C    2   -0.25926      1.99934     4.24479    0.01512     6.25926
      N    3   -0.49310      1.99930     5.48020    0.01360     7.49310
      C    4    0.93590      1.99936     3.01904    0.04571     5.06410
      O    5   -0.63989      1.99978     6.62090    0.01921     8.63989
      O    6   -0.53895      1.99969     6.52893    0.01033     8.53895
      C    7    0.34901      1.99866     3.62942    0.02292     5.65099
      C    8   -0.24586      1.99901     4.23185    0.01500     6.24586
      C    9   -0.23371      1.99912     4.21902    0.01557     6.23371
      C   10   -0.17825      1.99905     4.16395    0.01526     6.17825
      C   11   -0.05734      1.99904     4.04310    0.01521     6.05734
      C   12   -0.08304      1.99896     4.06895    0.01513     6.08304
      C   13   -0.24940      1.99907     4.23326    0.01707     6.24940
      C   14   -0.23054      1.99911     4.21569    0.01573     6.23054
      C   15   -0.23158      1.99911     4.21696    0.01551     6.23158
      C   16   -0.24606      1.99906     4.23063    0.01637     6.24606
      C   17   -0.25536      1.99935     4.24062    0.01539     6.25536
      C   18   -0.68853      1.99945     4.68159    0.00749     6.68853
      H   19    0.23681      0.00000     0.76229    0.00090     0.76319
      H   20    0.22809      0.00000     0.77098    0.00093     0.77191
      H   21    0.23886      0.00000     0.75985    0.00129     0.76114
      H   22    0.23257      0.00000     0.76599    0.00144     0.76743
      H   23    0.25236      0.00000     0.74614    0.00150     0.74764
      H   24    0.25511      0.00000     0.74376    0.00113     0.74489
      H   25    0.23994      0.00000     0.75926    0.00080     0.76006
      H   26    0.23420      0.00000     0.76464    0.00116     0.76580
      H   27    0.23250      0.00000     0.76626    0.00124     0.76750
      H   28    0.23149      0.00000     0.76766    0.00085     0.76851
      H   29    0.23259      0.00000     0.76658    0.00084     0.76741
      H   30    0.22724      0.00000     0.77159    0.00117     0.77276
      H   31    0.25842      0.00000     0.73963    0.00194     0.74158
      H   32    0.22794      0.00000     0.77070    0.00136     0.77206
      H   33    0.24461      0.00000     0.75417    0.00122     0.75539
      H   34    0.23606      0.00000     0.76307    0.00086     0.76394
      H   35    0.22499      0.00000     0.77407    0.00093     0.77501
 =======================================================================
   * Total *   -0.00000     35.98589    93.69643    0.31768   130.00000

 Normal termination of Gaussian 09 at Thu Sep 30 02:45:56 2021.
