 Gaussian 09, Revision A.02,

 -----------------------------------
 #p opt b3lyp/6-31G* scf=(xqc,tight)
 -----------------------------------

 -------------------------------------------
 COC(=O)c1ccc2c(c1)ccc(c2)OC(=O)N(C)C_conf_0
 -------------------------------------------
 Symbolic Z-matrix:
 Charge =  0 Multiplicity = 1

 SCF Done:  E(RB3LYP) =  -936.309699577     A.U. after   15 cycles
 SCF Done:  E(RB3LYP) =  -936.317152323     A.U. after   13 cycles
 SCF Done:  E(RB3LYP) =  -936.317809980     A.U. after   16 cycles
 SCF Done:  E(RB3LYP) =  -936.317799935     A.U. after   13 cycles
 SCF Done:  E(RB3LYP) =  -936.318199958     A.U. after   12 cycles
 SCF Done:  E(RB3LYP) =  -936.318311493     A.U. after   11 cycles
 SCF Done:  E(RB3LYP) =  -936.318314006     A.U. after   11 cycles
 SCF Done:  E(RB3LYP) =  -936.318399436     A.U. after   10 cycles
 SCF Done:  E(RB3LYP) =  -936.318433061     A.U. after   10 cycles
 SCF Done:  E(RB3LYP) =  -936.318459008     A.U. after   11 cycles
 SCF Done:  E(RB3LYP) =  -936.318527839     A.U. after   10 cycles
 SCF Done:  E(RB3LYP) =  -936.318538976     A.U. after   11 cycles
 SCF Done:  E(RB3LYP) =  -936.318541200     A.U. after   10 cycles
 SCF Done:  E(RB3LYP) =  -936.318541806     A.U. after    9 cycles
 SCF Done:  E(RB3LYP) =  -936.318542134     A.U. after    7 cycles
 SCF Done:  E(RB3LYP) =  -936.318542324     A.U. after    7 cycles
 SCF Done:  E(RB3LYP) =  -936.318542485     A.U. after    7 cycles
 SCF Done:  E(RB3LYP) =  -936.318542528     A.U. after    6 cycles
 Optimization completed.
    -- Stationary point found.
 Normal termination of Gaussian 09 at Thu Sep 30 07:57:38 2021.

 ----------------------------------------------------------------------
 #p freq b3lyp/6-31G* volume NMR pop=NPA density=current Geom=AllCheck
 Guess=Read
 ----------------------------------------------------------------------

 COC(=O)c1ccc2c(c1)ccc(c2)OC(=O)N(C)C_conf_0
 -------------------------------------------
 Redundant internal coordinates taken from checkpoint file:
 C15H15NO4_89d5_conf_0.chk
 Charge =  0 Multiplicity = 1

 SCF Done:  E(RB3LYP) =  -936.318542528     A.U. after    1 cycles

  1  C    Isotropic =   139.0346   Anisotropy =    62.4786

  2  O    Isotropic =   165.4141   Anisotropy =   130.6537

  3  C    Isotropic =    32.1951   Anisotropy =    73.7036

  4  O    Isotropic =   -41.4210   Anisotropy =   568.3957

  5  C    Isotropic =    68.9166   Anisotropy =   142.6608

  6  C    Isotropic =    69.7723   Anisotropy =   164.7749

  7  C    Isotropic =    68.5830   Anisotropy =   141.7222

  8  C    Isotropic =    60.8184   Anisotropy =   196.4351

  9  C    Isotropic =    66.5501   Anisotropy =   192.4070

 10  C    Isotropic =    62.1237   Anisotropy =   159.7977

 11  C    Isotropic =    64.9767   Anisotropy =   146.1127

 12  C    Isotropic =    72.4654   Anisotropy =   151.1900

 13  C    Isotropic =    43.9486   Anisotropy =   110.3706

 14  C    Isotropic =    78.5591   Anisotropy =   118.0601

 15  O    Isotropic =   143.3938   Anisotropy =   130.5834

 16  C    Isotropic =    46.9842   Anisotropy =    78.4147

 17  O    Isotropic =    66.8104   Anisotropy =   384.3195

 18  N    Isotropic =   179.9737   Anisotropy =    82.0656

 19  C    Isotropic =   155.3194   Anisotropy =    51.3180

 20  C    Isotropic =   155.5708   Anisotropy =    49.6309

 21  H    Isotropic =    28.6719   Anisotropy =     7.3994

 22  H    Isotropic =    28.2548   Anisotropy =     8.4563

 23  H    Isotropic =    28.2544   Anisotropy =     8.4722

 24  H    Isotropic =    24.2324   Anisotropy =     8.8869

 25  H    Isotropic =    24.6853   Anisotropy =     7.8442

 26  H    Isotropic =    23.5631   Anisotropy =     9.6174

 27  H    Isotropic =    24.4067   Anisotropy =     7.4523

 28  H    Isotropic =    24.5622   Anisotropy =     9.3916

 29  H    Isotropic =    25.0979   Anisotropy =     9.0296

 30  H    Isotropic =    28.1349   Anisotropy =     6.9511

 31  H    Isotropic =    29.8653   Anisotropy =     9.2883

 32  H    Isotropic =    29.8791   Anisotropy =     9.3591

 33  H    Isotropic =    28.2119   Anisotropy =     5.2995

 34  H    Isotropic =    29.6361   Anisotropy =     9.1921

 35  H    Isotropic =    29.6821   Anisotropy =     8.8708

  Exact polarizability: 324.197   4.587 165.189   8.041   8.445  86.432
 Approx polarizability: 420.963   6.214 300.808  16.818  18.576 134.409

                     1                      2                      3
                     A                      A                      A
 Frequencies --    24.5421                30.8752                45.7379
 Red. masses --     4.7059                 4.0141                 1.9477
 Frc consts  --     0.0017                 0.0023                 0.0024
 IR Inten    --     0.3551                 2.0111                 0.3245

                     4                      5                      6
                     A                      A                      A
 Frequencies --    51.0670                55.5830                91.4718
 Red. masses --     3.3385                 2.9044                 4.1602
 Frc consts  --     0.0051                 0.0053                 0.0205
 IR Inten    --     1.0181                 0.3719                 0.7317

                     7                      8                      9
                     A                      A                      A
 Frequencies --   109.8835               126.6016               134.7212
 Red. masses --     3.3577                 1.9048                 1.7401
 Frc consts  --     0.0239                 0.0180                 0.0186
 IR Inten    --     0.4201                 1.2513                 2.0120

                    10                     11                     12
                     A                      A                      A
 Frequencies --   147.3176               150.0048               190.3222
 Red. masses --     1.8137                 1.9403                 4.0879
 Frc consts  --     0.0232                 0.0257                 0.0872
 IR Inten    --     1.7215                 1.0951                 1.7256

                    13                     14                     15
                     A                      A                      A
 Frequencies --   199.7835               219.9145               227.6346
 Red. masses --     5.2131                 3.9093                 2.4439
 Frc consts  --     0.1226                 0.1114                 0.0746
 IR Inten    --     1.2782                 0.9671                 4.7675

                    16                     17                     18
                     A                      A                      A
 Frequencies --   261.6758               307.0763               347.6984
 Red. masses --     5.3334                 5.5934                 4.7175
 Frc consts  --     0.2152                 0.3108                 0.3360
 IR Inten    --     5.1098                14.1608                 6.3384

                    19                     20                     21
                     A                      A                      A
 Frequencies --   354.5292               380.4508               414.4976
 Red. masses --     5.3790                 3.5132                 3.5200
 Frc consts  --     0.3983                 0.2996                 0.3563
 IR Inten    --     0.6237                12.5360                 3.9418

                    22                     23                     24
                     A                      A                      A
 Frequencies --   424.8011               454.8989               493.3361
 Red. masses --     5.0151                 3.9047                 2.7380
 Frc consts  --     0.5332                 0.4761                 0.3926
 IR Inten    --     5.0332                 8.2465                 8.2478

                    25                     26                     27
                     A                      A                      A
 Frequencies --   515.9856               532.0581               549.1959
 Red. masses --     5.4523                 6.3214                 4.0318
 Frc consts  --     0.8553                 1.0544                 0.7165
 IR Inten    --     5.9555                 2.9303                 2.1335

                    28                     29                     30
                     A                      A                      A
 Frequencies --   601.7319               626.5318               660.3659
 Red. masses --     7.1118                 5.4566                 5.6723
 Frc consts  --     1.5172                 1.2620                 1.4574
 IR Inten    --     4.0471                 6.4498                 1.1517

                    31                     32                     33
                     A                      A                      A
 Frequencies --   665.9060               736.8346               751.5922
 Red. masses --     4.5600                11.5909                 3.7350
 Frc consts  --     1.1914                 3.7077                 1.2431
 IR Inten    --     5.8405                22.6649                12.1850

                    34                     35                     36
                     A                      A                      A
 Frequencies --   768.9246               775.1573               794.7109
 Red. masses --     6.4847                 3.5008                 5.1350
 Frc consts  --     2.2589                 1.2394                 1.9108
 IR Inten    --     4.6291                11.5243                10.8733

                    37                     38                     39
                     A                      A                      A
 Frequencies --   815.7048               832.2798               845.2317
 Red. masses --     2.0635                 1.6580                 3.0012
 Frc consts  --     0.8090                 0.6767                 1.2633
 IR Inten    --    21.3647                 5.6499                 1.8931

                    40                     41                     42
                     A                      A                      A
 Frequencies --   863.1442               901.9371               935.6889
 Red. masses --     3.8848                 1.6908                 5.1240
 Frc consts  --     1.7052                 0.8104                 2.6432
 IR Inten    --    10.4580                26.8996                28.0968

                    43                     44                     45
                     A                      A                      A
 Frequencies --   945.8231               967.9592               978.5613
 Red. masses --     1.3833                 1.3809                 1.3034
 Frc consts  --     0.7291                 0.7623                 0.7353
 IR Inten    --     7.5657                 5.4706                 0.1217

                    46                     47                     48
                     A                      A                      A
 Frequencies --   983.0430              1030.0025              1044.6801
 Red. masses --     3.8067                 4.8271                 2.6142
 Frc consts  --     2.1674                 3.0172                 1.6809
 IR Inten    --    15.8354                28.4770                16.8460

                    49                     50                     51
                     A                      A                      A
 Frequencies --  1094.3386              1132.7206              1144.2660
 Red. masses --     1.3651                 2.4087                 1.2155
 Frc consts  --     0.9632                 1.8209                 0.9377
 IR Inten    --     9.0521                46.4816                 0.2390

                    52                     53                     54
                     A                      A                      A
 Frequencies --  1164.8516              1185.2506              1185.4322
 Red. masses --     1.7401                 1.2960                 1.4607
 Frc consts  --     1.3911                 1.0727                 1.2094
 IR Inten    --    99.0478                17.9828               130.3777

                    55                     56                     57
                     A                      A                      A
 Frequencies --  1189.2847              1191.0174              1197.2122
 Red. masses --     1.3566                 1.3487                 2.4326
 Frc consts  --     1.1305                 1.1272                 2.0543
 IR Inten    --    61.5501                 1.9098               846.4018

                    58                     59                     60
                     A                      A                      A
 Frequencies --  1221.3500              1238.6189              1276.2853
 Red. masses --     1.5113                 3.0136                 2.8258
 Frc consts  --     1.3283                 2.7241                 2.7120
 IR Inten    --    29.2514               743.3660               145.6603

                    61                     62                     63
                     A                      A                      A
 Frequencies --  1294.4301              1300.6450              1312.1200
 Red. masses --     1.8145                 5.6897                 3.3141
 Frc consts  --     1.7913                 5.6709                 3.3617
 IR Inten    --    16.0919                18.2516               405.4770

                    64                     65                     66
                     A                      A                      A
 Frequencies --  1380.2269              1420.1691              1425.1536
 Red. masses --     1.9379                 4.8364                 5.2776
 Frc consts  --     2.1752                 5.7472                 6.3156
 IR Inten    --     5.4694                78.6997                 0.8844

                    67                     68                     69
                     A                      A                      A
 Frequencies --  1442.3131              1455.0374              1460.9046
 Red. masses --     2.6534                 4.0938                 1.1928
 Frc consts  --     3.2521                 5.1065                 1.4999
 IR Inten    --   293.0831                 9.7546                31.8550

                    70                     71                     72
                     A                      A                      A
 Frequencies --  1489.7572              1492.6209              1512.0483
 Red. masses --     1.2202                 1.2176                 1.0483
 Frc consts  --     1.5956                 1.5983                 1.4121
 IR Inten    --    78.4426                18.9592                 5.6824

                    73                     74                     75
                     A                      A                      A
 Frequencies --  1519.2021              1524.5937              1526.8436
 Red. masses --     1.0416                 1.1862                 1.8920
 Frc consts  --     1.4164                 1.6245                 2.5987
 IR Inten    --     0.4939                39.3005                45.1495

                    76                     77                     78
                     A                      A                      A
 Frequencies --  1530.4867              1531.5952              1554.4561
 Red. masses --     1.0577                 1.0458                 3.5731
 Frc consts  --     1.4597                 1.4454                 5.0869
 IR Inten    --    15.9951                17.3086                40.2048

                    79                     80                     81
                     A                      A                      A
 Frequencies --  1566.0413              1623.2085              1663.3560
 Red. masses --     1.2568                 7.3467                 5.8863
 Frc consts  --     1.8161                11.4050                 9.5953
 IR Inten    --    39.9415                 1.4418                 0.7782

                    82                     83                     84
                     A                      A                      A
 Frequencies --  1685.7964              1798.5946              1818.5940
 Red. masses --     6.4758                11.6093                10.8619
 Frc consts  --    10.8431                22.1271                21.1655
 IR Inten    --   105.1471               222.0386               408.8679

                    85                     86                     87
                     A                      A                      A
 Frequencies --  3030.5171              3038.0407              3074.2101
 Red. masses --     1.0401                 1.0405                 1.0294
 Frc consts  --     5.6278                 5.6583                 5.7321
 IR Inten    --    27.0159               129.8383                47.5802

                    88                     89                     90
                     A                      A                      A
 Frequencies --  3076.0755              3082.1900              3148.3226
 Red. masses --     1.1044                 1.1052                 1.1074
 Frc consts  --     6.1572                 6.1858                 6.4673
 IR Inten    --    51.6751                19.4049                21.7700

                    91                     92                     93
                     A                      A                      A
 Frequencies --  3179.2962              3187.7538              3194.8487
 Red. masses --     1.1071                 1.0895                 1.0901
 Frc consts  --     6.5934                 6.5232                 6.5557
 IR Inten    --    19.2428                10.7614                 8.6452

                    94                     95                     96
                     A                      A                      A
 Frequencies --  3195.6299              3208.2554              3212.2817
 Red. masses --     1.0964                 1.0912                 1.0944
 Frc consts  --     6.5965                 6.6172                 6.6535
 IR Inten    --     0.7843                 8.1503                 3.6246

                    97                     98                     99
                     A                      A                      A
 Frequencies --  3213.7847              3235.5146              3254.3955
 Red. masses --     1.0904                 1.0924                 1.0932
 Frc consts  --     6.6353                 6.7378                 6.8216
 IR Inten    --     0.7600                 4.8541                 2.1333

 - Thermochemistry -
 -------------------
 Temperature   298.150 Kelvin.  Pressure   1.00000 Atm.
 Atom     1 has atomic number  6 and mass  12.00000

 Molecular mass:   273.10011 amu.
 Principal axes and moments of inertia in atomic units:
                           1         2         3
     Eigenvalues --  1228.59712********************
           X            1.00000  -0.00089   0.00189
           Y            0.00089   0.99999   0.00402
           Z           -0.00189  -0.00402   0.99999
 This molecule is an asymmetric top.
 Rotational symmetry number  1.
 Warning -- assumption of classical behavior for rotation
           may cause significant error
 Rotational temperatures (Kelvin)      0.07050     0.00539     0.00512
 Rotational constants (GHZ):           1.46894     0.11229     0.10664
 Zero-point vibrational energy     731201.9 (Joules/Mol)
                                  174.76145 (Kcal/Mol)
 Warning -- explicit consideration of  28 degrees of freedom as
           vibrations may cause significant error
 Vibrational temperatures:     35.31    44.42    65.81    73.47    79.97
          (Kelvin)            131.61   158.10   182.15   193.83   211.96
                              215.82   273.83   287.44   316.41   327.52
                              376.49   441.81   500.26   510.09   547.38
                              596.37   611.19   654.50   709.80   742.39
                              765.51   790.17   865.76   901.44   950.12
                              958.09  1060.14  1081.37  1106.31  1115.28
                             1143.41  1173.62  1197.46  1216.10  1241.87
                             1297.68  1346.25  1360.83  1392.68  1407.93
                             1414.38  1481.94  1503.06  1574.51  1629.73
                             1646.34  1675.96  1705.31  1705.57  1711.11
                             1713.61  1722.52  1757.25  1782.09  1836.29
                             1862.39  1871.34  1887.85  1985.84  2043.30
                             2050.48  2075.16  2093.47  2101.91  2143.43
                             2147.55  2175.50  2185.79  2193.55  2196.78
                             2202.03  2203.62  2236.51  2253.18  2335.43
                             2393.20  2425.48  2587.77  2616.55  4360.23
                             4371.06  4423.10  4425.78  4434.58  4529.73
                             4574.29  4586.46  4596.67  4597.79  4615.96
                             4621.75  4623.91  4655.18  4682.34

 Zero-point correction=                           0.278500 (Hartree/Particle)
 Thermal correction to Energy=                    0.297457
 Thermal correction to Enthalpy=                  0.298401
 Thermal correction to Gibbs Free Energy=         0.228956
 Sum of electronic and zero-point Energies=           -936.040042
 Sum of electronic and thermal Energies=              -936.021085
 Sum of electronic and thermal Enthalpies=            -936.020141
 Sum of electronic and thermal Free Energies=         -936.089586

                     E (Thermal)             CV                S
                      KCal/Mol        Cal/Mol-Kelvin    Cal/Mol-Kelvin
 Total                  186.657             69.257            146.159
 Electronic               0.000              0.000              0.000
 Translational            0.889              2.981             42.713
 Rotational               0.889              2.981             34.168
 Vibrational            184.880             63.295             69.278
 Vibration     1          0.593              1.985              6.228
 Vibration     2          0.594              1.984              5.772
 Vibration     3          0.595              1.979              4.994
 Vibration     4          0.595              1.977              4.776
 Vibration     5          0.596              1.975              4.608
 Vibration     6          0.602              1.955              3.628
 Vibration     7          0.606              1.941              3.271
 Vibration     8          0.611              1.927              2.997
 Vibration     9          0.613              1.919              2.878
 Vibration    10          0.617              1.906              2.707
 Vibration    11          0.618              1.903              2.672
 Vibration    12          0.634              1.853              2.225
 Vibration    13          0.638              1.840              2.135
 Vibration    14          0.647              1.811              1.960
 Vibration    15          0.651              1.799              1.898
 Vibration    16          0.669              1.743              1.651
 Vibration    17          0.697              1.660              1.378
 Vibration    18          0.725              1.580              1.177
 Vibration    19          0.730              1.566              1.146
 Vibration    20          0.750              1.512              1.037
 Vibration    21          0.778              1.439              0.911
 Vibration    22          0.787              1.416              0.876
 Vibration    23          0.813              1.350              0.781
 Vibration    24          0.849              1.265              0.675
 Vibration    25          0.871              1.215              0.619
 Vibration    26          0.887              1.179              0.583
 Vibration    27          0.904              1.141              0.546
 Vibration    28          0.960              1.028              0.447

 Normal termination of Gaussian 09 at Thu Sep 30 10:14:39 2021.
 Gaussian 09:  AM64L-G09RevA.02 11-Jun-2009

 ----------------------------------------------------------------------
 #p TD(NStates=10, Root=1) b3lyp/6-31G* volume pop=NPA density=current
 Geom=AllCheck Guess=Read
 ----------------------------------------------------------------------

 COC(=O)c1ccc2c(c1)ccc(c2)OC(=O)N(C)C_conf_0
 -------------------------------------------
 Redundant internal coordinates taken from checkpoint file:
 C15H15NO4_89d5_conf_0.chk
 Charge =  0 Multiplicity = 1

                         Standard orientation:
 ---------------------------------------------------------------------
 Center     Atomic      Atomic             Coordinates (Angstroms)
 Number     Number       Type             X           Y           Z
 ---------------------------------------------------------------------
      1          6           0        6.945096    0.371153    0.241962
      2          8           0        5.546368    0.691082    0.234763
      3          6           0        4.717423   -0.354176   -0.002339
      4          8           0        5.120334   -1.485097   -0.196401
      5          6           0        3.284102    0.047423    0.003514
      6          6           0        2.870367    1.388684    0.233409
      7          6           0        1.534946    1.712117    0.226562
      8          6           0        0.541180    0.722002   -0.007440
      9          6           0        0.956946   -0.630178   -0.238588
     10          6           0        2.338385   -0.934843   -0.226364
     11          6           0       -0.035446   -1.620154   -0.477350
     12          6           0       -1.373061   -1.305291   -0.490263
     13          6           0       -1.768336    0.034411   -0.251123
     14          6           0       -0.843447    1.025264   -0.017340
     15          8           0       -3.095512    0.434450   -0.344706
     16          6           0       -4.077900   -0.297453    0.294556
     17          8           0       -3.850683   -1.267131    0.992363
     18          7           0       -5.311585    0.222143    0.034538
     19          6           0       -6.472668   -0.406912    0.645137
     20          6           0       -5.568542    1.395026   -0.787602
     21          1           0        7.459314    1.311996    0.441271
     22          1           0        7.251236   -0.037694   -0.724768
     23          1           0        7.168076   -0.361980    1.021862
     24          1           0        3.620846    2.149797    0.413169
     25          1           0        1.220427    2.737808    0.402828
     26          1           0        2.672311   -1.953568   -0.399719
     27          1           0        0.280630   -2.644633   -0.655733
     28          1           0       -2.124985   -2.063673   -0.664648
     29          1           0       -1.182147    2.042464    0.155180
     30          1           0       -6.144077   -1.270285    1.221356
     31          1           0       -7.180425   -0.730916   -0.128927
     32          1           0       -6.987388    0.300018    1.309274
     33          1           0       -4.638293    1.781425   -1.196024
     34          1           0       -6.051308    2.180047   -0.189908
     35          1           0       -6.241448    1.135334   -1.615530
 ---------------------------------------------------------------------

 SCF Done:  E(RB3LYP) =  -936.318542528     A.U. after    1 cycles

 Excitation energies and oscillator strengths:

 Excited State   1:      Singlet-A      4.0554 eV  305.73 nm  f=0.0817  <S**2>=0.000
      71 -> 73        -0.23538
      71 -> 74         0.14403
      72 -> 73         0.61307
      72 -> 74         0.19371
 This state for optimization and/or second-order correction.
 Total Energy, E(TD-HF/TD-KS) =  -936.169509064
 Copying the excited state density for this state as the 1-particle RhoCI density.

 Excited State   2:      Singlet-A      4.2684 eV  290.47 nm  f=0.0632  <S**2>=0.000
      71 -> 73         0.44517
      72 -> 73         0.30736
      72 -> 74        -0.43841

 Excited State   3:      Singlet-A      4.7358 eV  261.80 nm  f=0.0002  <S**2>=0.000
      69 -> 73         0.66294
      69 -> 74         0.18775
      69 -> 75        -0.10894

 Excited State   4:      Singlet-A      4.8704 eV  254.57 nm  f=0.0430  <S**2>=0.000
      70 -> 73         0.65480
      71 -> 73         0.23034
      72 -> 74         0.11377

 Excited State   5:      Singlet-A      5.2227 eV  237.39 nm  f=0.9853  <S**2>=0.000
      70 -> 73        -0.21437
      71 -> 73         0.40373
      71 -> 74         0.21742
      72 -> 74         0.45829

 Excited State   6:      Singlet-A      5.4240 eV  228.58 nm  f=0.0014  <S**2>=0.000
      68 -> 73         0.67840
      72 -> 75        -0.12468

 Excited State   7:      Singlet-A      5.5124 eV  224.92 nm  f=0.1714  <S**2>=0.000
      67 -> 73        -0.18098
      68 -> 73         0.11702
      70 -> 74         0.24359
      71 -> 74         0.51328
      72 -> 74        -0.12042
      72 -> 75         0.26939

 Excited State   8:      Singlet-A      5.6012 eV  221.35 nm  f=0.0137  <S**2>=0.000
      67 -> 73         0.15776
      70 -> 74         0.63436
      71 -> 74        -0.10878
      72 -> 75        -0.19758

 Excited State   9:      Singlet-A      5.7081 eV  217.21 nm  f=0.3199  <S**2>=0.000
      65 -> 73         0.12474
      67 -> 73         0.51110
      70 -> 74        -0.14261
      71 -> 74         0.24879
      71 -> 75        -0.10057
      72 -> 74        -0.12198
      72 -> 75        -0.22458
      72 -> 76         0.15943

 Excited State  10:      Singlet-A      5.7686 eV  214.93 nm  f=0.0002  <S**2>=0.000
      69 -> 73        -0.20684
      69 -> 74         0.66521

 The electronic state is 1-A.
 Alpha  occ. eigenvalues --  -19.20126 -19.18923 -19.12863 -19.12157 -14.37594
 Alpha  occ. eigenvalues --  -10.33903 -10.31038 -10.25909 -10.23795 -10.22730
 Alpha  occ. eigenvalues --  -10.22164 -10.20723 -10.20224 -10.20209 -10.19846
 Alpha  occ. eigenvalues --  -10.19807 -10.19608 -10.19600 -10.19499 -10.19470
 Alpha  occ. eigenvalues --   -1.11197  -1.09676  -1.02013  -1.00676  -0.94750
 Alpha  occ. eigenvalues --   -0.87901  -0.83021  -0.78075  -0.76563  -0.73448
 Alpha  occ. eigenvalues --   -0.73043  -0.72536  -0.70302  -0.64205  -0.63187
 Alpha  occ. eigenvalues --   -0.60312  -0.59278  -0.55779  -0.54036  -0.53243
 Alpha  occ. eigenvalues --   -0.51150  -0.49234  -0.48912  -0.47980  -0.47725
 Alpha  occ. eigenvalues --   -0.46901  -0.46214  -0.45185  -0.44060  -0.43570
 Alpha  occ. eigenvalues --   -0.42534  -0.42276  -0.41663  -0.41149  -0.41032
 Alpha  occ. eigenvalues --   -0.40438  -0.40276  -0.38947  -0.38706  -0.37585
 Alpha  occ. eigenvalues --   -0.36103  -0.35534  -0.34079  -0.33047  -0.30841
 Alpha  occ. eigenvalues --   -0.29846  -0.28788  -0.27592  -0.26956  -0.25060
 Alpha  occ. eigenvalues --   -0.24127  -0.21816
 Alpha virt. eigenvalues --   -0.05318  -0.02717   0.02152   0.04162   0.05464
 Alpha virt. eigenvalues --    0.08689   0.09604   0.11305   0.11875   0.12176
 Alpha virt. eigenvalues --    0.12583   0.12786   0.13859   0.14200   0.14791

 Mulliken atomic charges:
              1
     1  C   -0.205184
     2  O   -0.488638
     3  C    0.551116
     4  O   -0.530577
     5  C    0.044092
     6  C   -0.141220
     7  C   -0.196066
     8  C    0.135599
     9  C    0.150900
    10  C   -0.259676
    11  C   -0.192113
    12  C   -0.122878
    13  C    0.357493
    14  C   -0.229419
    15  O   -0.556055
    16  C    0.784445
    17  O   -0.505971
    18  N   -0.434898
    19  C   -0.320110
    20  C   -0.318310
    21  H    0.149021
    22  H    0.161604
    23  H    0.161894
    24  H    0.169684
    25  H    0.142327
    26  H    0.160848
    27  H    0.161327
    28  H    0.172837
    29  H    0.154608
    30  H    0.207680
    31  H    0.157778
    32  H    0.158746
    33  H    0.198447
    34  H    0.159849
    35  H    0.160823
 Sum of Mulliken atomic charges =  -0.00000

 Dipole moment (field-independent basis, Debye):
    X=             -6.1765    Y=              3.8300    Z=             -1.0534  Tot=              7.3435
 Quadrupole moment (field-independent basis, Debye-Ang):
   XX=            -98.5833   YY=           -110.4461   ZZ=           -117.1060
   XY=              4.8527   XZ=              7.2065   YZ=              3.3368

 Summary of Natural Population Analysis:

                                       Natural Population
                Natural  -----------------------------------------------
    Atom  No    Charge         Core      Valence    Rydberg      Total
 -----------------------------------------------------------------------
      C    1   -0.31672      1.99943     4.30307    0.01423     6.31672
      O    2   -0.56859      1.99975     6.55837    0.01047     8.56859
      C    3    0.73866      1.99936     3.21686    0.04511     5.26134
      O    4   -0.64443      1.99979     6.62551    0.01913     8.64443
      C    5   -0.18917      1.99892     4.17242    0.01782     6.18917
      C    6   -0.12595      1.99908     4.11281    0.01406     6.12595
      C    7   -0.18274      1.99908     4.16901    0.01465     6.18274
      C    8   -0.08397      1.99903     4.06999    0.01495     6.08397
      C    9   -0.07159      1.99904     4.05767    0.01488     6.07159
      C   10   -0.18024      1.99903     4.16476    0.01645     6.18024
      C   11   -0.14723      1.99907     4.13371    0.01444     6.14723
      C   12   -0.20997      1.99903     4.19689    0.01405     6.20997
      C   13    0.26714      1.99875     3.71167    0.02243     5.73286
      C   14   -0.16346      1.99897     4.15034    0.01414     6.16346
      O   15   -0.55522      1.99969     6.54524    0.01029     8.55522
      C   16    0.94026      1.99937     3.01554    0.04483     5.05974
      O   17   -0.64057      1.99978     6.62165    0.01914     8.64057
      N   18   -0.48317      1.99932     5.47289    0.01096     7.48317
      C   19   -0.46973      1.99947     4.45839    0.01187     6.46973
      C   20   -0.47122      1.99946     4.46025    0.01151     6.47122
      H   21    0.21323      0.00000     0.78609    0.00069     0.78677
      H   22    0.21426      0.00000     0.78399    0.00174     0.78574
      H   23    0.21440      0.00000     0.78387    0.00174     0.78560
      H   24    0.25724      0.00000     0.74168    0.00108     0.74276
      H   25    0.23559      0.00000     0.76329    0.00111     0.76441
      H   26    0.25532      0.00000     0.74256    0.00213     0.74468
      H   27    0.24648      0.00000     0.75247    0.00105     0.75352
      H   28    0.26298      0.00000     0.73591    0.00112     0.73702
      H   29    0.24659      0.00000     0.75198    0.00143     0.75341
      H   30    0.26397      0.00000     0.73458    0.00145     0.73603
      H   31    0.22199      0.00000     0.77670    0.00131     0.77801
      H   32    0.22193      0.00000     0.77673    0.00134     0.77807
      H   33    0.25666      0.00000     0.74248    0.00087     0.74334
      H   34    0.22291      0.00000     0.77556    0.00152     0.77709
      H   35    0.22436      0.00000     0.77416    0.00148     0.77564
 =======================================================================
   * Total *    0.00000     39.98542   103.63910    0.37549   144.00000

 Normal termination of Gaussian 09 at Thu Sep 30 16:25:37 2021.
