 Gaussian 09, Revision A.02,

 -----------------------------------
 #p opt b3lyp/6-31G* scf=(xqc,tight)
 -----------------------------------

 ----------------------------------
 O=C(N(C)C)Oc1ccccc1c1ccccc1_conf_0
 ----------------------------------
 Symbolic Z-matrix:
 Charge =  0 Multiplicity = 1

 SCF Done:  E(RB3LYP) =  -785.843109686     A.U. after   15 cycles
 SCF Done:  E(RB3LYP) =  -785.847687279     A.U. after   13 cycles
 SCF Done:  E(RB3LYP) =  -785.848255542     A.U. after   14 cycles
 SCF Done:  E(RB3LYP) =  -785.848449937     A.U. after   12 cycles
 SCF Done:  E(RB3LYP) =  -785.848490237     A.U. after   12 cycles
 SCF Done:  E(RB3LYP) =  -785.848530152     A.U. after   11 cycles
 SCF Done:  E(RB3LYP) =  -785.848577705     A.U. after   11 cycles
 SCF Done:  E(RB3LYP) =  -785.847368696     A.U. after   15 cycles
 SCF Done:  E(RB3LYP) =  -785.848812371     A.U. after   16 cycles
 SCF Done:  E(RB3LYP) =  -785.848797886     A.U. after   12 cycles
 SCF Done:  E(RB3LYP) =  -785.849050931     A.U. after    7 cycles
 SCF Done:  E(RB3LYP) =  -785.849050944     A.U. after    7 cycles
 SCF Done:  E(RB3LYP) =  -785.849051164     A.U. after    7 cycles
 SCF Done:  E(RB3LYP) =  -785.849051312     A.U. after    7 cycles
 SCF Done:  E(RB3LYP) =  -785.849051407     A.U. after    7 cycles
 SCF Done:  E(RB3LYP) =  -785.849051440     A.U. after    6 cycles
 SCF Done:  E(RB3LYP) =  -785.849051420     A.U. after    6 cycles
 SCF Done:  E(RB3LYP) =  -785.849051366     A.U. after    7 cycles
 Optimization completed.
    -- Stationary point found.
 Normal termination of Gaussian 09 at Thu Sep 30 23:51:48 2021.

 ----------------------------------------------------------------------
 #p freq b3lyp/6-31G* volume NMR pop=NPA density=current Geom=AllCheck
 Guess=Read
 ----------------------------------------------------------------------

 O=C(N(C)C)Oc1ccccc1c1ccccc1_conf_0
 ----------------------------------
 Redundant internal coordinates taken from checkpoint file:
 C15H15NO2_d42f_conf_0.chk
 Charge =  0 Multiplicity = 1

 SCF Done:  E(RB3LYP) =  -785.849051366     A.U. after    1 cycles

  1  O    Isotropic =    61.3537   Anisotropy =   376.2937

  2  C    Isotropic =    44.5411   Anisotropy =    65.7197

  3  N    Isotropic =   179.8344   Anisotropy =    86.6944

  4  C    Isotropic =   155.0433   Anisotropy =    51.3707

  5  C    Isotropic =   155.2570   Anisotropy =    48.6554

  6  O    Isotropic =   141.7211   Anisotropy =   119.8168

  7  C    Isotropic =    46.2862   Anisotropy =   104.0488

  8  C    Isotropic =    71.0689   Anisotropy =   144.9419

  9  C    Isotropic =    68.5651   Anisotropy =   161.4424

 10  C    Isotropic =    70.9775   Anisotropy =   162.3231

 11  C    Isotropic =    64.9458   Anisotropy =   149.4926

 12  C    Isotropic =    57.9257   Anisotropy =   157.1379

 13  C    Isotropic =    56.0656   Anisotropy =   171.7570

 14  C    Isotropic =    67.4306   Anisotropy =   152.5276

 15  C    Isotropic =    68.2303   Anisotropy =   164.9365

 16  C    Isotropic =    69.5531   Anisotropy =   166.1424

 17  C    Isotropic =    68.8878   Anisotropy =   164.8573

 18  C    Isotropic =    66.3261   Anisotropy =   164.0609

 19  H    Isotropic =    28.1517   Anisotropy =     6.7990

 20  H    Isotropic =    29.9930   Anisotropy =     9.6943

 21  H    Isotropic =    29.8317   Anisotropy =     9.1783

 22  H    Isotropic =    28.6345   Anisotropy =     4.1610

 23  H    Isotropic =    29.8537   Anisotropy =     7.9476

 24  H    Isotropic =    29.9768   Anisotropy =     9.4573

 25  H    Isotropic =    25.2594   Anisotropy =     7.8677

 26  H    Isotropic =    24.9959   Anisotropy =     4.2973

 27  H    Isotropic =    25.0547   Anisotropy =     4.1524

 28  H    Isotropic =    25.0095   Anisotropy =     8.4769

 29  H    Isotropic =    25.0397   Anisotropy =     8.2437

 30  H    Isotropic =    24.9062   Anisotropy =     4.5161

 31  H    Isotropic =    24.9882   Anisotropy =     4.0422

 32  H    Isotropic =    24.9819   Anisotropy =     5.4968

 33  H    Isotropic =    24.6977   Anisotropy =     7.9700

  Exact polarizability: 177.859   1.218 213.287  10.036   1.140 102.579
 Approx polarizability: 263.752  -1.751 316.896  21.965   0.657 172.079

                     1                      2                      3
                     A                      A                      A
 Frequencies --    24.5666                34.5910                53.7135
 Red. masses --     3.1503                 4.0332                 2.9349
 Frc consts  --     0.0011                 0.0028                 0.0050
 IR Inten    --     2.9604                 0.3624                 0.0543

                     4                      5                      6
                     A                      A                      A
 Frequencies --    60.2229                81.1134                92.6637
 Red. masses --     1.6204                 4.0809                 4.6835
 Frc consts  --     0.0035                 0.0158                 0.0237
 IR Inten    --     0.0904                 0.5179                 1.7707

                     7                      8                      9
                     A                      A                      A
 Frequencies --   110.2745               118.6245               144.9367
 Red. masses --     4.2875                 2.7514                 1.3523
 Frc consts  --     0.0307                 0.0228                 0.0167
 IR Inten    --     2.8210                 0.7622                 0.1797

                    10                     11                     12
                     A                      A                      A
 Frequencies --   212.4094               222.6783               232.3482
 Red. masses --     4.0171                 2.1692                 4.6663
 Frc consts  --     0.1068                 0.0634                 0.1484
 IR Inten    --     0.4623                 4.2979                 0.3913

                    13                     14                     15
                     A                      A                      A
 Frequencies --   269.1330               305.8269               359.9619
 Red. masses --     6.0881                 4.7619                 4.5391
 Frc consts  --     0.2598                 0.2624                 0.3465
 IR Inten    --     0.2290                 1.5666                 2.2476

                    16                     17                     18
                     A                      A                      A
 Frequencies --   378.5476               421.2027               442.4021
 Red. masses --     3.0956                 3.0796                 4.0608
 Frc consts  --     0.2614                 0.3219                 0.4683
 IR Inten    --    11.1700                 0.1163                 0.6582

                    19                     20                     21
                     A                      A                      A
 Frequencies --   462.3366               498.7928               546.1099
 Red. masses --     4.1933                 4.0464                 4.1578
 Frc consts  --     0.5281                 0.5931                 0.7306
 IR Inten    --     8.3729                 2.8619                 3.3735

                    22                     23                     24
                     A                      A                      A
 Frequencies --   567.3298               615.0183               628.3367
 Red. masses --     3.6425                 6.2412                 6.9065
 Frc consts  --     0.6908                 1.3909                 1.6066
 IR Inten    --     5.0478                 3.3638                 5.5569

                    25                     26                     27
                     A                      A                      A
 Frequencies --   632.8208               648.1344               718.9891
 Red. masses --     6.1918                 5.5051                 2.1069
 Frc consts  --     1.4609                 1.3625                 0.6417
 IR Inten    --     0.4616                 1.2265                25.4600

                    28                     29                     30
                     A                      A                      A
 Frequencies --   734.4746               744.9337               752.7769
 Red. masses --     3.9304                 9.8155                 4.1552
 Frc consts  --     1.2492                 3.2092                 1.3873
 IR Inten    --     8.1809                19.5338                 7.4376

                    31                     32                     33
                     A                      A                      A
 Frequencies --   766.7001               787.1586               850.5511
 Red. masses --     1.4644                 1.8215                 2.8234
 Frc consts  --     0.5072                 0.6650                 1.2034
 IR Inten    --    47.9775                11.0839                 4.9364

                    34                     35                     36
                     A                      A                      A
 Frequencies --   862.9613               870.6852               891.3317
 Red. masses --     4.8567                 1.2512                 2.0419
 Frc consts  --     2.1309                 0.5588                 0.9558
 IR Inten    --    19.2549                 0.3043                 3.5913

                    37                     38                     39
                     A                      A                      A
 Frequencies --   939.6058               950.2838               980.5548
 Red. masses --     1.3903                 1.3794                 1.2570
 Frc consts  --     0.7232                 0.7339                 0.7121
 IR Inten    --     2.1564                 1.1835                 0.1189

                    40                     41                     42
                     A                      A                      A
 Frequencies --   981.0373              1007.2322              1017.6888
 Red. masses --     1.3092                 1.2550                 6.1085
 Frc consts  --     0.7424                 0.7502                 3.7275
 IR Inten    --     0.6924                 2.2202                 0.7929

                    43                     44                     45
                     A                      A                      A
 Frequencies --  1027.9135              1038.6956              1065.4695
 Red. masses --     7.2185                 2.8961                 2.1278
 Frc consts  --     4.4937                 1.8409                 1.4232
 IR Inten    --    10.4125                10.3113                 0.4964

                    46                     47                     48
                     A                      A                      A
 Frequencies --  1078.3522              1093.8700              1110.6902
 Red. masses --     1.9148                 1.3714                 1.6224
 Frc consts  --     1.3118                 0.9668                 1.1792
 IR Inten    --     5.7121                 6.6081                 2.8728

                    49                     50                     51
                     A                      A                      A
 Frequencies --  1140.9669              1142.3050              1186.2380
 Red. masses --     1.6949                 1.2223                 1.6284
 Frc consts  --     1.3000                 0.9397                 1.3501
 IR Inten    --     8.5851                 1.1301               204.8216

                    52                     53                     54
                     A                      A                      A
 Frequencies --  1192.3507              1192.9434              1197.4659
 Red. masses --     1.1011                 1.0981                 2.0574
 Frc consts  --     0.9223                 0.9207                 1.7381
 IR Inten    --     0.6657                 0.0697               302.0743

                    55                     56                     57
                     A                      A                      A
 Frequencies --  1217.7344              1235.4125              1285.2402
 Red. masses --     1.1491                 3.2955                 2.0465
 Frc consts  --     1.0040                 2.9634                 1.9917
 IR Inten    --     2.0178               262.9576                61.6657

                    58                     59                     60
                     A                      A                      A
 Frequencies --  1299.9296              1311.5712              1338.1784
 Red. masses --     4.8931                 2.9168                 2.6937
 Frc consts  --     4.8716                 2.9562                 2.8421
 IR Inten    --    16.4638                 1.3646                 0.2493

                    61                     62                     63
                     A                      A                      A
 Frequencies --  1345.6880              1370.0667              1438.0369
 Red. masses --     7.6874                 1.6111                 2.6905
 Frc consts  --     8.2020                 1.7818                 3.2781
 IR Inten    --     1.2429                 0.6611               254.8864

                    64                     65                     66
                     A                      A                      A
 Frequencies --  1459.4698              1480.7708              1490.6631
 Red. masses --     1.1766                 2.0489                 1.2716
 Frc consts  --     1.4766                 2.6470                 1.6647
 IR Inten    --    21.3156                19.9610                34.6765

                    67                     68                     69
                     A                      A                      A
 Frequencies --  1501.7443              1518.6508              1529.7660
 Red. masses --     2.2923                 1.0458                 1.0531
 Frc consts  --     3.0459                 1.4210                 1.4520
 IR Inten    --     2.3112                 4.2819                14.5645

                    70                     71                     72
                     A                      A                      A
 Frequencies --  1530.5291              1530.9605              1553.7345
 Red. masses --     2.2381                 1.0488                 2.4649
 Frc consts  --     3.0890                 1.4483                 3.5060
 IR Inten    --    37.4076                15.9022                12.1231

                    73                     74                     75
                     A                      A                      A
 Frequencies --  1564.4909              1627.7267              1640.5857
 Red. masses --     1.2596                 5.4069                 5.9827
 Frc consts  --     1.8165                 8.4404                 9.4874
 IR Inten    --    37.6924                 0.8330                 2.2340

                    76                     77                     78
                     A                      A                      A
 Frequencies --  1662.1690              1663.6087              1810.0996
 Red. masses --     5.9532                 5.7802                10.7957
 Frc consts  --     9.6906                 9.4253                20.8403
 IR Inten    --     1.0005                 3.5640               379.9510

                    79                     80                     81
                     A                      A                      A
 Frequencies --  3027.7918              3034.4663              3080.8740
 Red. masses --     1.0423                 1.0449                 1.0996
 Frc consts  --     5.6299                 5.6687                 6.1495
 IR Inten    --    26.0858                96.2167                75.6130

                    82                     83                     84
                     A                      A                      A
 Frequencies --  3083.0007              3178.9432              3186.5642
 Red. masses --     1.1019                 1.0847                 1.0877
 Frc consts  --     6.1706                 6.4584                 6.5075
 IR Inten    --     0.7484                 1.5201                 6.3745

                    85                     86                     87
                     A                      A                      A
 Frequencies --  3188.2559              3193.1860              3196.2983
 Red. masses --     1.0857                 1.0964                 1.0920
 Frc consts  --     6.5024                 6.5865                 6.5731
 IR Inten    --     1.6987                 0.9110                31.7612

                    88                     89                     90
                     A                      A                      A
 Frequencies --  3199.1988              3206.0182              3207.1499
 Red. masses --     1.0899                 1.0953                 1.0950
 Frc consts  --     6.5724                 6.6331                 6.6359
 IR Inten    --     5.0551                26.8668                 3.4161

                    91                     92                     93
                     A                      A                      A
 Frequencies --  3209.5981              3212.9331              3219.7458
 Red. masses --     1.0941                 1.0960                 1.0962
 Frc consts  --     6.6408                 6.6657                 6.6956
 IR Inten    --    27.9931                 9.6511                11.8054

 - Thermochemistry -
 -------------------
 Temperature   298.150 Kelvin.  Pressure   1.00000 Atm.
 Atom     1 has atomic number  8 and mass  15.99491

 Molecular mass:   241.11028 amu.
 Principal axes and moments of inertia in atomic units:
                           1         2         3
     Eigenvalues --  3804.203744536.431477377.61062
           X            0.99727   0.07381  -0.00343
           Y           -0.07381   0.99727  -0.00126
           Z            0.00333   0.00151   0.99999
 This molecule is an asymmetric top.
 Rotational symmetry number  1.
 Warning -- assumption of classical behavior for rotation
           may cause significant error
 Rotational temperatures (Kelvin)      0.02277     0.01909     0.01174
 Rotational constants (GHZ):           0.47441     0.39783     0.24462
 Zero-point vibrational energy     707705.8 (Joules/Mol)
                                  169.14575 (Kcal/Mol)
 Warning -- explicit consideration of  23 degrees of freedom as
           vibrations may cause significant error
 Vibrational temperatures:     35.35    49.77    77.28    86.65   116.70
          (Kelvin)            133.32   158.66   170.67   208.53   305.61
                              320.38   334.30   387.22   440.02   517.90
                              544.64   606.02   636.52   665.20   717.65
                              785.73   816.26   884.87   904.04   910.49
                              932.52  1034.46  1056.74  1071.79  1083.08
                             1103.11  1132.54  1223.75  1241.61  1252.72
                             1282.43  1351.88  1367.24  1410.80  1411.49
                             1449.18  1464.23  1478.94  1494.45  1532.97
                             1551.51  1573.83  1598.03  1641.59  1643.52
                             1706.73  1715.52  1716.38  1722.88  1752.05
                             1777.48  1849.17  1870.31  1887.06  1925.34
                             1936.14  1971.22  2069.01  2099.85  2130.50
                             2144.73  2160.67  2185.00  2200.99  2202.09
                             2202.71  2235.47  2250.95  2341.93  2360.43
                             2391.49  2393.56  2604.33  4356.31  4365.91
                             4432.69  4435.74  4573.78  4584.75  4587.18
                             4594.28  4598.75  4602.93  4612.74  4614.37
                             4617.89  4622.69  4632.49

 Zero-point correction=                           0.269551 (Hartree/Particle)
 Thermal correction to Energy=                    0.285972
 Thermal correction to Enthalpy=                  0.286916
 Thermal correction to Gibbs Free Energy=         0.223418
 Sum of electronic and zero-point Energies=           -785.579500
 Sum of electronic and thermal Energies=              -785.563080
 Sum of electronic and thermal Enthalpies=            -785.562136
 Sum of electronic and thermal Free Energies=         -785.625633

                     E (Thermal)             CV                S
                      KCal/Mol        Cal/Mol-Kelvin    Cal/Mol-Kelvin
 Total                  179.450             61.354            133.642
 Electronic               0.000              0.000              0.000
 Translational            0.889              2.981             42.341
 Rotational               0.889              2.981             33.209
 Vibrational            177.672             55.392             58.091
 Vibration     1          0.593              1.985              6.226
 Vibration     2          0.594              1.983              5.547
 Vibration     3          0.596              1.976              4.676
 Vibration     4          0.597              1.973              4.450
 Vibration     5          0.600              1.962              3.864
 Vibration     6          0.602              1.954              3.603
 Vibration     7          0.606              1.941              3.264
 Vibration     8          0.609              1.934              3.123
 Vibration     9          0.616              1.908              2.738
 Vibration    10          0.643              1.822              2.023
 Vibration    11          0.648              1.807              1.937
 Vibration    12          0.653              1.791              1.861
 Vibration    13          0.674              1.730              1.602
 Vibration    14          0.696              1.663              1.385
 Vibration    15          0.734              1.555              1.122
 Vibration    16          0.749              1.516              1.045
 Vibration    17          0.784              1.424              0.888
 Vibration    18          0.802              1.378              0.819
 Vibration    19          0.820              1.334              0.759
 Vibration    20          0.854              1.253              0.661
 Vibration    21          0.901              1.148              0.552
 Vibration    22          0.923              1.102              0.509
 Vibration    23          0.975              1.000              0.425

 Optimization completed.
    -- Stationary point found.
 Normal termination of Gaussian 09 at Fri Oct  1 01:19:54 2021.
 Gaussian 09:  AM64L-G09RevA.02 11-Jun-2009

 ----------------------------------------------------------------------
 #p TD(NStates=10, Root=1) b3lyp/6-31G* volume pop=NPA density=current
 Geom=AllCheck Guess=Read
 ----------------------------------------------------------------------

 O=C(N(C)C)Oc1ccccc1c1ccccc1_conf_0
 ----------------------------------
 Redundant internal coordinates taken from checkpoint file:
 C15H15NO2_d42f_conf_0.chk
 Charge =  0 Multiplicity = 1

                         Standard orientation:
 ---------------------------------------------------------------------
 Center     Atomic      Atomic             Coordinates (Angstroms)
 Number     Number       Type             X           Y           Z
 ---------------------------------------------------------------------
      1          8           0       -1.991005    0.636495   -1.418660
      2          6           0       -2.008420    0.227993   -0.271685
      3          7           0       -2.983275   -0.550217    0.280867
      4          6           0       -4.057988   -1.025475   -0.576178
      5          6           0       -2.928829   -1.104645    1.625598
      6          8           0       -1.016859    0.501775    0.643734
      7          6           0       -0.004921    1.386666    0.265640
      8          6           0       -0.270662    2.753376    0.285779
      9          6           0        0.756759    3.662775    0.044243
     10          6           0        2.048693    3.195977   -0.203646
     11          6           0        2.299773    1.825773   -0.221900
     12          6           0        1.278931    0.886014    0.000373
     13          6           0        1.580263   -0.570729   -0.045544
     14          6           0        2.635692   -1.097221    0.715020
     15          6           0        2.953278   -2.454272    0.652831
     16          6           0        2.221855   -3.307406   -0.174703
     17          6           0        1.173480   -2.793072   -0.940873
     18          6           0        0.853792   -1.437217   -0.878598
     19          1           0       -3.993699   -0.516546   -1.536742
     20          1           0       -5.029474   -0.813225   -0.112833
     21          1           0       -3.981230   -2.110271   -0.735130
     22          1           0       -2.164454   -0.598622    2.210409
     23          1           0       -2.702701   -2.179937    1.598591
     24          1           0       -3.901459   -0.971247    2.115062
     25          1           0       -1.279738    3.089775    0.501477
     26          1           0        0.548400    4.728866    0.055438
     27          1           0        2.857885    3.896491   -0.390106
     28          1           0        3.300535    1.460658   -0.435390
     29          1           0        3.199054   -0.437972    1.370289
     30          1           0        3.770240   -2.844738    1.254210
     31          1           0        2.469022   -4.364581   -0.225209
     32          1           0        0.607162   -3.448294   -1.597896
     33          1           0        0.056113   -1.036236   -1.496970
 ---------------------------------------------------------------------

 SCF Done:  E(RB3LYP) =  -785.849051366     A.U. after    1 cycles

 Excitation energies and oscillator strengths:

 Excited State   1:      Singlet-A      5.0766 eV  244.22 nm  f=0.0506  <S**2>=0.000
      62 -> 65         0.22437
      63 -> 65        -0.38067
      64 -> 65        -0.33240
      64 -> 66         0.40156
 This state for optimization and/or second-order correction.
 Total Energy, E(TD-HF/TD-KS) =  -785.662488178
 Copying the excited state density for this state as the 1-particle RhoCI density.

 Excited State   2:      Singlet-A      5.1606 eV  240.25 nm  f=0.1000  <S**2>=0.000
      61 -> 65         0.39595
      62 -> 65         0.11624
      64 -> 65         0.39665
      64 -> 66         0.23667
      64 -> 67         0.29603

 Excited State   3:      Singlet-A      5.2139 eV  237.80 nm  f=0.1562  <S**2>=0.000
      61 -> 65        -0.31258
      62 -> 65         0.10077
      63 -> 65        -0.19018
      64 -> 65         0.45409
      64 -> 66         0.10074
      64 -> 67        -0.33346

 Excited State   4:      Singlet-A      5.4898 eV  225.85 nm  f=0.0100  <S**2>=0.000
      62 -> 65         0.58736
      63 -> 65         0.38018

 Excited State   5:      Singlet-A      5.7611 eV  215.21 nm  f=0.0752  <S**2>=0.000
      60 -> 65         0.26956
      60 -> 66        -0.11988
      62 -> 65        -0.22987
      63 -> 65         0.32383
      63 -> 68        -0.10374
      64 -> 66         0.37095
      64 -> 67        -0.19960
      64 -> 68        -0.20383

 Excited State   6:      Singlet-A      5.8679 eV  211.29 nm  f=0.0320  <S**2>=0.000
      60 -> 67         0.14850
      61 -> 65        -0.38586
      61 -> 68        -0.16064
      63 -> 66         0.16277
      63 -> 67         0.17409
      64 -> 66         0.18129
      64 -> 67         0.42899

 Excited State   7:      Singlet-A      5.9465 eV  208.50 nm  f=0.0304  <S**2>=0.000
      60 -> 65         0.45916
      60 -> 66         0.12820
      62 -> 66        -0.26937
      63 -> 65        -0.11721
      64 -> 66        -0.19355
      64 -> 68        -0.32229

 Excited State   8:      Singlet-A      5.9672 eV  207.78 nm  f=0.0020  <S**2>=0.000
      60 -> 65         0.17611
      62 -> 66         0.54372
      63 -> 66         0.32791
      63 -> 67        -0.10923
      64 -> 68        -0.12421

 Excited State   9:      Singlet-A      6.0541 eV  204.79 nm  f=0.0146  <S**2>=0.000
      61 -> 66         0.53399
      61 -> 67        -0.27860
      62 -> 66         0.12753
      63 -> 66        -0.22942
      63 -> 67        -0.20881

 Excited State  10:      Singlet-A      6.0788 eV  203.96 nm  f=0.0137  <S**2>=0.000
      59 -> 65         0.44583
      60 -> 65        -0.14573
      61 -> 65        -0.11147
      61 -> 66        -0.22146
      62 -> 66         0.13059
      62 -> 67         0.15107
      63 -> 66        -0.24326
      63 -> 67        -0.19034
      64 -> 68        -0.22408

 The electronic state is 1-A.
 Alpha  occ. eigenvalues --  -19.19000 -19.11461 -14.36913 -10.33096 -10.24768
 Alpha  occ. eigenvalues --  -10.22064 -10.21698 -10.19937 -10.19631 -10.19161
 Alpha  occ. eigenvalues --  -10.19048 -10.19015 -10.18869 -10.18741 -10.18686
 Alpha  occ. eigenvalues --  -10.18646 -10.18612 -10.18340  -1.10368  -1.01089
 Alpha  occ. eigenvalues --   -0.94093  -0.86270  -0.84219  -0.77443  -0.75312
 Alpha  occ. eigenvalues --   -0.73956  -0.72571  -0.72068  -0.69833  -0.62495
 Alpha  occ. eigenvalues --   -0.62233  -0.59953  -0.58207  -0.55723  -0.53231
 Alpha  occ. eigenvalues --   -0.51773  -0.49042  -0.48765  -0.48067  -0.46774
 Alpha  occ. eigenvalues --   -0.45908  -0.44269  -0.43964  -0.42928  -0.41991
 Alpha  occ. eigenvalues --   -0.41751  -0.41243  -0.40635  -0.40501  -0.40315
 Alpha  occ. eigenvalues --   -0.38368  -0.37523  -0.36397  -0.35459  -0.35059
 Alpha  occ. eigenvalues --   -0.33682  -0.33563  -0.30159  -0.27142  -0.26380
 Alpha  occ. eigenvalues --   -0.24611  -0.24332  -0.24311  -0.22602
 Alpha virt. eigenvalues --   -0.01968  -0.00069   0.00459   0.02391   0.05321
 Alpha virt. eigenvalues --    0.08967   0.09563   0.10297   0.13086   0.13883
 Alpha virt. eigenvalues --    0.14448   0.14580   0.14925   0.15972   0.16369

 Mulliken atomic charges:
              1
     1  O   -0.513520
     2  C    0.798819
     3  N   -0.435605
     4  C   -0.319016
     5  C   -0.315201
     6  O   -0.548303
     7  C    0.334886
     8  C   -0.149182
     9  C   -0.151230
    10  C   -0.108257
    11  C   -0.211594
    12  C    0.048936
    13  C    0.075108
    14  C   -0.158139
    15  C   -0.139816
    16  C   -0.133104
    17  C   -0.137219
    18  C   -0.185922
    19  H    0.205988
    20  H    0.156093
    21  H    0.156990
    22  H    0.199740
    23  H    0.162831
    24  H    0.156719
    25  H    0.139791
    26  H    0.135357
    27  H    0.140462
    28  H    0.136462
    29  H    0.129479
    30  H    0.124715
    31  H    0.123574
    32  H    0.126239
    33  H    0.153921
 Sum of Mulliken atomic charges =  -0.00000

 Dipole moment (field-independent basis, Debye):
    X=             -1.5850    Y=             -0.6908    Z=              2.1982  Tot=              2.7967
 Quadrupole moment (field-independent basis, Debye-Ang):
   XX=            -90.5906   YY=            -94.2365   ZZ=           -107.8505
   XY=              6.5047   XZ=             -2.9685   YZ=              1.7427

 Summary of Natural Population Analysis:

                                       Natural Population
                Natural  -----------------------------------------------
    Atom  No    Charge         Core      Valence    Rydberg      Total
 -----------------------------------------------------------------------
      O    1   -0.64199      1.99977     6.62324    0.01898     8.64199
      C    2    0.93824      1.99936     3.01663    0.04576     5.06176
      N    3   -0.48435      1.99931     5.47406    0.01098     7.48435
      C    4   -0.46889      1.99947     4.45758    0.01185     6.46889
      C    5   -0.47091      1.99946     4.45986    0.01159     6.47091
      O    6   -0.54269      1.99968     6.53274    0.01027     8.54269
      C    7    0.38471      1.99865     3.59358    0.02306     5.61529
      C    8   -0.27320      1.99902     4.25683    0.01735     6.27320
      C    9   -0.25063      1.99913     4.23472    0.01678     6.25063
      C   10   -0.17096      1.99911     4.15592    0.01592     6.17096
      C   11   -0.26560      1.99908     4.24941    0.01711     6.26560
      C   12   -0.07726      1.99893     4.06006    0.01827     6.07726
      C   13   -0.06066      1.99901     4.04440    0.01724     6.06066
      C   14   -0.20633      1.99903     4.19400    0.01330     6.20633
      C   15   -0.24731      1.99910     4.23341    0.01480     6.24731
      C   16   -0.24164      1.99910     4.22765    0.01490     6.24164
      C   17   -0.22465      1.99910     4.21130    0.01425     6.22465
      C   18   -0.23846      1.99904     4.22440    0.01503     6.23846
      H   19    0.26328      0.00000     0.73527    0.00145     0.73672
      H   20    0.22236      0.00000     0.77644    0.00120     0.77764
      H   21    0.21957      0.00000     0.77892    0.00151     0.78043
      H   22    0.25717      0.00000     0.74201    0.00082     0.74283
      H   23    0.22308      0.00000     0.77521    0.00171     0.77692
      H   24    0.22427      0.00000     0.77439    0.00134     0.77573
      H   25    0.24363      0.00000     0.75540    0.00097     0.75637
      H   26    0.23641      0.00000     0.76275    0.00084     0.76359
      H   27    0.23532      0.00000     0.76384    0.00085     0.76468
      H   28    0.23833      0.00000     0.76069    0.00097     0.76167
      H   29    0.23541      0.00000     0.76324    0.00135     0.76459
      H   30    0.23399      0.00000     0.76511    0.00090     0.76601
      H   31    0.23142      0.00000     0.76769    0.00090     0.76858
      H   32    0.23381      0.00000     0.76529    0.00089     0.76619
      H   33    0.24455      0.00000     0.75375    0.00170     0.75545
 =======================================================================
   * Total *    0.00000     35.98537    91.68981    0.32483   128.00000

 Normal termination of Gaussian 09 at Fri Oct  1 05:30:00 2021.
