 Gaussian 09, Revision A.02,

 -----------------------------------
 #p opt b3lyp/6-31G* scf=(xqc,tight)
 -----------------------------------

 ----------------------------------
 COc1ccc2c(c1)ccc(c2)N1CCCC1_conf_0
 ----------------------------------
 Symbolic Z-matrix:
 Charge =  0 Multiplicity = 1

 SCF Done:  E(RB3LYP) =  -711.799099109     A.U. after   14 cycles
 SCF Done:  E(RB3LYP) =  -711.805249646     A.U. after   12 cycles
 SCF Done:  E(RB3LYP) =  -711.806017206     A.U. after   12 cycles
 SCF Done:  E(RB3LYP) =  -711.806189067     A.U. after   11 cycles
 SCF Done:  E(RB3LYP) =  -711.806230351     A.U. after   10 cycles
 SCF Done:  E(RB3LYP) =  -711.806242862     A.U. after    9 cycles
 SCF Done:  E(RB3LYP) =  -711.806250957     A.U. after    9 cycles
 SCF Done:  E(RB3LYP) =  -711.806261269     A.U. after   10 cycles
 SCF Done:  E(RB3LYP) =  -711.806274836     A.U. after   15 cycles
 SCF Done:  E(RB3LYP) =  -711.806286697     A.U. after   11 cycles
 SCF Done:  E(RB3LYP) =  -711.806292676     A.U. after   10 cycles
 SCF Done:  E(RB3LYP) =  -711.806293762     A.U. after    8 cycles
 SCF Done:  E(RB3LYP) =  -711.806294280     A.U. after    8 cycles
 SCF Done:  E(RB3LYP) =  -711.806294633     A.U. after    8 cycles
 SCF Done:  E(RB3LYP) =  -711.806294716     A.U. after    7 cycles
 SCF Done:  E(RB3LYP) =  -711.806294788     A.U. after    7 cycles
 SCF Done:  E(RB3LYP) =  -711.806294798     A.U. after    7 cycles
 Optimization completed.
    -- Stationary point found.
 Normal termination of Gaussian 09 at Tue Sep 28 20:57:53 2021.

 ----------------------------------------------------------------------
 #p freq b3lyp/6-31G* volume NMR pop=NPA density=current Geom=AllCheck
 Guess=Read
 ----------------------------------------------------------------------

 COc1ccc2c(c1)ccc(c2)N1CCCC1_conf_0
 ----------------------------------
 Redundant internal coordinates taken from checkpoint file:
 C15H17NO_d02c_conf_0.chk
 Charge =  0 Multiplicity = 1

 SCF Done:  E(RB3LYP) =  -711.806294798     A.U. after    1 cycles

  1  C    Isotropic =   137.4967   Anisotropy =    64.7424

  2  O    Isotropic =   246.8391   Anisotropy =    64.2844

  3  C    Isotropic =    44.3573   Anisotropy =   116.8360

  4  C    Isotropic =    84.4713   Anisotropy =   144.4222

  5  C    Isotropic =    68.9862   Anisotropy =   137.3306

  6  C    Isotropic =    66.2583   Anisotropy =   188.9590

  7  C    Isotropic =    69.0083   Anisotropy =   184.3747

  8  C    Isotropic =    82.2441   Anisotropy =   112.7507

  9  C    Isotropic =    67.7057   Anisotropy =   139.9868

 10  C    Isotropic =    80.1974   Anisotropy =   136.5198

 11  C    Isotropic =    56.0488   Anisotropy =   141.1579

 12  C    Isotropic =    89.6917   Anisotropy =   106.5635

 13  N    Isotropic =   181.0264   Anisotropy =   114.7469

 14  C    Isotropic =   142.7328   Anisotropy =    37.7779

 15  C    Isotropic =   162.1124   Anisotropy =    16.4345

 16  C    Isotropic =   161.9477   Anisotropy =    17.4424

 17  C    Isotropic =   142.7861   Anisotropy =    39.2351

 18  H    Isotropic =    28.3085   Anisotropy =     8.3826

 19  H    Isotropic =    28.5688   Anisotropy =     8.3212

 20  H    Isotropic =    28.5712   Anisotropy =     8.3251

 21  H    Isotropic =    25.4823   Anisotropy =     7.9759

 22  H    Isotropic =    24.8866   Anisotropy =     8.1826

 23  H    Isotropic =    25.3677   Anisotropy =     7.9393

 24  H    Isotropic =    24.8496   Anisotropy =     7.5121

 25  H    Isotropic =    25.5356   Anisotropy =     9.7013

 26  H    Isotropic =    25.9414   Anisotropy =    11.1984

 27  H    Isotropic =    28.7943   Anisotropy =     9.0374

 28  H    Isotropic =    28.8515   Anisotropy =     7.0246

 29  H    Isotropic =    30.2198   Anisotropy =    10.0881

 30  H    Isotropic =    30.1182   Anisotropy =     9.1414

 31  H    Isotropic =    30.1185   Anisotropy =     9.0378

 32  H    Isotropic =    30.2173   Anisotropy =    10.1916

 33  H    Isotropic =    28.7959   Anisotropy =     7.1055

 34  H    Isotropic =    28.6843   Anisotropy =     9.5663

  Exact polarizability: 301.890 -11.850 164.152   1.033  -2.817  82.545
 Approx polarizability: 413.708 -23.360 288.679   2.736  -7.140 126.939

                     1                      2                      3
                     A                      A                      A
 Frequencies --    24.1787                57.9956                72.9400
 Red. masses --     4.0634                 3.2763                 2.8699
 Frc consts  --     0.0014                 0.0065                 0.0090
 IR Inten    --     1.4810                 1.7024                 0.2812

                     4                      5                      6
                     A                      A                      A
 Frequencies --    98.4561               116.1627               134.9604
 Red. masses --     4.4468                 4.6154                 2.1185
 Frc consts  --     0.0254                 0.0367                 0.0227
 IR Inten    --     1.8207                 1.3792                 2.6755

                     7                      8                      9
                     A                      A                      A
 Frequencies --   188.3362               209.7520               221.8867
 Red. masses --     2.8830                 3.5330                 3.1903
 Frc consts  --     0.0603                 0.0916                 0.0925
 IR Inten    --     0.7839                 1.0285                 0.9845

                    10                     11                     12
                     A                      A                      A
 Frequencies --   253.4297               262.3651               264.9651
 Red. masses --     1.8627                 3.5318                 1.4778
 Frc consts  --     0.0705                 0.1432                 0.0611
 IR Inten    --     0.1104                 0.1235                 0.4619

                    13                     14                     15
                     A                      A                      A
 Frequencies --   335.2465               393.9498               414.0498
 Red. masses --     3.8929                 5.9517                 3.4136
 Frc consts  --     0.2578                 0.5442                 0.3448
 IR Inten    --     2.1784                 0.9233                 0.0396

                    16                     17                     18
                     A                      A                      A
 Frequencies --   431.2196               480.5947               495.1850
 Red. masses --     4.9099                 2.6363                 4.2706
 Frc consts  --     0.5379                 0.3588                 0.6170
 IR Inten    --     0.4560                 5.9635                 1.6110

                    19                     20                     21
                     A                      A                      A
 Frequencies --   533.7924               571.0588               578.7285
 Red. masses --     6.5097                 4.5802                 2.6569
 Frc consts  --     1.0928                 0.8800                 0.5243
 IR Inten    --     1.4046                18.9795                 0.2532

                    22                     23                     24
                     A                      A                      A
 Frequencies --   589.1836               648.2519               669.3186
 Red. masses --     1.8632                 6.2903                 3.6766
 Frc consts  --     0.3811                 1.5574                 0.9704
 IR Inten    --     0.8918                 1.8989                 0.8037

                    25                     26                     27
                     A                      A                      A
 Frequencies --   721.4465               754.5876               770.1470
 Red. masses --     4.8992                 2.9181                 3.7551
 Frc consts  --     1.5024                 0.9790                 1.3123
 IR Inten    --     7.3393                 0.3066                 4.2786

                    28                     29                     30
                     A                      A                      A
 Frequencies --   801.3543               814.0110               822.0758
 Red. masses --     1.3671                 1.6588                 3.1922
 Frc consts  --     0.5173                 0.6476                 1.2710
 IR Inten    --     9.4490                11.0948                 3.8279

                    31                     32                     33
                     A                      A                      A
 Frequencies --   851.1464               881.3166               884.4624
 Red. masses --     1.7648                 1.5646                 1.7280
 Frc consts  --     0.7533                 0.7160                 0.7965
 IR Inten    --    32.0164                26.4718                11.1573

                    34                     35                     36
                     A                      A                      A
 Frequencies --   886.5361               917.5707               928.6994
 Red. masses --     1.8684                 4.3748                 2.5066
 Frc consts  --     0.8652                 2.1702                 1.2737
 IR Inten    --     2.3233                 4.4374                 1.4046

                    37                     38                     39
                     A                      A                      A
 Frequencies --   940.6330               943.3718               951.5538
 Red. masses --     1.2913                 1.5264                 1.3115
 Frc consts  --     0.6731                 0.8004                 0.6996
 IR Inten    --     0.1766                 1.9321                 0.9305

                    40                     41                     42
                     A                      A                      A
 Frequencies --   971.6444              1002.3882              1015.6866
 Red. masses --     4.1126                 1.4732                 2.7904
 Frc consts  --     2.2876                 0.8721                 1.6961
 IR Inten    --     7.0309                 1.9001                11.9326

                    43                     44                     45
                     A                      A                      A
 Frequencies --  1060.1749              1085.1913              1163.7138
 Red. masses --     1.7952                 3.3965                 1.6356
 Frc consts  --     1.1888                 2.3566                 1.3051
 IR Inten    --     0.1187                47.0251                19.2521

                    46                     47                     48
                     A                      A                      A
 Frequencies --  1175.3820              1183.7629              1185.7329
 Red. masses --     1.7156                 1.2691                 1.4255
 Frc consts  --     1.3965                 1.0478                 1.1808
 IR Inten    --    56.7438                 0.7569                14.2218

                    49                     50                     51
                     A                      A                      A
 Frequencies --  1194.6582              1202.9608              1211.8390
 Red. masses --     1.5058                 1.4288                 1.3481
 Frc consts  --     1.2662                 1.2182                 1.1665
 IR Inten    --    45.0246                47.9557                 0.3605

                    52                     53                     54
                     A                      A                      A
 Frequencies --  1214.5779              1228.0273              1255.9155
 Red. masses --     1.5609                 2.6541                 1.6398
 Frc consts  --     1.3567                 2.3583                 1.5239
 IR Inten    --    16.8112                33.1599                 5.0399

                    55                     56                     57
                     A                      A                      A
 Frequencies --  1266.5840              1285.2594              1302.6103
 Red. masses --     1.2596                 1.3279                 1.7565
 Frc consts  --     1.1906                 1.2924                 1.7560
 IR Inten    --    29.1358                19.6951                17.4925

                    58                     59                     60
                     A                      A                      A
 Frequencies --  1312.2364              1339.6351              1361.3759
 Red. masses --     3.0050                 1.3514                 1.8604
 Frc consts  --     3.0488                 1.4289                 2.0315
 IR Inten    --   376.0291                 1.7746                13.7708

                    61                     62                     63
                     A                      A                      A
 Frequencies --  1366.6646              1390.3349              1397.3752
 Red. masses --     1.3285                 1.8263                 2.1543
 Frc consts  --     1.4620                 2.0799                 2.4784
 IR Inten    --     0.3822                49.6361                 0.2804

                    64                     65                     66
                     A                      A                      A
 Frequencies --  1412.7000              1419.5882              1436.8452
 Red. masses --     1.8859                 3.8012                 3.3919
 Frc consts  --     2.2175                 4.5133                 4.1258
 IR Inten    --   153.7560                39.5381               280.8036

                    67                     68                     69
                     A                      A                      A
 Frequencies --  1472.0172              1502.3272              1519.1416
 Red. masses --     4.3919                 1.2395                 1.0906
 Frc consts  --     5.6070                 1.6483                 1.4829
 IR Inten    --    16.2475                 0.0211                 2.9171

                    70                     71                     72
                     A                      A                      A
 Frequencies --  1520.9769              1527.7820              1535.7723
 Red. masses --     1.0489                 1.1121                 1.0771
 Frc consts  --     1.4296                 1.5294                 1.4967
 IR Inten    --     4.4961                12.6301                35.8103

                    73                     74                     75
                     A                      A                      A
 Frequencies --  1549.3987              1555.2226              1557.1604
 Red. masses --     2.4005                 1.7743                 1.4546
 Frc consts  --     3.3954                 2.5284                 2.0780
 IR Inten    --    45.0933                81.4918                56.5531

                    76                     77                     78
                     A                      A                      A
 Frequencies --  1570.1785              1614.6874              1667.6862
 Red. masses --     1.2105                 6.6184                 5.5594
 Frc consts  --     1.7584                10.1667                 9.1098
 IR Inten    --     6.1102                35.0745               347.9236

                    79                     80                     81
                     A                      A                      A
 Frequencies --  1692.4991              2973.8566              2984.7587
 Red. masses --     6.1725                 1.0724                 1.0723
 Frc consts  --    10.4176                 5.5878                 5.6286
 IR Inten    --    23.8253                79.0978                72.0366

                    82                     83                     84
                     A                      A                      A
 Frequencies --  3017.6964              3045.1457              3047.6944
 Red. masses --     1.0353                 1.0878                 1.0873
 Frc consts  --     5.5548                 5.9430                 5.9506
 IR Inten    --    84.9863                21.5903                18.0537

                    85                     86                     87
                     A                      A                      A
 Frequencies --  3064.9215              3068.4352              3073.4615
 Red. masses --     1.0726                 1.0641                 1.1065
 Frc consts  --     5.9367                 5.9029                 6.1581
 IR Inten    --    29.5698                67.4215                51.1409

                    88                     89                     90
                     A                      A                      A
 Frequencies --  3114.6955              3122.9536              3149.5215
 Red. masses --     1.0983                 1.1054                 1.0988
 Frc consts  --     6.2776                 6.3517                 6.4218
 IR Inten    --    47.6414                44.8450                36.1535

                    91                     92                     93
                     A                      A                      A
 Frequencies --  3177.2981              3179.0160              3199.5510
 Red. masses --     1.0888                 1.0885                 1.0904
 Frc consts  --     6.4760                 6.4812                 6.5766
 IR Inten    --    12.9425                11.2434                15.1069

                    94                     95                     96
                     A                      A                      A
 Frequencies --  3204.1486              3215.3527              3220.0138
 Red. masses --     1.0887                 1.0919                 1.0915
 Frc consts  --     6.5852                 6.6509                 6.6681
 IR Inten    --    17.4521                21.6299                17.6281

 - Thermochemistry -
 -------------------
 Temperature   298.150 Kelvin.  Pressure   1.00000 Atm.
 Atom     1 has atomic number  6 and mass  12.00000

 Molecular mass:   227.13101 amu.
 Principal axes and moments of inertia in atomic units:
                           1         2         3
     Eigenvalues --   998.589219491.54688**********
           X            0.99999  -0.00374  -0.00005
           Y            0.00374   0.99999   0.00005
           Z            0.00005  -0.00005   1.00000
 This molecule is an asymmetric top.
 Rotational symmetry number  1.
 Warning -- assumption of classical behavior for rotation
           may cause significant error
 Rotational temperatures (Kelvin)      0.08674     0.00913     0.00833
 Rotational constants (GHZ):           1.80729     0.19014     0.17351
 Zero-point vibrational energy     762626.3 (Joules/Mol)
                                  182.27205 (Kcal/Mol)
 Warning -- explicit consideration of  22 degrees of freedom as
           vibrations may cause significant error
 Vibrational temperatures:     34.79    83.44   104.94   141.66   167.13
          (Kelvin)            194.18   270.97   301.79   319.25   364.63
                              377.48   381.23   482.34   566.81   595.72
                              620.43   691.47   712.46   768.01   821.63
                              832.66   847.70   932.69   963.00  1038.00
                             1085.68  1108.07  1152.97  1171.18  1182.78
                             1224.61  1268.02  1272.54  1275.53  1320.18
                             1336.19  1353.36  1357.30  1369.07  1397.98
                             1442.21  1461.34  1525.35  1561.35  1674.32
                             1691.11  1703.17  1706.00  1718.84  1730.79
                             1743.56  1747.50  1766.86  1806.98  1822.33
                             1849.20  1874.16  1888.01  1927.43  1958.71
                             1966.32  2000.38  2010.51  2032.56  2042.47
                             2067.30  2117.90  2161.51  2185.70  2188.34
                             2198.13  2209.63  2229.24  2237.62  2240.40
                             2259.13  2323.17  2399.43  2435.13  4278.71
                             4294.40  4341.79  4381.28  4384.95  4409.73
                             4414.79  4422.02  4481.35  4493.23  4531.45
                             4571.42  4573.89  4603.43  4610.05  4626.17
                             4632.88

 Zero-point correction=                           0.290469 (Hartree/Particle)
 Thermal correction to Energy=                    0.305166
 Thermal correction to Enthalpy=                  0.306111
 Thermal correction to Gibbs Free Energy=         0.247845
 Sum of electronic and zero-point Energies=           -711.515826
 Sum of electronic and thermal Energies=              -711.501128
 Sum of electronic and thermal Enthalpies=            -711.500184
 Sum of electronic and thermal Free Energies=         -711.558450

                     E (Thermal)             CV                S
                      KCal/Mol        Cal/Mol-Kelvin    Cal/Mol-Kelvin
 Total                  191.495             57.723            122.630
 Electronic               0.000              0.000              0.000
 Translational            0.889              2.981             42.163
 Rotational               0.889              2.981             32.955
 Vibrational            189.717             51.762             47.512
 Vibration     1          0.593              1.985              6.258
 Vibration     2          0.596              1.974              4.524
 Vibration     3          0.599              1.967              4.072
 Vibration     4          0.604              1.950              3.485
 Vibration     5          0.608              1.936              3.163
 Vibration     6          0.613              1.918              2.874
 Vibration     7          0.633              1.856              2.244
 Vibration     8          0.642              1.826              2.046
 Vibration     9          0.648              1.808              1.944
 Vibration    10          0.665              1.757              1.707
 Vibration    11          0.670              1.742              1.646
 Vibration    12          0.671              1.737              1.629
 Vibration    13          0.716              1.605              1.235
 Vibration    14          0.761              1.483              0.985
 Vibration    15          0.778              1.440              0.912
 Vibration    16          0.792              1.402              0.855
 Vibration    17          0.837              1.293              0.708
 Vibration    18          0.851              1.261              0.670
 Vibration    19          0.889              1.175              0.579
 Vibration    20          0.927              1.094              0.502
 Vibration    21          0.935              1.077              0.488
 Vibration    22          0.946              1.055              0.469

 Optimization completed.
    -- Stationary point found.
 Normal termination of Gaussian 09 at Tue Sep 28 22:09:13 2021.
 Gaussian 09:  AM64L-G09RevA.02 11-Jun-2009

 ----------------------------------------------------------------------
 #p TD(NStates=10, Root=1) b3lyp/6-31G* volume pop=NPA density=current
 Geom=AllCheck Guess=Read
 ----------------------------------------------------------------------

 COc1ccc2c(c1)ccc(c2)N1CCCC1_conf_0
 ----------------------------------
 Redundant internal coordinates taken from checkpoint file:
 C15H17NO_d02c_conf_0.chk
 Charge =  0 Multiplicity = 1

                         Standard orientation:
 ---------------------------------------------------------------------
 Center     Atomic      Atomic             Coordinates (Angstroms)
 Number     Number       Type             X           Y           Z
 ---------------------------------------------------------------------
      1          6           0        5.884509   -0.538394    0.049533
      2          8           0        4.899828    0.477328   -0.003038
      3          6           0        3.578207    0.108625    0.003881
      4          6           0        3.133219   -1.236977    0.059133
      5          6           0        1.783010   -1.519968    0.060746
      6          6           0        0.805007   -0.493279    0.008977
      7          6           0        1.265779    0.862850   -0.044178
      8          6           0        2.652637    1.134684   -0.046633
      9          6           0        0.283563    1.890068   -0.094101
     10          6           0       -1.058154    1.603972   -0.091532
     11          6           0       -1.531155    0.252143   -0.034358
     12          6           0       -0.585569   -0.769191    0.015134
     13          7           0       -2.888059   -0.006638   -0.039515
     14          6           0       -3.436412   -1.356763   -0.079661
     15          6           0       -4.938588   -1.131743   -0.303371
     16          6           0       -5.196280    0.213902    0.392761
     17          6           0       -3.920881    1.018529    0.093337
     18          1           0        6.847228   -0.023043    0.033481
     19          1           0        5.824758   -1.212708   -0.816011
     20          1           0        5.811566   -1.132608    0.970962
     21          1           0        3.847295   -2.051988    0.100233
     22          1           0        1.454471   -2.556086    0.103085
     23          1           0        3.008478    2.160462   -0.088107
     24          1           0        0.611118    2.926239   -0.140520
     25          1           0       -1.773480    2.417726   -0.146097
     26          1           0       -0.900155   -1.806460    0.070285
     27          1           0       -3.246214   -1.898416    0.862923
     28          1           0       -2.977362   -1.942049   -0.887402
     29          1           0       -5.548743   -1.948222    0.094477
     30          1           0       -5.147192   -1.048265   -1.376685
     31          1           0       -5.295477    0.064246    1.474515
     32          1           0       -6.100917    0.718471    0.040220
     33          1           0       -3.683250    1.723271    0.900742
     34          1           0       -4.027694    1.606512   -0.833195
 ---------------------------------------------------------------------

 SCF Done:  E(RB3LYP) =  -711.806294798     A.U. after    1 cycles

 Excitation energies and oscillator strengths:

 Excited State   1:      Singlet-A      3.4567 eV  358.67 nm  f=0.0761  <S**2>=0.000
      60 -> 63         0.11663
      61 -> 62         0.68831
 This state for optimization and/or second-order correction.
 Total Energy, E(TD-HF/TD-KS) =  -711.679261906
 Copying the excited state density for this state as the 1-particle RhoCI density.

 Excited State   2:      Singlet-A      4.4349 eV  279.56 nm  f=0.0756  <S**2>=0.000
      60 -> 62        -0.44655
      61 -> 62        -0.10215
      61 -> 63         0.52386

 Excited State   3:      Singlet-A      4.9240 eV  251.79 nm  f=0.1062  <S**2>=0.000
      59 -> 62         0.55376
      60 -> 62         0.32470
      60 -> 63         0.10965
      61 -> 63         0.15944
      61 -> 64        -0.20872

 Excited State   4:      Singlet-A      5.2172 eV  237.65 nm  f=0.0636  <S**2>=0.000
      58 -> 62         0.11739
      59 -> 62         0.12904
      60 -> 62         0.10928
      61 -> 64         0.64777

 Excited State   5:      Singlet-A      5.2998 eV  233.94 nm  f=1.1764  <S**2>=0.000
      59 -> 62        -0.31266
      60 -> 62         0.39232
      60 -> 63        -0.23188
      61 -> 63         0.41443

 Excited State   6:      Singlet-A      5.9760 eV  207.47 nm  f=0.2138  <S**2>=0.000
      57 -> 62        -0.13327
      58 -> 62         0.27403
      59 -> 62        -0.17184
      60 -> 63         0.47913
      60 -> 64         0.14333
      61 -> 65        -0.30453

 Excited State   7:      Singlet-A      5.9846 eV  207.17 nm  f=0.0459  <S**2>=0.000
      58 -> 62         0.11068
      60 -> 63         0.23793
      61 -> 65         0.62700

 Excited State   8:      Singlet-A      6.1717 eV  200.89 nm  f=0.1486  <S**2>=0.000
      58 -> 62         0.39142
      59 -> 62         0.14285
      59 -> 63        -0.17551
      60 -> 63        -0.25396
      60 -> 64         0.45312

 Excited State   9:      Singlet-A      6.3748 eV  194.49 nm  f=0.0246  <S**2>=0.000
      57 -> 62         0.12328
      58 -> 62         0.25367
      59 -> 63         0.61416
      60 -> 63        -0.10044
      61 -> 64        -0.10153

 Excited State  10:      Singlet-A      6.4830 eV  191.25 nm  f=0.0004  <S**2>=0.000
      61 -> 66         0.67370
      61 -> 68        -0.17616

 The electronic state is 1-A.
 Alpha  occ. eigenvalues --  -19.16440 -14.34117 -10.23293 -10.23138 -10.21879
 Alpha  occ. eigenvalues --  -10.21684 -10.21663 -10.19292 -10.19233 -10.18012
 Alpha  occ. eigenvalues --  -10.17965 -10.17907 -10.17810 -10.17803 -10.17744
 Alpha  occ. eigenvalues --  -10.16876 -10.16617  -1.04947  -0.94758  -0.85446
 Alpha  occ. eigenvalues --   -0.81437  -0.77946  -0.75798  -0.73958  -0.72058
 Alpha  occ. eigenvalues --   -0.71437  -0.67570  -0.62548  -0.61264  -0.59515
 Alpha  occ. eigenvalues --   -0.57607  -0.56755  -0.52812  -0.51818  -0.50155
 Alpha  occ. eigenvalues --   -0.49253  -0.46453  -0.45782  -0.45434  -0.43597
 Alpha  occ. eigenvalues --   -0.43082  -0.42922  -0.41535  -0.40823  -0.40203
 Alpha  occ. eigenvalues --   -0.39674  -0.38984  -0.37587  -0.36807  -0.35170
 Alpha  occ. eigenvalues --   -0.35079  -0.34370  -0.34029  -0.33638  -0.32831
 Alpha  occ. eigenvalues --   -0.30913  -0.29816  -0.27434  -0.23084  -0.21197
 Alpha  occ. eigenvalues --   -0.16515
 Alpha virt. eigenvalues --   -0.02166   0.02182   0.04915   0.08080   0.10141
 Alpha virt. eigenvalues --    0.10856   0.11257   0.12223   0.12631   0.13127
 Alpha virt. eigenvalues --    0.13826   0.14715   0.15265   0.15582   0.16128

 Mulliken atomic charges:
              1
     1  C   -0.210051
     2  O   -0.496678
     3  C    0.385857
     4  C   -0.222018
     5  C   -0.236996
     6  C    0.155334
     7  C    0.160046
     8  C   -0.292945
     9  C   -0.228761
    10  C   -0.220433
    11  C    0.377164
    12  C   -0.286442
    13  N   -0.481951
    14  C   -0.119459
    15  C   -0.301671
    16  C   -0.304716
    17  C   -0.116850
    18  H    0.162989
    19  H    0.153466
    20  H    0.153454
    21  H    0.105303
    22  H    0.100265
    23  H    0.115862
    24  H    0.111005
    25  H    0.099533
    26  H    0.117436
    27  H    0.166718
    28  H    0.175043
    29  H    0.157552
    30  H    0.159236
    31  H    0.158799
    32  H    0.157898
    33  H    0.176608
    34  H    0.169403
 Sum of Mulliken atomic charges =  -0.00000

 Dipole moment (field-independent basis, Debye):
    X=             -5.3789    Y=             -1.8453    Z=              0.1372  Tot=              5.6883
 Quadrupole moment (field-independent basis, Debye-Ang):
   XX=            -68.2706   YY=            -95.7714   ZZ=           -103.8960
   XY=             -3.7444   XZ=              0.1010   YZ=             -0.1179

 Summary of Natural Population Analysis:

                                       Natural Population
                Natural  -----------------------------------------------
    Atom  No    Charge         Core      Valence    Rydberg      Total
 -----------------------------------------------------------------------
      C    1   -0.31593      1.99943     4.30255    0.01395     6.31593
      O    2   -0.49678      1.99975     6.48546    0.01157     8.49678
      C    3    0.35377      1.99877     3.62493    0.02253     5.64623
      C    4   -0.37700      1.99903     4.36335    0.01462     6.37700
      C    5   -0.24666      1.99908     4.23157    0.01601     6.24666
      C    6   -0.06077      1.99903     4.04639    0.01536     6.06077
      C    7   -0.03992      1.99902     4.02578    0.01511     6.03992
      C    8   -0.31576      1.99899     4.30083    0.01594     6.31576
      C    9   -0.23621      1.99907     4.22123    0.01592     6.23621
      C   10   -0.35444      1.99908     4.34036    0.01500     6.35444
      C   11    0.18266      1.99904     3.79849    0.01981     5.81734
      C   12   -0.24447      1.99903     4.23252    0.01292     6.24447
      N   13   -0.32347      1.99933     5.31248    0.01165     7.32347
      C   14   -0.26831      1.99935     4.25508    0.01387     6.26831
      C   15   -0.46978      1.99934     4.45879    0.01165     6.46978
      C   16   -0.47026      1.99934     4.45940    0.01151     6.47026
      C   17   -0.26617      1.99935     4.25313    0.01369     6.26617
      H   18    0.22387      0.00000     0.77555    0.00059     0.77613
      H   19    0.20465      0.00000     0.79313    0.00221     0.79535
      H   20    0.20465      0.00000     0.79314    0.00221     0.79535
      H   21    0.22636      0.00000     0.77277    0.00087     0.77364
      H   22    0.22008      0.00000     0.77878    0.00114     0.77992
      H   23    0.23471      0.00000     0.76377    0.00152     0.76529
      H   24    0.22735      0.00000     0.77156    0.00108     0.77265
      H   25    0.22032      0.00000     0.77877    0.00091     0.77968
      H   26    0.22239      0.00000     0.77627    0.00134     0.77761
      H   27    0.23818      0.00000     0.75954    0.00227     0.76182
      H   28    0.25084      0.00000     0.74740    0.00176     0.74916
      H   29    0.25161      0.00000     0.74753    0.00086     0.74839
      H   30    0.23991      0.00000     0.75861    0.00148     0.76009
      H   31    0.23943      0.00000     0.75905    0.00152     0.76057
      H   32    0.25174      0.00000     0.74742    0.00084     0.74826
      H   33    0.25206      0.00000     0.74556    0.00238     0.74794
      H   34    0.24134      0.00000     0.75649    0.00217     0.75866
 =======================================================================
   * Total *    0.00000     33.98603    87.73770    0.27627   122.00000

 Normal termination of Gaussian 09 at Wed Sep 29 03:00:49 2021.
