 Gaussian 09, Revision A.02,

 -----------------------------------
 #p opt b3lyp/6-31G* scf=(xqc,tight)
 -----------------------------------

 ---------------------------------------
 C1=CC(C=C1)P(C1C=CC=C1)C1C=CC=C1_conf_0
 ---------------------------------------
 Symbolic Z-matrix:
 Charge =  0 Multiplicity = 1

 SCF Done:  E(RB3LYP) =  -921.817052266     A.U. after   15 cycles
 SCF Done:  E(RB3LYP) =  -921.838408419     A.U. after   12 cycles
 SCF Done:  E(RB3LYP) =  -921.852015579     A.U. after   13 cycles
 SCF Done:  E(RB3LYP) =  -921.853933855     A.U. after   12 cycles
 SCF Done:  E(RB3LYP) =  -921.854402171     A.U. after   12 cycles
 SCF Done:  E(RB3LYP) =  -921.854508490     A.U. after   11 cycles
 SCF Done:  E(RB3LYP) =  -921.854544864     A.U. after   10 cycles
 SCF Done:  E(RB3LYP) =  -921.854553632     A.U. after   10 cycles
 SCF Done:  E(RB3LYP) =  -921.854558481     A.U. after   10 cycles
 SCF Done:  E(RB3LYP) =  -921.854559824     A.U. after    9 cycles
 SCF Done:  E(RB3LYP) =  -921.854560918     A.U. after    8 cycles
 SCF Done:  E(RB3LYP) =  -921.854561690     A.U. after    8 cycles
 SCF Done:  E(RB3LYP) =  -921.854561749     A.U. after    7 cycles
 Optimization completed.
    -- Stationary point found.
 Normal termination of Gaussian 09 at Fri Oct  1 22:43:38 2021.

 ----------------------------------------------------------------------
 #p freq b3lyp/6-31G* volume NMR pop=NPA density=current Geom=AllCheck
 Guess=Read
 ----------------------------------------------------------------------

 C1=CC(C=C1)P(C1C=CC=C1)C1C=CC=C1_conf_0
 ---------------------------------------
 Redundant internal coordinates taken from checkpoint file:
 C15H15P_3bc4_conf_0.chk
 Charge =  0 Multiplicity = 1

 SCF Done:  E(RB3LYP) =  -921.854561749     A.U. after    1 cycles

  1  C    Isotropic =    64.3884   Anisotropy =   131.9129

  2  C    Isotropic =    57.8136   Anisotropy =   140.5168

  3  C    Isotropic =   138.6484   Anisotropy =    13.3210

  4  C    Isotropic =    56.4705   Anisotropy =   137.6551

  5  C    Isotropic =    64.1915   Anisotropy =   129.9357

  6  P    Isotropic =   348.3596   Anisotropy =    58.3890

  7  C    Isotropic =   136.8918   Anisotropy =    14.4706

  8  C    Isotropic =    60.7855   Anisotropy =   145.8579

  9  C    Isotropic =    63.8855   Anisotropy =   131.8123

 10  C    Isotropic =    60.6079   Anisotropy =   137.2035

 11  C    Isotropic =    63.9047   Anisotropy =   142.2623

 12  C    Isotropic =   132.1600   Anisotropy =    19.0590

 13  C    Isotropic =    61.2551   Anisotropy =   139.2878

 14  C    Isotropic =    63.3687   Anisotropy =   133.5319

 15  C    Isotropic =    63.5566   Anisotropy =   132.1192

 16  C    Isotropic =    59.5723   Anisotropy =   150.8527

 17  H    Isotropic =    25.9037   Anisotropy =     4.1226

 18  H    Isotropic =    25.9393   Anisotropy =     4.2974

 19  H    Isotropic =    29.4805   Anisotropy =     7.2962

 20  H    Isotropic =    25.6285   Anisotropy =     6.7477

 21  H    Isotropic =    25.8480   Anisotropy =     4.9785

 22  H    Isotropic =    28.3946   Anisotropy =     6.0236

 23  H    Isotropic =    26.2253   Anisotropy =     8.3747

 24  H    Isotropic =    25.9262   Anisotropy =     5.0128

 25  H    Isotropic =    25.6503   Anisotropy =     4.2941

 26  H    Isotropic =    25.8791   Anisotropy =     5.9312

 27  H    Isotropic =    28.6045   Anisotropy =     8.1858

 28  H    Isotropic =    25.8735   Anisotropy =     3.8071

 29  H    Isotropic =    25.7052   Anisotropy =     4.2229

 30  H    Isotropic =    25.6309   Anisotropy =     4.4192

 31  H    Isotropic =    25.2628   Anisotropy =     5.1261

  Exact polarizability: 203.827   0.567 167.249  -8.132   7.002 130.488
 Approx polarizability: 311.506   3.119 264.715 -17.377  16.130 234.026

                     1                      2                      3
                     A                      A                      A
 Frequencies --    36.1004                54.2042                65.1177
 Red. masses --     3.5892                 3.6601                 3.7802
 Frc consts  --     0.0028                 0.0063                 0.0094
 IR Inten    --     0.0359                 0.1150                 0.0764

                     4                      5                      6
                     A                      A                      A
 Frequencies --    78.2649                92.9025               103.3802
 Red. masses --     4.7233                 4.4099                 4.0997
 Frc consts  --     0.0170                 0.0224                 0.0258
 IR Inten    --     0.0715                 0.2019                 0.2050

                     7                      8                      9
                     A                      A                      A
 Frequencies --   132.0400               167.7623               179.4042
 Red. masses --     4.4884                 4.3032                 4.3468
 Frc consts  --     0.0461                 0.0714                 0.0824
 IR Inten    --     0.2400                 0.8512                 1.1138

                    10                     11                     12
                     A                      A                      A
 Frequencies --   235.1050               267.3305               285.5617
 Red. masses --     3.9842                 3.9833                 4.4523
 Frc consts  --     0.1298                 0.1677                 0.2139
 IR Inten    --     1.4286                 0.6927                 1.0220

                    13                     14                     15
                     A                      A                      A
 Frequencies --   408.3273               432.3991               443.3645
 Red. masses --     5.4562                 6.0572                 6.8342
 Frc consts  --     0.5360                 0.6673                 0.7915
 IR Inten    --     4.5477                23.6273                30.7551

                    16                     17                     18
                     A                      A                      A
 Frequencies --   561.7077               565.4570               573.6590
 Red. masses --     2.8300                 2.8971                 3.0095
 Frc consts  --     0.5261                 0.5458                 0.5835
 IR Inten    --     0.7453                 1.1781                 3.5686

                    19                     20                     21
                     A                      A                      A
 Frequencies --   665.7629               684.0292               704.9849
 Red. masses --     2.1445                 1.8456                 1.6286
 Frc consts  --     0.5600                 0.5088                 0.4769
 IR Inten    --    17.2623                52.2024                87.5467

                    22                     23                     24
                     A                      A                      A
 Frequencies --   723.7443               726.1033               730.6167
 Red. masses --     1.2890                 1.2931                 1.2980
 Frc consts  --     0.3978                 0.4017                 0.4082
 IR Inten    --     0.7360                 5.7685                 3.2159

                    25                     26                     27
                     A                      A                      A
 Frequencies --   788.2053               801.2981               815.9013
 Red. masses --     1.4923                 1.8479                 5.3807
 Frc consts  --     0.5462                 0.6991                 2.1104
 IR Inten    --    21.7969                45.6384                 6.4930

                    28                     29                     30
                     A                      A                      A
 Frequencies --   816.2475               819.2983               820.7931
 Red. masses --     4.1968                 3.3653                 4.4203
 Frc consts  --     1.6475                 1.3310                 1.7545
 IR Inten    --    16.1940                 6.1096                10.4148

                    31                     32                     33
                     A                      A                      A
 Frequencies --   832.7781               839.3507               840.9056
 Red. masses --     4.2453                 4.8356                 4.8439
 Frc consts  --     1.7347                 2.0072                 2.0181
 IR Inten    --     4.2805                 1.4020                 3.5318

                    34                     35                     36
                     A                      A                      A
 Frequencies --   937.9053               940.6254               943.4427
 Red. masses --     1.5436                 1.5227                 1.3753
 Frc consts  --     0.8000                 0.7938                 0.7213
 IR Inten    --    32.9338                 1.7780                10.6251

                    37                     38                     39
                     A                      A                      A
 Frequencies --   949.2582               950.9516               954.1165
 Red. masses --     1.3496                 1.3504                 1.3699
 Frc consts  --     0.7165                 0.7195                 0.7347
 IR Inten    --     0.1604                 0.6988                 0.3495

                    40                     41                     42
                     A                      A                      A
 Frequencies --   957.5981               958.8317               960.5699
 Red. masses --     1.8087                 1.6912                 1.6722
 Frc consts  --     0.9772                 0.9161                 0.9091
 IR Inten    --    27.5315                14.2255                27.9379

                    43                     44                     45
                     A                      A                      A
 Frequencies --  1013.7601              1026.3043              1027.7479
 Red. masses --     1.7328                 2.0654                 1.9745
 Frc consts  --     1.0492                 1.2818                 1.2288
 IR Inten    --     5.1850                 7.4999                 3.0348

                    46                     47                     48
                     A                      A                      A
 Frequencies --  1028.9301              1029.7824              1034.9153
 Red. masses --     2.0628                 2.0517                 2.1321
 Frc consts  --     1.2867                 1.2819                 1.3454
 IR Inten    --     1.7867                 4.6855                 3.2055

                    49                     50                     51
                     A                      A                      A
 Frequencies --  1075.3238              1093.0890              1113.0436
 Red. masses --     1.2131                 1.1842                 1.1405
 Frc consts  --     0.8265                 0.8337                 0.8325
 IR Inten    --    11.0766                21.0890                26.0990

                    52                     53                     54
                     A                      A                      A
 Frequencies --  1121.6975              1123.7919              1130.1844
 Red. masses --     1.1309                 1.1251                 1.1181
 Frc consts  --     0.8383                 0.8372                 0.8414
 IR Inten    --     3.5480                 5.4302                 5.5240

                    55                     56                     57
                     A                      A                      A
 Frequencies --  1146.2818              1147.8774              1151.7011
 Red. masses --     1.3467                 1.3317                 1.4150
 Frc consts  --     1.0426                 1.0338                 1.1059
 IR Inten    --     1.7659                 3.5229                 5.7496

                    58                     59                     60
                     A                      A                      A
 Frequencies --  1226.9552              1236.6030              1248.8608
 Red. masses --     1.8317                 1.7737                 1.7486
 Frc consts  --     1.6246                 1.5980                 1.6068
 IR Inten    --     4.5266                 3.5150                 6.8404

                    61                     62                     63
                     A                      A                      A
 Frequencies --  1323.0216              1326.7541              1329.1328
 Red. masses --     1.5424                 1.5455                 1.5761
 Frc consts  --     1.5907                 1.6029                 1.6405
 IR Inten    --     0.7819                 0.3583                 1.3325

                    64                     65                     66
                     A                      A                      A
 Frequencies --  1417.4057              1420.7870              1424.8944
 Red. masses --     1.9616                 1.9668                 1.9789
 Frc consts  --     2.3220                 2.3392                 2.3672
 IR Inten    --     3.4647                 3.7047                 2.5507

                    67                     68                     69
                     A                      A                      A
 Frequencies --  1547.8458              1550.4904              1554.5490
 Red. masses --     6.0508                 6.1801                 6.2926
 Frc consts  --     8.5411                 8.7536                 8.9596
 IR Inten    --     3.3379                 7.9679                 4.1201

                    70                     71                     72
                     A                      A                      A
 Frequencies --  1644.0110              1645.2541              1646.7252
 Red. masses --     5.1660                 5.1251                 5.2176
 Frc consts  --     8.2265                 8.1738                 8.3360
 IR Inten    --     0.8716                 1.6779                 1.2040

                    73                     74                     75
                     A                      A                      A
 Frequencies --  3023.3699              3041.1094              3085.1274
 Red. masses --     1.0815                 1.0821                 1.0839
 Frc consts  --     5.8246                 5.8962                 6.0784
 IR Inten    --     1.4415                 2.7610                 2.4901

                    76                     77                     78
                     A                      A                      A
 Frequencies --  3211.2820              3212.0667              3213.8105
 Red. masses --     1.0876                 1.0864                 1.0871
 Frc consts  --     6.6079                 6.6039                 6.6156
 IR Inten    --     6.9417                 5.6889                 6.4723

                    79                     80                     81
                     A                      A                      A
 Frequencies --  3222.7244              3223.4867              3226.2263
 Red. masses --     1.0887                 1.0905                 1.0910
 Frc consts  --     6.6620                 6.6765                 6.6904
 IR Inten    --    16.1051                16.2615                19.2939

                    82                     83                     84
                     A                      A                      A
 Frequencies --  3239.9558              3243.9648              3245.7145
 Red. masses --     1.0993                 1.1013                 1.1008
 Frc consts  --     6.7992                 6.8283                 6.8327
 IR Inten    --    11.9444                15.0336                12.6436

                    85                     86                     87
                     A                      A                      A
 Frequencies --  3246.1398              3257.2722              3265.0697
 Red. masses --     1.1047                 1.1001                 1.0994
 Frc consts  --     6.8584                 6.8768                 6.9052
 IR Inten    --     9.1698                 5.8195                 6.6806

 - Thermochemistry -
 -------------------
 Temperature   298.150 Kelvin.  Pressure   1.00000 Atm.
 Atom     1 has atomic number  6 and mass  12.00000

 Molecular mass:   226.09114 amu.
 Principal axes and moments of inertia in atomic units:
                           1         2         3
     Eigenvalues --  2870.814223952.830935765.67920
           X            0.99999   0.00461  -0.00192
           Y           -0.00461   0.99999  -0.00086
           Z            0.00191   0.00087   1.00000
 This molecule is an asymmetric top.
 Rotational symmetry number  1.
 Warning -- assumption of classical behavior for rotation
           may cause significant error
 Rotational temperatures (Kelvin)      0.03017     0.02191     0.01502
 Rotational constants (GHZ):           0.62865     0.45657     0.31301
 Zero-point vibrational energy     661597.4 (Joules/Mol)
                                  158.12557 (Kcal/Mol)
 Warning -- explicit consideration of  18 degrees of freedom as
           vibrations may cause significant error
 Vibrational temperatures:     51.94    77.99    93.69   112.61   133.67
          (Kelvin)            148.74   189.98   241.37   258.12   338.26
                              384.63   410.86   587.49   622.13   637.90
                              808.17   813.57   825.37   957.88   984.16
                             1014.31  1041.31  1044.70  1051.19  1134.05
                             1152.89  1173.90  1174.40  1178.79  1180.94
                             1198.18  1207.64  1209.87  1349.43  1353.35
                             1357.40  1365.77  1368.21  1372.76  1377.77
                             1379.54  1382.04  1458.57  1476.62  1478.70
                             1480.40  1481.63  1489.01  1547.15  1572.71
                             1601.42  1613.87  1616.88  1626.08  1649.24
                             1651.54  1657.04  1765.31  1779.19  1796.83
                             1903.53  1908.90  1912.32  2039.33  2044.19
                             2050.10  2227.00  2230.81  2236.65  2365.36
                             2367.15  2369.27  4349.95  4375.47  4438.80
                             4620.31  4621.44  4623.95  4636.78  4637.87
                             4641.81  4661.57  4667.34  4669.85  4670.47
                             4686.48  4697.70

 Zero-point correction=                           0.251989 (Hartree/Particle)
 Thermal correction to Energy=                    0.266490
 Thermal correction to Enthalpy=                  0.267434
 Thermal correction to Gibbs Free Energy=         0.209142
 Sum of electronic and zero-point Energies=           -921.602573
 Sum of electronic and thermal Energies=              -921.588072
 Sum of electronic and thermal Enthalpies=            -921.587127
 Sum of electronic and thermal Free Energies=         -921.645420

                     E (Thermal)             CV                S
                      KCal/Mol        Cal/Mol-Kelvin    Cal/Mol-Kelvin
 Total                  167.225             56.606            122.687
 Electronic               0.000              0.000              0.000
 Translational            0.889              2.981             42.150
 Rotational               0.889              2.981             32.548
 Vibrational            165.448             50.644             47.989
 Vibration     1          0.594              1.982              5.462
 Vibration     2          0.596              1.976              4.658
 Vibration     3          0.597              1.971              4.296
 Vibration     4          0.600              1.964              3.934
 Vibration     5          0.602              1.954              3.598
 Vibration     6          0.605              1.946              3.390
 Vibration     7          0.612              1.921              2.916
 Vibration     8          0.624              1.882              2.460
 Vibration     9          0.629              1.868              2.335
 Vibration    10          0.655              1.787              1.840
 Vibration    11          0.672              1.733              1.613
 Vibration    12          0.683              1.700              1.500
 Vibration    13          0.773              1.452              0.933
 Vibration    14          0.793              1.400              0.851
 Vibration    15          0.803              1.376              0.816
 Vibration    16          0.917              1.114              0.520
 Vibration    17          0.921              1.106              0.513
 Vibration    18          0.930              1.088              0.497

 Normal termination of Gaussian 09 at Sat Oct  2 01:10:29 2021.
 Gaussian 09:  AM64L-G09RevA.02 11-Jun-2009

 ----------------------------------------------------------------------
 #p TD(NStates=10, Root=1) b3lyp/6-31G* volume pop=NPA density=current
 Geom=AllCheck Guess=Read
 ----------------------------------------------------------------------

 C1=CC(C=C1)P(C1C=CC=C1)C1C=CC=C1_conf_0
 ---------------------------------------
 Redundant internal coordinates taken from checkpoint file:
 C15H15P_3bc4_conf_0.chk
 Charge =  0 Multiplicity = 1

                         Standard orientation:
 ---------------------------------------------------------------------
 Center     Atomic      Atomic             Coordinates (Angstroms)
 Number     Number       Type             X           Y           Z
 ---------------------------------------------------------------------
      1          6           0        0.848703    3.323998   -0.296932
      2          6           0        0.366915    2.409076   -1.166872
      3          6           0       -0.468896    1.402499   -0.419039
      4          6           0       -0.396923    1.891008    1.000285
      5          6           0        0.372019    3.001792    1.051932
      6         15           0        0.075516   -0.380005   -0.839194
      7          6           0        1.326841   -0.780701    0.538526
      8          6           0        2.602750   -0.049947    0.224613
      9          6           0        3.561147   -0.949390   -0.095735
     10          6           0        3.015267   -2.300094    0.027606
     11          6           0        1.722466   -2.225686    0.419996
     12          6           0       -1.450898   -1.373098   -0.241135
     13          6           0       -2.624193   -1.092129   -1.139154
     14          6           0       -3.668116   -0.673054   -0.388408
     15          6           0       -3.278376   -0.679285    1.024184
     16          6           0       -1.995914   -1.096839    1.129459
     17          1           0        1.480350    4.171992   -0.541024
     18          1           0        0.538045    2.367957   -2.236199
     19          1           0       -1.510136    1.412670   -0.779843
     20          1           0       -0.919060    1.418883    1.822312
     21          1           0        0.599431    3.582825    1.940046
     22          1           0        0.901790   -0.510152    1.511652
     23          1           0        2.688161    1.028925    0.230417
     24          1           0        4.579599   -0.722172   -0.393157
     25          1           0        3.574962   -3.210387   -0.161650
     26          1           0        1.054616   -3.058192    0.608430
     27          1           0       -1.112004   -2.414581   -0.345568
     28          1           0       -2.595935   -1.207467   -2.216559
     29          1           0       -4.648692   -0.387352   -0.754971
     30          1           0       -3.931023   -0.395736    1.843595
     31          1           0       -1.429606   -1.226048    2.044475
 ---------------------------------------------------------------------

 SCF Done:  E(RB3LYP) =  -921.854561749     A.U. after    1 cycles

 Excitation energies and oscillator strengths:

 Excited State   1:      Singlet-A      3.9171 eV  316.52 nm  f=0.0013  <S**2>=0.000
      59 -> 61        -0.11580
      60 -> 61         0.68873
 This state for optimization and/or second-order correction.
 Total Energy, E(TD-HF/TD-KS) =  -921.710610048
 Copying the excited state density for this state as the 1-particle RhoCI density.

 Excited State   2:      Singlet-A      4.1490 eV  298.83 nm  f=0.0040  <S**2>=0.000
      57 -> 61        -0.10253
      59 -> 61         0.68145
      60 -> 61         0.12870

 Excited State   3:      Singlet-A      4.2720 eV  290.22 nm  f=0.0006  <S**2>=0.000
      58 -> 61         0.69568

 Excited State   4:      Singlet-A      4.6079 eV  269.07 nm  f=0.0148  <S**2>=0.000
      57 -> 61         0.67026
      59 -> 61         0.10411
      60 -> 62         0.10868

 Excited State   5:      Singlet-A      4.6852 eV  264.63 nm  f=0.0256  <S**2>=0.000
      57 -> 62         0.11899
      60 -> 62         0.65232
      60 -> 63         0.16647

 Excited State   6:      Singlet-A      4.8403 eV  256.15 nm  f=0.0140  <S**2>=0.000
      57 -> 62        -0.10730
      59 -> 62         0.52789
      59 -> 63        -0.20778
      60 -> 63         0.39038

 Excited State   7:      Singlet-A      4.8564 eV  255.30 nm  f=0.0274  <S**2>=0.000
      58 -> 62         0.27033
      59 -> 62        -0.40313
      60 -> 62        -0.13809
      60 -> 63         0.47538

 Excited State   8:      Singlet-A      5.0759 eV  244.26 nm  f=0.0377  <S**2>=0.000
      57 -> 62        -0.11980
      57 -> 63        -0.15267
      58 -> 62         0.61298
      59 -> 62         0.11735
      59 -> 63         0.12834
      60 -> 62         0.12604
      60 -> 63        -0.15330

 Excited State   9:      Singlet-A      5.1426 eV  241.09 nm  f=0.0255  <S**2>=0.000
      57 -> 62        -0.17551
      58 -> 63         0.44600
      59 -> 63         0.46024
      60 -> 63         0.16949

 Excited State  10:      Singlet-A      5.2924 eV  234.27 nm  f=0.0073  <S**2>=0.000
      57 -> 62         0.38614
      58 -> 63        -0.36353
      59 -> 62         0.11022
      59 -> 63         0.39564
      60 -> 63         0.15096

 The electronic state is 1-A.
 Alpha  occ. eigenvalues --  -77.09493 -10.20211 -10.19832 -10.19658 -10.18822
 Alpha  occ. eigenvalues --  -10.18794 -10.18711 -10.18654 -10.18485 -10.18356
 Alpha  occ. eigenvalues --  -10.18191 -10.18191 -10.18151 -10.18066 -10.18053
 Alpha  occ. eigenvalues --  -10.17975  -6.56015  -4.72283  -4.72267  -4.71745
 Alpha  occ. eigenvalues --   -0.86226  -0.85391  -0.84957  -0.73630  -0.70732
 Alpha  occ. eigenvalues --   -0.70256  -0.69988  -0.69432  -0.69293  -0.59039
 Alpha  occ. eigenvalues --   -0.54941  -0.54649  -0.53542  -0.53028  -0.52874
 Alpha  occ. eigenvalues --   -0.52435  -0.51192  -0.50811  -0.49134  -0.43008
 Alpha  occ. eigenvalues --   -0.41602  -0.40078  -0.39533  -0.39414  -0.38470
 Alpha  occ. eigenvalues --   -0.37371  -0.37051  -0.36785  -0.36701  -0.36030
 Alpha  occ. eigenvalues --   -0.35947  -0.34116  -0.33797  -0.31586  -0.28112
 Alpha  occ. eigenvalues --   -0.27575  -0.23694  -0.21931  -0.21574  -0.20848
 Alpha virt. eigenvalues --   -0.04005  -0.01357  -0.00537   0.04651   0.05244
 Alpha virt. eigenvalues --    0.08139   0.08949   0.09618   0.10605   0.11505
 Alpha virt. eigenvalues --    0.12898   0.13303   0.14188   0.15182   0.16299

 Mulliken atomic charges:
              1
     1  C   -0.116032
     2  C   -0.101679
     3  C   -0.381814
     4  C   -0.086838
     5  C   -0.102990
     6  P    0.540493
     7  C   -0.335575
     8  C   -0.185486
     9  C   -0.117216
    10  C   -0.114801
    11  C   -0.185045
    12  C   -0.357690
    13  C   -0.193125
    14  C   -0.130848
    15  C   -0.130967
    16  C   -0.180157
    17  H    0.158241
    18  H    0.180187
    19  H    0.221312
    20  H    0.184808
    21  H    0.164963
    22  H    0.158910
    23  H    0.119103
    24  H    0.114101
    25  H    0.117806
    26  H    0.127576
    27  H    0.172132
    28  H    0.121403
    29  H    0.110406
    30  H    0.112706
    31  H    0.116119
 Sum of Mulliken atomic charges =  -0.00000

 Dipole moment (field-independent basis, Debye):
    X=              0.4127    Y=              4.5894    Z=              0.3467  Tot=              4.6209
 Quadrupole moment (field-independent basis, Debye-Ang):
   XX=           -109.3558   YY=            -91.8627   ZZ=            -98.3256
   XY=              0.9470   XZ=             -1.4752   YZ=              1.1063

 Summary of Natural Population Analysis:

                                       Natural Population
                Natural  -----------------------------------------------
    Atom  No    Charge         Core      Valence    Rydberg      Total
 -----------------------------------------------------------------------
      C    1   -0.25570      1.99904     4.24201    0.01465     6.25570
      C    2   -0.11341      1.99905     4.09799    0.01636     6.11341
      C    3   -0.63892      1.99917     4.62168    0.01807     6.63892
      C    4   -0.11106      1.99905     4.09399    0.01802     6.11106
      C    5   -0.19650      1.99903     4.18353    0.01393     6.19650
      P    6    1.02380      9.99820     3.94038    0.03762    13.97620
      C    7   -0.57564      1.99917     4.55976    0.01672     6.57564
      C    8   -0.28113      1.99906     4.26436    0.01770     6.28113
      C    9   -0.25947      1.99901     4.24613    0.01433     6.25947
      C   10   -0.25508      1.99902     4.24180    0.01426     6.25508
      C   11   -0.28458      1.99905     4.26774    0.01780     6.28458
      C   12   -0.58783      1.99916     4.57168    0.01699     6.58783
      C   13   -0.29593      1.99905     4.27904    0.01785     6.29593
      C   14   -0.28602      1.99901     4.27232    0.01469     6.28602
      C   15   -0.26062      1.99901     4.24720    0.01441     6.26062
      C   16   -0.30576      1.99903     4.28756    0.01916     6.30576
      H   17    0.24942      0.00000     0.75002    0.00056     0.75058
      H   18    0.25470      0.00000     0.74461    0.00069     0.74530
      H   19    0.31195      0.00000     0.68453    0.00352     0.68805
      H   20    0.26049      0.00000     0.73819    0.00132     0.73951
      H   21    0.24938      0.00000     0.75004    0.00058     0.75062
      H   22    0.24947      0.00000     0.74520    0.00533     0.75053
      H   23    0.22828      0.00000     0.77085    0.00087     0.77172
      H   24    0.22917      0.00000     0.77014    0.00069     0.77083
      H   25    0.23156      0.00000     0.76776    0.00067     0.76844
      H   26    0.23252      0.00000     0.76655    0.00093     0.76748
      H   27    0.27127      0.00000     0.72488    0.00385     0.72873
      H   28    0.23201      0.00000     0.76719    0.00081     0.76799
      H   29    0.22897      0.00000     0.77036    0.00067     0.77103
      H   30    0.22899      0.00000     0.77030    0.00071     0.77101
      H   31    0.22567      0.00000     0.77326    0.00108     0.77433
 =======================================================================
   * Total *   -0.00000     39.98411    79.71103    0.30486   120.00000

 Normal termination of Gaussian 09 at Sat Oct  2 10:31:04 2021.
