 Gaussian 09, Revision A.02,

 -----------------------------------
 #p opt b3lyp/6-31G* scf=(xqc,tight)
 -----------------------------------

 --------------------------------
 COc1ccc(cc1)/C=C/c1ccccc1_conf_0
 --------------------------------
 Symbolic Z-matrix:
 Charge =  0 Multiplicity = 1

 SCF Done:  E(RB3LYP) =  -655.229052434     A.U. after   14 cycles
 SCF Done:  E(RB3LYP) =  -655.231694370     A.U. after   12 cycles
 SCF Done:  E(RB3LYP) =  -655.232454243     A.U. after   12 cycles
 SCF Done:  E(RB3LYP) =  -655.232832185     A.U. after   15 cycles
 SCF Done:  E(RB3LYP) =  -655.233015786     A.U. after   12 cycles
 SCF Done:  E(RB3LYP) =  -655.233105112     A.U. after   12 cycles
 SCF Done:  E(RB3LYP) =  -655.233112783     A.U. after   10 cycles
 SCF Done:  E(RB3LYP) =  -655.233115562     A.U. after   10 cycles
 SCF Done:  E(RB3LYP) =  -655.233117344     A.U. after   10 cycles
 SCF Done:  E(RB3LYP) =  -655.233118557     A.U. after   10 cycles
 SCF Done:  E(RB3LYP) =  -655.233118958     A.U. after   10 cycles
 SCF Done:  E(RB3LYP) =  -655.233119097     A.U. after   10 cycles
 SCF Done:  E(RB3LYP) =  -655.233119178     A.U. after    9 cycles
 SCF Done:  E(RB3LYP) =  -655.233119217     A.U. after    8 cycles
 SCF Done:  E(RB3LYP) =  -655.233119227     A.U. after    6 cycles
 SCF Done:  E(RB3LYP) =  -655.233119230     A.U. after    6 cycles
 Optimization completed.
    -- Stationary point found.
 Normal termination of Gaussian 09 at Tue Sep 28 22:53:16 2021.

 ----------------------------------------------------------------------
 #p freq b3lyp/6-31G* volume NMR pop=NPA density=current Geom=AllCheck
 Guess=Read
 ----------------------------------------------------------------------

 COc1ccc(cc1)/C=C/c1ccccc1_conf_0
 --------------------------------
 Redundant internal coordinates taken from checkpoint file:
 C15H14O_5067_conf_0.chk
 Charge =  0 Multiplicity = 1

 SCF Done:  E(RB3LYP) =  -655.233119230     A.U. after    1 cycles

  1  C    Isotropic =   137.3487   Anisotropy =    65.4091

  2  O    Isotropic =   233.9832   Anisotropy =    84.7726

  3  C    Isotropic =    39.1653   Anisotropy =   125.9644

  4  C    Isotropic =    86.4740   Anisotropy =   140.6372

  5  C    Isotropic =    63.9375   Anisotropy =   144.4771

  6  C    Isotropic =    66.8284   Anisotropy =   169.5285

  7  C    Isotropic =    71.7846   Anisotropy =   161.5252

  8  C    Isotropic =    77.5817   Anisotropy =   134.1215

  9  C    Isotropic =    68.6304   Anisotropy =   120.8169

 10  C    Isotropic =    70.5293   Anisotropy =   115.3250

 11  C    Isotropic =    59.5536   Anisotropy =   180.4237

 12  C    Isotropic =    65.7893   Anisotropy =   144.8775

 13  C    Isotropic =    67.9282   Anisotropy =   163.2627

 14  C    Isotropic =    69.9154   Anisotropy =   162.6946

 15  C    Isotropic =    68.1831   Anisotropy =   163.3156

 16  C    Isotropic =    73.9916   Anisotropy =   161.2528

 17  H    Isotropic =    28.3056   Anisotropy =     7.9789

 18  H    Isotropic =    28.6317   Anisotropy =     7.9390

 19  H    Isotropic =    28.6323   Anisotropy =     7.9371

 20  H    Isotropic =    25.8432   Anisotropy =     7.2905

 21  H    Isotropic =    25.3195   Anisotropy =     6.8903

 22  H    Isotropic =    24.5951   Anisotropy =     8.1386

 23  H    Isotropic =    25.4814   Anisotropy =     6.1491

 24  H    Isotropic =    25.4890   Anisotropy =     8.9404

 25  H    Isotropic =    25.6316   Anisotropy =     8.9616

 26  H    Isotropic =    25.3033   Anisotropy =     6.7524

 27  H    Isotropic =    25.0355   Anisotropy =     4.6722

 28  H    Isotropic =    25.2042   Anisotropy =     4.1355

 29  H    Isotropic =    25.0178   Anisotropy =     5.0459

 30  H    Isotropic =    24.6165   Anisotropy =     8.2595

  Exact polarizability: 357.954  -8.014 155.772  -0.031   0.051  57.900
 Approx polarizability: 490.443 -17.384 280.706  -0.101   0.077  88.610

                     1                      2                      3
                     A                      A                      A
 Frequencies --     3.2526                37.1762                64.1978
 Red. masses --     3.4482                 4.5872                 4.6173
 Frc consts  --     0.0000                 0.0037                 0.0112
 IR Inten    --     0.2966                 0.4655                 0.1016

                     4                      5                      6
                     A                      A                      A
 Frequencies --    67.7014                96.2029               175.6518
 Red. masses --     3.5106                 3.1675                 2.5276
 Frc consts  --     0.0095                 0.0173                 0.0459
 IR Inten    --     0.0290                 2.9428                 1.6432

                     7                      8                      9
                     A                      A                      A
 Frequencies --   184.1459               212.2591               238.9080
 Red. masses --     5.7120                 3.8642                 1.4025
 Frc consts  --     0.1141                 0.1026                 0.0472
 IR Inten    --     0.4449                 1.4429                 0.0686

                    10                     11                     12
                     A                      A                      A
 Frequencies --   264.6523               311.1391               375.9595
 Red. masses --     2.2716                 4.1114                 4.3484
 Frc consts  --     0.0937                 0.2345                 0.3621
 IR Inten    --     0.3543                 3.1539                 0.3015

                    13                     14                     15
                     A                      A                      A
 Frequencies --   414.1516               424.1624               436.9394
 Red. masses --     3.0013                 3.1422                 5.1985
 Frc consts  --     0.3033                 0.3331                 0.5847
 IR Inten    --     0.0235                 0.0059                 2.8564

                    16                     17                     18
                     A                      A                      A
 Frequencies --   481.3038               500.7978               541.1505
 Red. masses --     4.2714                 2.9120                 5.0538
 Frc consts  --     0.5830                 0.4303                 0.8720
 IR Inten    --     1.4405                 0.1547                39.1495

                    19                     20                     21
                     A                      A                      A
 Frequencies --   551.4407               628.2950               634.8129
 Red. masses --     2.5526                 5.9163                 6.4109
 Frc consts  --     0.4573                 1.3760                 1.5222
 IR Inten    --    12.5597                 0.8405                 0.0609

                    22                     23                     24
                     A                      A                      A
 Frequencies --   655.4209               702.6053               724.8044
 Red. masses --     6.8241                 2.0819                 2.8865
 Frc consts  --     1.7272                 0.6055                 0.8934
 IR Inten    --     1.2513                17.6177                 9.1633

                    25                     26                     27
                     A                      A                      A
 Frequencies --   769.3947               778.6993               818.8223
 Red. masses --     1.8682                 5.0623                 1.3146
 Frc consts  --     0.6516                 1.8086                 0.5193
 IR Inten    --    16.9084                 8.4782                12.1624

                    28                     29                     30
                     A                      A                      A
 Frequencies --   838.7250               848.5954               849.4617
 Red. masses --     1.5560                 5.3004                 1.3151
 Frc consts  --     0.6449                 2.2489                 0.5591
 IR Inten    --    38.4812                 1.0517                 6.2008

                    31                     32                     33
                     A                      A                      A
 Frequencies --   880.5427               889.0681               921.3986
 Red. masses --     1.7837                 4.1672                 1.5181
 Frc consts  --     0.8148                 1.9407                 0.7594
 IR Inten    --     2.7848                 2.1133                 0.8049

                    34                     35                     36
                     A                      A                      A
 Frequencies --   942.1343               955.6906               961.1723
 Red. masses --     1.3825                 1.2977                 1.3514
 Frc consts  --     0.7230                 0.6983                 0.7356
 IR Inten    --     0.1450                 1.7430                 0.1299

                    37                     38                     39
                     A                      A                      A
 Frequencies --   987.8880              1009.7372              1014.5579
 Red. masses --     1.2394                 1.1272                 5.9701
 Frc consts  --     0.7126                 0.6771                 3.6206
 IR Inten    --     2.4010                26.7426                 0.1195

                    40                     41                     42
                     A                      A                      A
 Frequencies --  1027.5750              1059.1488              1078.5215
 Red. masses --     2.7674                 2.2332                 6.0425
 Frc consts  --     1.7217                 1.4760                 4.1412
 IR Inten    --     0.2365                 1.7846                71.0483

                    43                     44                     45
                     A                      A                      A
 Frequencies --  1114.4073              1147.5060              1183.6355
 Red. masses --     1.6279                 1.3565                 1.2714
 Frc consts  --     1.1912                 1.0524                 1.0495
 IR Inten    --     4.7160                 7.4489                 0.7690

                    46                     47                     48
                     A                      A                      A
 Frequencies --  1192.6827              1211.9964              1217.0318
 Red. masses --     1.0972                 1.1811                 1.3531
 Frc consts  --     0.9196                 1.0222                 1.1809
 IR Inten    --     0.1702                86.4667                 4.6640

                    49                     50                     51
                     A                      A                      A
 Frequencies --  1218.2221              1226.0017              1263.7923
 Red. masses --     1.1954                 2.7072                 1.6321
 Frc consts  --     1.0453                 2.3975                 1.5358
 IR Inten    --     0.9674                 1.9565                18.1677

                    52                     53                     54
                     A                      A                      A
 Frequencies --  1300.5115              1310.6428              1344.3242
 Red. masses --     6.3856                 2.5751                 1.5971
 Frc consts  --     6.3633                 2.6062                 1.7005
 IR Inten    --   221.0450               187.0098                 1.4264

                    55                     56                     57
                     A                      A                      A
 Frequencies --  1355.2735              1369.0228              1379.2606
 Red. masses --     2.9337                 2.0077                 1.3437
 Frc consts  --     3.1748                 2.2170                 1.5061
 IR Inten    --    59.2285                 0.6352                 0.6175

                    58                     59                     60
                     A                      A                      A
 Frequencies --  1391.5340              1472.1278              1497.5176
 Red. masses --     2.1415                 3.0701                 1.5906
 Frc consts  --     2.4431                 3.9200                 2.1016
 IR Inten    --     5.0092                16.5576                12.9084

                    61                     62                     63
                     A                      A                      A
 Frequencies --  1498.8129              1519.6149              1533.4993
 Red. masses --     1.5318                 1.0483                 1.0609
 Frc consts  --     2.0274                 1.4263                 1.4700
 IR Inten    --    17.5721                 5.5236                55.8660

                    64                     65                     66
                     A                      A                      A
 Frequencies --  1545.7817              1566.0808              1620.4778
 Red. masses --     2.1748                 2.4361                 6.0596
 Frc consts  --     3.0617                 3.5202                 9.3752
 IR Inten    --     4.8997               151.5038                27.3926

                    67                     68                     69
                     A                      A                      A
 Frequencies --  1633.2373              1656.6494              1671.1900
 Red. masses --     5.0529                 5.2672                 5.6246
 Frc consts  --     7.9413                 8.5170                 9.2553
 IR Inten    --     1.1945                83.3250                76.9817

                    70                     71                     72
                     A                      A                      A
 Frequencies --  1704.0323              3025.6111              3084.6487
 Red. masses --     5.0509                 1.0347                 1.1068
 Frc consts  --     8.6413                 5.5809                 6.2047
 IR Inten    --     0.3954                80.6355                43.6752

                    73                     74                     75
                     A                      A                      A
 Frequencies --  3152.9664              3158.4488              3160.8652
 Red. masses --     1.0898                 1.0997                 1.0852
 Frc consts  --     6.3830                 6.4636                 6.3879
 IR Inten    --     0.1970                31.7058                30.7268

                    76                     77                     78
                     A                      A                      A
 Frequencies --  3176.0113              3181.6136              3182.9550
 Red. masses --     1.0855                 1.0886                 1.0866
 Frc consts  --     6.4514                 6.4928                 6.4861
 IR Inten    --    12.8199                16.6499                 1.2581

                    79                     80                     81
                     A                      A                      A
 Frequencies --  3192.9069              3197.7447              3201.9711
 Red. masses --     1.0908                 1.0869                 1.0928
 Frc consts  --     6.5520                 6.5480                 6.6014
 IR Inten    --    16.6058                 7.1515                39.3196

                    82                     83                     84
                     A                      A                      A
 Frequencies --  3210.4833              3216.4531              3225.9134
 Red. masses --     1.0976                 1.0941                 1.0913
 Frc consts  --     6.6653                 6.6691                 6.6910
 IR Inten    --    32.0340                11.8471                19.0011

 - Thermochemistry -
 -------------------
 Temperature   298.150 Kelvin.  Pressure   1.00000 Atm.
 Atom     1 has atomic number  6 and mass  12.00000

 Molecular mass:   210.10447 amu.
 Principal axes and moments of inertia in atomic units:
                           1         2         3
     Eigenvalues --   707.81776********************
           X            0.99999  -0.00479   0.00003
           Y            0.00479   0.99999   0.00001
           Z           -0.00003  -0.00001   1.00000
 This molecule is an asymmetric top.
 Rotational symmetry number  1.
 Warning -- assumption of classical behavior for rotation
           may cause significant error
 Rotational temperatures (Kelvin)      0.12237     0.00793     0.00746
 Rotational constants (GHZ):           2.54973     0.16527     0.15536
 Zero-point vibrational energy     651197.5 (Joules/Mol)
                                  155.63994 (Kcal/Mol)
 Warning -- explicit consideration of  19 degrees of freedom as
           vibrations may cause significant error
 Vibrational temperatures:      4.68    53.49    92.37    97.41   138.41
          (Kelvin)            252.72   264.94   305.39   343.73   380.78
                              447.66   540.92   595.87   610.27   628.66
                              692.49   720.54   778.59   793.40   903.98
                              913.35   943.00  1010.89  1042.83  1106.99
                             1120.37  1178.10  1206.74  1220.94  1222.18
                             1266.90  1279.17  1325.69  1355.52  1375.02
                             1382.91  1421.35  1452.78  1459.72  1478.45
                             1523.88  1551.75  1603.38  1651.00  1702.99
                             1716.00  1743.79  1751.04  1752.75  1763.94
                             1818.31  1871.14  1885.72  1934.18  1949.93
                             1969.72  1984.45  2002.10  2118.06  2154.59
                             2156.45  2186.38  2206.36  2224.03  2253.24
                             2331.50  2349.86  2383.55  2404.47  2451.72
                             4353.17  4438.12  4536.41  4544.30  4547.77
                             4569.57  4577.63  4579.56  4593.88  4600.84
                             4606.92  4619.16  4627.75  4641.36

 Zero-point correction=                           0.248028 (Hartree/Particle)
 Thermal correction to Energy=                    0.261981
 Thermal correction to Enthalpy=                  0.262926
 Thermal correction to Gibbs Free Energy=         0.203549
 Sum of electronic and zero-point Energies=           -654.985091
 Sum of electronic and thermal Energies=              -654.971138
 Sum of electronic and thermal Enthalpies=            -654.970194
 Sum of electronic and thermal Free Energies=         -655.029570

                     E (Thermal)             CV                S
                      KCal/Mol        Cal/Mol-Kelvin    Cal/Mol-Kelvin
 Total                  164.396             53.712            124.968
 Electronic               0.000              0.000              0.000
 Translational            0.889              2.981             41.931
 Rotational               0.889              2.981             32.862
 Vibrational            162.618             47.750             50.175
 Vibration     1          0.592              1.987             10.243
 Vibration     2          0.594              1.982              5.404
 Vibration     3          0.597              1.971              4.324
 Vibration     4          0.598              1.970              4.219
 Vibration     5          0.603              1.952              3.530
 Vibration     6          0.628              1.872              2.374
 Vibration     7          0.631              1.861              2.286
 Vibration     8          0.643              1.822              2.024
 Vibration     9          0.657              1.781              1.811
 Vibration    10          0.671              1.738              1.631
 Vibration    11          0.700              1.652              1.356
 Vibration    12          0.747              1.521              1.055
 Vibration    13          0.778              1.440              0.912
 Vibration    14          0.786              1.418              0.878
 Vibration    15          0.797              1.390              0.836
 Vibration    16          0.838              1.292              0.707
 Vibration    17          0.856              1.248              0.656
 Vibration    18          0.896              1.159              0.563
 Vibration    19          0.907              1.137              0.541

 Normal termination of Gaussian 09 at Tue Sep 28 23:39:53 2021.
 Gaussian 09:  AM64L-G09RevA.02 11-Jun-2009

 ----------------------------------------------------------------------
 #p TD(NStates=10, Root=1) b3lyp/6-31G* volume pop=NPA density=current
 Geom=AllCheck Guess=Read
 ----------------------------------------------------------------------

 COc1ccc(cc1)/C=C/c1ccccc1_conf_0
 --------------------------------
 Redundant internal coordinates taken from checkpoint file:
 C15H14O_5067_conf_0.chk
 Charge =  0 Multiplicity = 1

                         Standard orientation:
 ---------------------------------------------------------------------
 Center     Atomic      Atomic             Coordinates (Angstroms)
 Number     Number       Type             X           Y           Z
 ---------------------------------------------------------------------
      1          6           0        6.058970   -0.483782    0.005849
      2          8           0        5.116967    0.577000   -0.001720
      3          6           0        3.789916    0.261809   -0.001255
      4          6           0        3.274509   -1.038303    0.005545
      5          6           0        1.892178   -1.228673    0.005218
      6          6           0        0.987007   -0.155646   -0.001492
      7          6           0        1.535721    1.145922   -0.008678
      8          6           0        2.904185    1.353103   -0.008495
      9          6           0       -0.449259   -0.435008   -0.000925
     10          6           0       -1.457685    0.461645   -0.000314
     11          6           0       -2.895385    0.176487   -0.000112
     12          6           0       -3.799241    1.255989    0.008007
     13          6           0       -5.177329    1.049896    0.008931
     14          6           0       -5.691353   -0.247185    0.001533
     15          6           0       -4.809741   -1.332748   -0.006925
     16          6           0       -3.434137   -1.125955   -0.007869
     17          1           0        7.042685   -0.010821    0.004320
     18          1           0        5.960153   -1.117860   -0.885226
     19          1           0        5.957737   -1.107126    0.904189
     20          1           0        3.930158   -1.901532    0.011051
     21          1           0        1.504955   -2.245187    0.010605
     22          1           0        0.878980    2.010770   -0.014974
     23          1           0        3.320573    2.355740   -0.014151
     24          1           0       -0.694857   -1.496361   -0.000194
     25          1           0       -1.214363    1.523370    0.000954
     26          1           0       -3.407303    2.270756    0.013876
     27          1           0       -5.849690    1.903964    0.015397
     28          1           0       -6.765189   -0.413004    0.002114
     29          1           0       -5.198632   -2.347874   -0.013098
     30          1           0       -2.771076   -1.986133   -0.015212
 ---------------------------------------------------------------------

 SCF Done:  E(RB3LYP) =  -655.233119230     A.U. after    2 cycles

 Excitation energies and oscillator strengths:

 Excited State   1:      Singlet-A      3.8632 eV  320.93 nm  f=1.1006  <S**2>=0.000
      56 -> 57         0.70384
 This state for optimization and/or second-order correction.
 Total Energy, E(TD-HF/TD-KS) =  -655.091148005
 Copying the excited state density for this state as the 1-particle RhoCI density.

 Excited State   2:      Singlet-A      4.4942 eV  275.88 nm  f=0.0357  <S**2>=0.000
      53 -> 57        -0.31552
      56 -> 58         0.61501

 Excited State   3:      Singlet-A      4.5689 eV  271.36 nm  f=0.0092  <S**2>=0.000
      54 -> 57        -0.41491
      56 -> 59         0.55286

 Excited State   4:      Singlet-A      4.9591 eV  250.01 nm  f=0.0250  <S**2>=0.000
      55 -> 57         0.60096
      56 -> 60         0.34429

 Excited State   5:      Singlet-A      5.1550 eV  240.51 nm  f=0.0692  <S**2>=0.000
      54 -> 57         0.52214
      55 -> 57        -0.10113
      55 -> 59        -0.14185
      56 -> 59         0.42574

 Excited State   6:      Singlet-A      5.2598 eV  235.72 nm  f=0.0637  <S**2>=0.000
      53 -> 57         0.60671
      55 -> 58         0.14910
      56 -> 58         0.31098

 Excited State   7:      Singlet-A      5.6290 eV  220.26 nm  f=0.0012  <S**2>=0.000
      52 -> 57        -0.10287
      53 -> 58         0.18833
      54 -> 59        -0.14292
      55 -> 57        -0.29462
      56 -> 60         0.56797

 Excited State   8:      Singlet-A      5.9969 eV  206.75 nm  f=0.0203  <S**2>=0.000
      53 -> 57        -0.14274
      53 -> 60         0.18242
      55 -> 58         0.64010

 Excited State   9:      Singlet-A      6.1882 eV  200.36 nm  f=0.0443  <S**2>=0.000
      52 -> 57         0.26468
      54 -> 57         0.13677
      54 -> 58         0.26902
      54 -> 60         0.27277
      55 -> 59         0.48257

 Excited State  10:      Singlet-A      6.2236 eV  199.22 nm  f=0.0154  <S**2>=0.000
      52 -> 57         0.56828
      54 -> 58        -0.11584
      54 -> 59        -0.23093
      54 -> 60        -0.11732
      55 -> 59        -0.18404
      56 -> 61        -0.20133

 The electronic state is 1-A.
 Alpha  occ. eigenvalues --  -19.18055 -10.24827 -10.24335 -10.19488 -10.19221
 Alpha  occ. eigenvalues --  -10.19109 -10.18993 -10.18847 -10.18823 -10.18638
 Alpha  occ. eigenvalues --  -10.18585 -10.18550 -10.18536 -10.18504 -10.18473
 Alpha  occ. eigenvalues --  -10.18452  -1.06615  -0.85603  -0.84946  -0.79384
 Alpha  occ. eigenvalues --   -0.76002  -0.74723  -0.73970  -0.72082  -0.68807
 Alpha  occ. eigenvalues --   -0.62402  -0.61191  -0.60005  -0.58281  -0.55004
 Alpha  occ. eigenvalues --   -0.53342  -0.51123  -0.48259  -0.47938  -0.47034
 Alpha  occ. eigenvalues --   -0.45564  -0.44912  -0.43644  -0.42613  -0.41920
 Alpha  occ. eigenvalues --   -0.41472  -0.40545  -0.38546  -0.38142  -0.36695
 Alpha  occ. eigenvalues --   -0.36267  -0.35305  -0.33922  -0.33396  -0.33292
 Alpha  occ. eigenvalues --   -0.32434  -0.29121  -0.25169  -0.24603  -0.24285
 Alpha  occ. eigenvalues --   -0.19029
 Alpha virt. eigenvalues --   -0.04272   0.00012   0.00539   0.02549   0.08360
 Alpha virt. eigenvalues --    0.09202   0.09750   0.09998   0.10661   0.13347
 Alpha virt. eigenvalues --    0.14159   0.14715   0.15334   0.16436   0.16551

 Mulliken atomic charges:
              1
     1  C   -0.224962
     2  O   -0.479428
     3  C    0.368139
     4  C   -0.185222
     5  C   -0.201256
     6  C    0.201267
     7  C   -0.193208
     8  C   -0.161731
     9  C   -0.216821
    10  C   -0.193242
    11  C    0.173393
    12  C   -0.189085
    13  C   -0.136456
    14  C   -0.141977
    15  C   -0.126481
    16  C   -0.193749
    17  H    0.179485
    18  H    0.162690
    19  H    0.162701
    20  H    0.140510
    21  H    0.140056
    22  H    0.138942
    23  H    0.148212
    24  H    0.120685
    25  H    0.120331
    26  H    0.116738
    27  H    0.118784
    28  H    0.116918
    29  H    0.119439
    30  H    0.115330
 Sum of Mulliken atomic charges =  -0.00000

 Dipole moment (field-independent basis, Debye):
    X=              5.1075    Y=             -1.0279    Z=              0.0085  Tot=              5.2100
 Quadrupole moment (field-independent basis, Debye-Ang):
   XX=            -74.8035   YY=            -84.6680   ZZ=            -99.4370
   XY=             -7.1025   XZ=              0.0476   YZ=             -0.0011

 Summary of Natural Population Analysis:

                                       Natural Population
                Natural  -----------------------------------------------
    Atom  No    Charge         Core      Valence    Rydberg      Total
 -----------------------------------------------------------------------
      C    1   -0.32218      1.99943     4.30857    0.01418     6.32218
      O    2   -0.48079      1.99975     6.46910    0.01195     8.48079
      C    3    0.32117      1.99879     3.65767    0.02237     5.67883
      C    4   -0.30517      1.99903     4.29356    0.01257     6.30517
      C    5   -0.18735      1.99908     4.17463    0.01364     6.18735
      C    6   -0.02907      1.99903     4.01406    0.01598     6.02907
      C    7   -0.22895      1.99906     4.21575    0.01413     6.22895
      C    8   -0.24676      1.99905     4.23308    0.01464     6.24676
      C    9   -0.26800      1.99907     4.25314    0.01579     6.26800
      C   10   -0.17905      1.99907     4.16462    0.01537     6.17905
      C   11   -0.09955      1.99902     4.08421    0.01632     6.09955
      C   12   -0.19719      1.99907     4.18522    0.01290     6.19719
      C   13   -0.25145      1.99910     4.23754    0.01480     6.25145
      C   14   -0.25231      1.99909     4.23769    0.01553     6.25231
      C   15   -0.22835      1.99911     4.21505    0.01419     6.22835
      C   16   -0.23653      1.99905     4.22326    0.01422     6.23653
      H   17    0.23369      0.00000     0.76575    0.00056     0.76631
      H   18    0.20905      0.00000     0.78895    0.00200     0.79095
      H   19    0.20906      0.00000     0.78894    0.00200     0.79094
      H   20    0.24158      0.00000     0.75754    0.00088     0.75842
      H   21    0.23842      0.00000     0.76040    0.00117     0.76158
      H   22    0.23780      0.00000     0.76097    0.00123     0.76220
      H   23    0.25036      0.00000     0.74841    0.00123     0.74964
      H   24    0.21768      0.00000     0.78089    0.00143     0.78232
      H   25    0.21368      0.00000     0.78472    0.00160     0.78632
      H   26    0.22506      0.00000     0.77367    0.00127     0.77494
      H   27    0.23160      0.00000     0.76746    0.00094     0.76840
      H   28    0.22906      0.00000     0.76988    0.00106     0.77094
      H   29    0.23146      0.00000     0.76757    0.00097     0.76854
      H   30    0.22304      0.00000     0.77563    0.00133     0.77696
 =======================================================================
   * Total *   -0.00000     31.98579    79.75795    0.25626   112.00000

 Normal termination of Gaussian 09 at Wed Sep 29 03:32:00 2021.
