 Gaussian 09, Revision A.02,

 -----------------------------------
 #p opt b3lyp/6-31G* scf=(xqc,tight)
 -----------------------------------

 -----------------------------------
 COc1ccc2c(c1)ccc(c2)c1ccccn1_conf_0
 -----------------------------------
 Symbolic Z-matrix:
 Charge =  0 Multiplicity = 1

 SCF Done:  E(RB3LYP) =  -747.505599330     A.U. after   14 cycles
 SCF Done:  E(RB3LYP) =  -747.510643847     A.U. after   13 cycles
 SCF Done:  E(RB3LYP) =  -747.511080619     A.U. after   12 cycles
 SCF Done:  E(RB3LYP) =  -747.511147886     A.U. after   11 cycles
 SCF Done:  E(RB3LYP) =  -747.511174492     A.U. after   11 cycles
 SCF Done:  E(RB3LYP) =  -747.511181797     A.U. after   10 cycles
 SCF Done:  E(RB3LYP) =  -747.511183229     A.U. after    9 cycles
 SCF Done:  E(RB3LYP) =  -747.511183464     A.U. after    8 cycles
 Optimization completed.
    -- Stationary point found.
 Normal termination of Gaussian 09 at Tue Sep 28 16:50:56 2021.

 ----------------------------------------------------------------------
 #p freq b3lyp/6-31G* volume NMR pop=NPA density=current Geom=AllCheck
 Guess=Read
 ----------------------------------------------------------------------

 COc1ccc2c(c1)ccc(c2)c1ccccn1_conf_0
 -----------------------------------
 Redundant internal coordinates taken from checkpoint file:
 C16H13NO_d1d1_conf_0.chk
 Charge =  0 Multiplicity = 1

 SCF Done:  E(RB3LYP) =  -747.511183464     A.U. after    1 cycles

  1  C    Isotropic =   137.2498   Anisotropy =    65.3465

  2  O    Isotropic =   238.2341   Anisotropy =    73.4335

  3  C    Isotropic =    40.3805   Anisotropy =   122.9842

  4  C    Isotropic =    84.5258   Anisotropy =   144.1729

  5  C    Isotropic =    64.1083   Anisotropy =   146.6626

  6  C    Isotropic =    67.5556   Anisotropy =   188.7699

  7  C    Isotropic =    61.7502   Anisotropy =   194.2489

  8  C    Isotropic =    82.5256   Anisotropy =   112.1269

  9  C    Isotropic =    68.9080   Anisotropy =   138.5140

 10  C    Isotropic =    72.1051   Anisotropy =   156.3343

 11  C    Isotropic =    62.7461   Anisotropy =   156.3685

 12  C    Isotropic =    66.7277   Anisotropy =   153.8100

 13  C    Isotropic =    39.0069   Anisotropy =   164.4191

 14  C    Isotropic =    77.1291   Anisotropy =   154.4271

 15  C    Isotropic =    60.8295   Anisotropy =   178.8111

 16  C    Isotropic =    75.5456   Anisotropy =   155.1079

 17  C    Isotropic =    46.4314   Anisotropy =   151.7254

 18  N    Isotropic =   -49.3418   Anisotropy =   512.4645

 19  H    Isotropic =    28.2072   Anisotropy =     8.2377

 20  H    Isotropic =    28.4852   Anisotropy =     8.2765

 21  H    Isotropic =    28.4788   Anisotropy =     8.3079

 22  H    Isotropic =    25.3467   Anisotropy =     8.0358

 23  H    Isotropic =    24.3966   Anisotropy =     7.6941

 24  H    Isotropic =    25.2219   Anisotropy =     8.0591

 25  H    Isotropic =    24.6736   Anisotropy =     7.5942

 26  H    Isotropic =    24.4430   Anisotropy =     8.6533

 27  H    Isotropic =    23.2219   Anisotropy =    10.0666

 28  H    Isotropic =    24.6430   Anisotropy =     9.6843

 29  H    Isotropic =    24.7559   Anisotropy =     5.2063

 30  H    Isotropic =    25.3649   Anisotropy =     4.4893

 31  H    Isotropic =    23.5147   Anisotropy =     5.9466

  Exact polarizability: 354.046   8.084 174.202   0.846   1.515  64.473
 Approx polarizability: 503.720  17.842 325.432   1.942   3.201 101.958

                     1                      2                      3
                     A                      A                      A
 Frequencies --    28.7906                42.3295                74.8435
 Red. masses --     4.2051                 4.3684                 3.6940
 Frc consts  --     0.0021                 0.0046                 0.0122
 IR Inten    --     2.4331                 0.3932                 1.8415

                     4                      5                      6
                     A                      A                      A
 Frequencies --    97.3414               136.3209               184.1034
 Red. masses --     4.9345                 4.9387                 3.0574
 Frc consts  --     0.0275                 0.0541                 0.0611
 IR Inten    --     1.8167                 3.2087                 0.1730

                     7                      8                      9
                     A                      A                      A
 Frequencies --   206.4178               224.3401               249.7614
 Red. masses --     3.4629                 2.7442                 4.4895
 Frc consts  --     0.0869                 0.0814                 0.1650
 IR Inten    --     0.1905                 0.3095                 0.2681

                    10                     11                     12
                     A                      A                      A
 Frequencies --   259.8736               327.4510               363.3580
 Red. masses --     1.7333                 4.2363                 4.7228
 Frc consts  --     0.0690                 0.2676                 0.3674
 IR Inten    --     0.2998                 3.2827                 0.4900

                    13                     14                     15
                     A                      A                      A
 Frequencies --   414.1977               417.9460               426.4631
 Red. masses --     3.6356                 3.4511                 5.4653
 Frc consts  --     0.3675                 0.3552                 0.5856
 IR Inten    --     2.8236                 0.5917                 1.0242

                    16                     17                     18
                     A                      A                      A
 Frequencies --   474.8353               487.6235               513.8680
 Red. masses --     4.5224                 2.7041                 3.5053
 Frc consts  --     0.6008                 0.3788                 0.5454
 IR Inten    --     1.3344                 7.3437                 1.8671

                    19                     20                     21
                     A                      A                      A
 Frequencies --   533.5413               570.3743               594.3231
 Red. masses --     6.6054                 4.7530                 2.7017
 Frc consts  --     1.1079                 0.9110                 0.5622
 IR Inten    --     0.3724                33.4560                 0.6786

                    22                     23                     24
                     A                      A                      A
 Frequencies --   626.1251               652.0009               676.2500
 Red. masses --     7.3752                 6.9494                 3.5982
 Frc consts  --     1.7035                 1.7406                 0.9695
 IR Inten    --     1.6526                 1.2144                 0.2040

                    25                     26                     27
                     A                      A                      A
 Frequencies --   707.5208               756.6334               761.1744
 Red. masses --     6.2954                 1.7597                 6.0611
 Frc consts  --     1.8567                 0.5935                 2.0691
 IR Inten    --     0.5600                 8.3236                 9.7644

                    28                     29                     30
                     A                      A                      A
 Frequencies --   764.8881               795.0949               817.3660
 Red. masses --     3.1924                 1.8414                 1.4606
 Frc consts  --     1.1004                 0.6859                 0.5749
 IR Inten    --     0.6214                42.5437                22.7123

                    31                     32                     33
                     A                      A                      A
 Frequencies --   822.7445               833.2913               885.9357
 Red. masses --     4.0439                 1.9320                 1.5482
 Frc consts  --     1.6128                 0.7904                 0.7160
 IR Inten    --     1.5645                 5.5842                28.4425

                    34                     35                     36
                     A                      A                      A
 Frequencies --   897.5801               924.7368               938.6080
 Red. masses --     1.3593                 5.4109                 1.3411
 Frc consts  --     0.6452                 2.7262                 0.6961
 IR Inten    --     4.1298                 8.3612                 6.3787

                    37                     38                     39
                     A                      A                      A
 Frequencies --   960.0212               962.7157               974.7205
 Red. masses --     1.3274                 1.3777                 3.8888
 Frc consts  --     0.7208                 0.7523                 2.1768
 IR Inten    --     3.9076                 3.2482                 0.5005

                    40                     41                     42
                     A                      A                      A
 Frequencies --   975.6143               999.8271              1008.3911
 Red. masses --     1.4328                 1.2856                 6.7799
 Frc consts  --     0.8035                 0.7572                 4.0619
 IR Inten    --     0.1658                 0.0382                 2.9810

                    43                     44                     45
                     A                      A                      A
 Frequencies --  1059.9293              1080.1916              1091.0716
 Red. masses --     3.3152                 3.4837                 1.9857
 Frc consts  --     2.1944                 2.3950                 1.3927
 IR Inten    --     0.4203                54.7428                 0.2929

                    46                     47                     48
                     A                      A                      A
 Frequencies --  1128.6544              1175.9246              1182.8720
 Red. masses --     1.5551                 1.4985                 1.2676
 Frc consts  --     1.1672                 1.2209                 1.0450
 IR Inten    --     3.3356                34.4144                 0.6977

                    49                     50                     51
                     A                      A                      A
 Frequencies --  1187.9219              1198.8274              1205.9995
 Red. masses --     1.2001                 1.6988                 1.3253
 Frc consts  --     0.9978                 1.4385                 1.1357
 IR Inten    --     1.9135                66.8505                39.1041

                    52                     53                     54
                     A                      A                      A
 Frequencies --  1215.4640              1243.6928              1296.4572
 Red. masses --     1.5028                 1.7115                 1.7230
 Frc consts  --     1.3081                 1.5597                 1.7063
 IR Inten    --    10.3657               137.9359                 5.6528

                    55                     56                     57
                     A                      A                      A
 Frequencies --  1300.7022              1308.3991              1318.8920
 Red. masses --     3.2738                 3.2500                 2.3961
 Frc consts  --     3.2633                 3.2781                 2.4557
 IR Inten    --     4.7184                31.5722               354.3021

                    58                     59                     60
                     A                      A                      A
 Frequencies --  1346.8059              1385.9333              1413.2043
 Red. masses --     2.3170                 2.2132                 3.8783
 Frc consts  --     2.4762                 2.5048                 4.5635
 IR Inten    --     2.9251                 8.1146                16.1894

                    61                     62                     63
                     A                      A                      A
 Frequencies --  1423.2393              1456.1568              1481.0162
 Red. masses --     3.6113                 4.1231                 2.2672
 Frc consts  --     4.3099                 5.1510                 2.9300
 IR Inten    --     0.8178                 1.2779                21.7123

                    64                     65                     66
                     A                      A                      A
 Frequencies --  1500.0845              1512.8082              1521.9512
 Red. masses --     1.2765                 2.2654                 1.0486
 Frc consts  --     1.6924                 3.0546                 1.4311
 IR Inten    --    33.5154                63.2434                 5.1859

                    67                     68                     69
                     A                      A                      A
 Frequencies --  1532.7268              1541.5655              1559.7841
 Red. masses --     1.1589                 1.9687                 3.4810
 Frc consts  --     1.6041                 2.7565                 4.9898
 IR Inten    --   127.6073                62.2604                25.6245

                    70                     71                     72
                     A                      A                      A
 Frequencies --  1613.2481              1627.5474              1644.6140
 Red. masses --     5.8331                 6.0058                 5.3648
 Frc consts  --     8.9444                 9.3731                 8.5493
 IR Inten    --    11.6808                17.1790               158.0072

                    73                     74                     75
                     A                      A                      A
 Frequencies --  1664.3728              1686.3320              3025.4967
 Red. masses --     5.6865                 6.3287                 1.0349
 Frc consts  --     9.2810                10.6035                 5.5811
 IR Inten    --    49.6985               114.2815                82.7050

                    76                     77                     78
                     A                      A                      A
 Frequencies --  3084.7578              3156.1088              3164.0071
 Red. masses --     1.1069                 1.0995                 1.0891
 Frc consts  --     6.2057                 6.4530                 6.4241
 IR Inten    --    44.4746                32.5936                36.8829

                    79                     80                     81
                     A                      A                      A
 Frequencies --  3182.2839              3187.3290              3190.8567
 Red. masses --     1.0877                 1.0892                 1.0883
 Frc consts  --     6.4897                 6.5192                 6.5283
 IR Inten    --     9.9694                 8.2082                16.9561

                    82                     83                     84
                     A                      A                      A
 Frequencies --  3204.4893              3207.3358              3214.4174
 Red. masses --     1.0907                 1.0930                 1.0950
 Frc consts  --     6.5991                 6.6246                 6.6663
 IR Inten    --    11.5559                 9.4126                28.9866

                    85                     86                     87
                     A                      A                      A
 Frequencies --  3217.7648              3225.6973              3226.6835
 Red. masses --     1.0899                 1.0924                 1.0918
 Frc consts  --     6.6486                 6.6971                 6.6971
 IR Inten    --     0.3555                20.6336                13.3023

 - Thermochemistry -
 -------------------
 Temperature   298.150 Kelvin.  Pressure   1.00000 Atm.
 Atom     1 has atomic number  6 and mass  12.00000

 Molecular mass:   235.09971 amu.
 Principal axes and moments of inertia in atomic units:
                           1         2         3
     Eigenvalues --  1063.27001********************
           X            0.99998   0.00689   0.00013
           Y           -0.00689   0.99998  -0.00043
           Z           -0.00014   0.00043   1.00000
 This molecule is an asymmetric top.
 Rotational symmetry number  1.
 Warning -- assumption of classical behavior for rotation
           may cause significant error
 Rotational temperatures (Kelvin)      0.08146     0.00823     0.00750
 Rotational constants (GHZ):           1.69735     0.17152     0.15635
 Zero-point vibrational energy     655332.0 (Joules/Mol)
                                  156.62812 (Kcal/Mol)
 Warning -- explicit consideration of  21 degrees of freedom as
           vibrations may cause significant error
 Vibrational temperatures:     41.42    60.90   107.68   140.05   196.14
          (Kelvin)            264.88   296.99   322.78   359.35   373.90
                              471.13   522.79   595.94   601.33   613.58
                              683.18   701.58   739.34   767.65   820.64
                              855.10   900.85   938.08   972.97  1017.96
                             1088.63  1095.16  1100.50  1143.96  1176.01
                             1183.74  1198.92  1274.66  1291.42  1330.49
                             1350.45  1381.25  1385.13  1402.40  1403.69
                             1438.53  1450.85  1525.00  1554.15  1569.81
                             1623.88  1691.89  1701.89  1709.15  1724.84
                             1735.16  1748.78  1789.39  1865.31  1871.42
                             1882.49  1897.59  1937.75  1994.05  2033.28
                             2047.72  2095.08  2130.85  2158.28  2176.59
                             2189.75  2205.25  2217.97  2244.18  2321.10
                             2341.67  2366.23  2394.66  2426.25  4353.01
                             4438.27  4540.93  4552.29  4578.59  4585.85
                             4590.93  4610.54  4614.64  4624.82  4629.64
                             4641.05  4642.47

 Zero-point correction=                           0.249603 (Hartree/Particle)
 Thermal correction to Energy=                    0.263686
 Thermal correction to Enthalpy=                  0.264631
 Thermal correction to Gibbs Free Energy=         0.207539
 Sum of electronic and zero-point Energies=           -747.261581
 Sum of electronic and thermal Energies=              -747.247497
 Sum of electronic and thermal Enthalpies=            -747.246553
 Sum of electronic and thermal Free Energies=         -747.303645

                     E (Thermal)             CV                S
                      KCal/Mol        Cal/Mol-Kelvin    Cal/Mol-Kelvin
 Total                  165.466             56.313            120.160
 Electronic               0.000              0.000              0.000
 Translational            0.889              2.981             42.266
 Rotational               0.889              2.981             33.223
 Vibrational            163.688             50.351             44.670
 Vibration     1          0.593              1.984              5.911
 Vibration     2          0.595              1.980              5.147
 Vibration     3          0.599              1.966              4.022
 Vibration     4          0.603              1.951              3.507
 Vibration     5          0.614              1.917              2.855
 Vibration     6          0.631              1.861              2.286
 Vibration     7          0.641              1.831              2.075
 Vibration     8          0.649              1.804              1.924
 Vibration     9          0.663              1.763              1.732
 Vibration    10          0.668              1.746              1.663
 Vibration    11          0.711              1.621              1.273
 Vibration    12          0.737              1.548              1.108
 Vibration    13          0.778              1.439              0.912
 Vibration    14          0.781              1.431              0.899
 Vibration    15          0.788              1.413              0.870
 Vibration    16          0.832              1.306              0.724
 Vibration    17          0.844              1.277              0.690
 Vibration    18          0.869              1.219              0.624
 Vibration    19          0.889              1.176              0.579
 Vibration    20          0.926              1.095              0.504
 Vibration    21          0.952              1.044              0.460

 Normal termination of Gaussian 09 at Tue Sep 28 17:54:56 2021.
 Gaussian 09:  AM64L-G09RevA.02 11-Jun-2009

 ----------------------------------------------------------------------
 #p TD(NStates=10, Root=1) b3lyp/6-31G* volume pop=NPA density=current
 Geom=AllCheck Guess=Read
 ----------------------------------------------------------------------

 COc1ccc2c(c1)ccc(c2)c1ccccn1_conf_0
 -----------------------------------
 Redundant internal coordinates taken from checkpoint file:
 C16H13NO_d1d1_conf_0.chk
 Charge =  0 Multiplicity = 1

                         Standard orientation:
 ---------------------------------------------------------------------
 Center     Atomic      Atomic             Coordinates (Angstroms)
 Number     Number       Type             X           Y           Z
 ---------------------------------------------------------------------
      1          6           0       -6.012338   -0.622651    0.070797
      2          8           0       -5.044660    0.411336   -0.010054
      3          6           0       -3.720223    0.076803    0.003934
      4          6           0       -3.245777   -1.258961    0.093446
      5          6           0       -1.890490   -1.506932    0.101652
      6          6           0       -0.942892   -0.454495    0.022506
      7          6           0       -1.430095    0.891165   -0.067121
      8          6           0       -2.822245    1.127461   -0.074960
      9          6           0       -0.473511    1.941648   -0.150606
     10          6           0        0.873635    1.677526   -0.135561
     11          6           0        1.369594    0.342882   -0.037083
     12          6           0        0.452875   -0.692711    0.031765
     13          6           0        2.825657    0.047062   -0.008746
     14          6           0        3.790385    1.039025    0.243325
     15          6           0        5.139053    0.695437    0.254319
     16          6           0        5.503654   -0.629434    0.022545
     17          6           0        4.480069   -1.551503   -0.202581
     18          7           0        3.184763   -1.235975   -0.221943
     19          1           0       -6.982928   -0.123711    0.043240
     20          1           0       -5.925588   -1.189053    1.007514
     21          1           0       -5.940120   -1.315668   -0.777916
     22          1           0       -3.941786   -2.087612    0.155540
     23          1           0       -1.531053   -2.530835    0.169587
     24          1           0       -3.206893    2.140949   -0.142986
     25          1           0       -0.826852    2.966504   -0.235010
     26          1           0        1.568169    2.506878   -0.225607
     27          1           0        0.821426   -1.711516    0.095258
     28          1           0        3.493989    2.061699    0.448243
     29          1           0        5.893365    1.453464    0.449010
     30          1           0        6.542968   -0.943358    0.021207
     31          1           0        4.715135   -2.600545   -0.379824
 ---------------------------------------------------------------------

 SCF Done:  E(RB3LYP) =  -747.511183464     A.U. after    1 cycles

 Excitation energies and oscillator strengths:

 Excited State   1:      Singlet-A      3.7416 eV  331.37 nm  f=0.2760  <S**2>=0.000
      62 -> 63         0.68958
 This state for optimization and/or second-order correction.
 Total Energy, E(TD-HF/TD-KS) =  -747.373682787
 Copying the excited state density for this state as the 1-particle RhoCI density.

 Excited State   2:      Singlet-A      3.9674 eV  312.50 nm  f=0.0296  <S**2>=0.000
      61 -> 63        -0.41672
      62 -> 64         0.55790

 Excited State   3:      Singlet-A      4.3854 eV  282.72 nm  f=0.0317  <S**2>=0.000
      62 -> 65         0.68690

 Excited State   4:      Singlet-A      4.5008 eV  275.47 nm  f=0.0026  <S**2>=0.000
      59 -> 63         0.32015
      60 -> 63         0.58972
      60 -> 64         0.14212
      60 -> 65         0.10487

 Excited State   5:      Singlet-A      4.6964 eV  264.00 nm  f=0.7970  <S**2>=0.000
      61 -> 63         0.54612
      62 -> 64         0.40905
      62 -> 66        -0.10829

 Excited State   6:      Singlet-A      5.0491 eV  245.56 nm  f=0.0136  <S**2>=0.000
      59 -> 63         0.34589
      59 -> 64        -0.15951
      59 -> 65         0.25270
      60 -> 63        -0.21856
      60 -> 64        -0.14943
      60 -> 65         0.38560
      61 -> 65         0.13380
      62 -> 66         0.18408

 Excited State   7:      Singlet-A      5.0532 eV  245.36 nm  f=0.0176  <S**2>=0.000
      59 -> 63         0.38214
      59 -> 65        -0.17122
      60 -> 63        -0.20148
      60 -> 64         0.25281
      60 -> 65        -0.36815
      61 -> 64         0.10016
      62 -> 66         0.22414

 Excited State   8:      Singlet-A      5.1961 eV  238.61 nm  f=0.1357  <S**2>=0.000
      59 -> 63        -0.17174
      61 -> 64         0.59064
      61 -> 66        -0.10304
      62 -> 66         0.25995
      62 -> 67         0.10226

 Excited State   9:      Singlet-A      5.2367 eV  236.76 nm  f=0.0210  <S**2>=0.000
      58 -> 63         0.14875
      59 -> 63        -0.15535
      61 -> 65         0.64608

 Excited State  10:      Singlet-A      5.4436 eV  227.76 nm  f=0.0036  <S**2>=0.000
      59 -> 63        -0.11388
      59 -> 64         0.24744
      59 -> 65         0.12105
      60 -> 63        -0.16969
      60 -> 64         0.53899
      60 -> 65         0.28004

 The electronic state is 1-A.
 Alpha  occ. eigenvalues --  -19.17771 -14.32318 -10.24785 -10.24232 -10.22850
 Alpha  occ. eigenvalues --  -10.21975 -10.20586 -10.19498 -10.19485 -10.19459
 Alpha  occ. eigenvalues --  -10.19224 -10.19096 -10.19068 -10.18952 -10.18778
 Alpha  occ. eigenvalues --  -10.18463 -10.18180 -10.17977  -1.06329  -0.93768
 Alpha  occ. eigenvalues --   -0.86736  -0.82086  -0.79917  -0.77488  -0.76684
 Alpha  occ. eigenvalues --   -0.73183  -0.72695  -0.68853  -0.63820  -0.63102
 Alpha  occ. eigenvalues --   -0.61399  -0.58989  -0.58519  -0.53099  -0.52709
 Alpha  occ. eigenvalues --   -0.50799  -0.49253  -0.47849  -0.46870  -0.46060
 Alpha  occ. eigenvalues --   -0.45902  -0.43988  -0.43823  -0.41871  -0.41073
 Alpha  occ. eigenvalues --   -0.40544  -0.40242  -0.39508  -0.38577  -0.38448
 Alpha  occ. eigenvalues --   -0.36710  -0.34964  -0.34491  -0.33714  -0.32003
 Alpha  occ. eigenvalues --   -0.30563  -0.28712  -0.27755  -0.25112  -0.24915
 Alpha  occ. eigenvalues --   -0.22779  -0.19503
 Alpha virt. eigenvalues --   -0.04508  -0.02261  -0.01428   0.02646   0.04151
 Alpha virt. eigenvalues --    0.09337   0.09639   0.10768   0.10969   0.11966
 Alpha virt. eigenvalues --    0.13346   0.14211   0.14892   0.15448   0.16383

 Mulliken atomic charges:
              1
     1  C   -0.226774
     2  O   -0.477403
     3  C    0.391963
     4  C   -0.202159
     5  C   -0.197063
     6  C    0.164647
     7  C    0.150499
     8  C   -0.244518
     9  C   -0.206971
    10  C   -0.175096
    11  C    0.119488
    12  C   -0.280072
    13  C    0.226397
    14  C   -0.156662
    15  C   -0.129731
    16  C   -0.155040
    17  C    0.041538
    18  N   -0.516966
    19  H    0.182548
    20  H    0.169213
    21  H    0.169425
    22  H    0.137381
    23  H    0.149515
    24  H    0.157192
    25  H    0.133972
    26  H    0.138123
    27  H    0.158858
    28  H    0.120207
    29  H    0.119476
    30  H    0.117759
    31  H    0.120255
 Sum of Mulliken atomic charges =  -0.00000

 Dipole moment (field-independent basis, Debye):
    X=             -6.2967    Y=              0.6464    Z=              0.3973  Tot=              6.3423
 Quadrupole moment (field-independent basis, Debye-Ang):
   XX=            -78.0831   YY=            -94.6071   ZZ=           -108.2067
   XY=             10.1009   XZ=              0.4433   YZ=             -0.5774

 Summary of Natural Population Analysis:

                                       Natural Population
                Natural  -----------------------------------------------
    Atom  No    Charge         Core      Valence    Rydberg      Total
 -----------------------------------------------------------------------
      C    1   -0.32276      1.99942     4.30931    0.01402     6.32276
      O    2   -0.47099      1.99975     6.45956    0.01168     8.47099
      C    3    0.34737      1.99880     3.63159    0.02224     5.65263
      C    4   -0.33991      1.99904     4.32783    0.01304     6.33991
      C    5   -0.16861      1.99907     4.15427    0.01528     6.16861
      C    6   -0.04955      1.99903     4.03593    0.01459     6.04955
      C    7   -0.06383      1.99903     4.05023    0.01457     6.06383
      C    8   -0.19308      1.99900     4.17941    0.01467     6.19308
      C    9   -0.20024      1.99906     4.18628    0.01491     6.20024
      C   10   -0.20444      1.99907     4.19242    0.01294     6.20444
      C   11   -0.01456      1.99901     3.99881    0.01674     6.01456
      C   12   -0.21984      1.99903     4.20487    0.01594     6.21984
      C   13    0.13601      1.99907     3.84167    0.02324     5.86399
      C   14   -0.22805      1.99904     4.21743    0.01158     6.22805
      C   15   -0.25221      1.99910     4.23716    0.01594     6.25221
      C   16   -0.29797      1.99907     4.28473    0.01417     6.29797
      C   17    0.03108      1.99921     3.94704    0.02267     5.96892
      N   18   -0.51523      1.99940     5.49364    0.02220     7.51523
      H   19    0.23532      0.00000     0.76417    0.00051     0.76468
      H   20    0.21407      0.00000     0.78401    0.00192     0.78593
      H   21    0.21417      0.00000     0.78391    0.00191     0.78583
      H   22    0.24160      0.00000     0.75756    0.00084     0.75840
      H   23    0.24348      0.00000     0.75542    0.00110     0.75652
      H   24    0.24888      0.00000     0.74962    0.00150     0.75112
      H   25    0.23402      0.00000     0.76489    0.00109     0.76598
      H   26    0.23747      0.00000     0.76160    0.00093     0.76253
      H   27    0.25822      0.00000     0.73977    0.00201     0.74178
      H   28    0.22447      0.00000     0.77438    0.00115     0.77553
      H   29    0.23100      0.00000     0.76818    0.00082     0.76900
      H   30    0.23139      0.00000     0.76762    0.00099     0.76861
      H   31    0.21272      0.00000     0.78607    0.00121     0.78728
 =======================================================================
   * Total *    0.00000     35.98420    87.70938    0.30642   124.00000

 Normal termination of Gaussian 09 at Tue Sep 28 22:59:48 2021.
