 Gaussian 09, Revision A.02,

 -----------------------------------
 #p opt b3lyp/6-31G* scf=(xqc,tight)
 -----------------------------------

 --------------------------------------
 CC[Si](Oc1ccc2c(c1)cccc2)(CC)CC_conf_0
 --------------------------------------
 Symbolic Z-matrix:
 Charge =  0 Multiplicity = 1

 SCF Done:  E(RB3LYP) =  -987.747735269     A.U. after   14 cycles
 SCF Done:  E(RB3LYP) =  -987.754685655     A.U. after   13 cycles
 SCF Done:  E(RB3LYP) =  -987.755613727     A.U. after   15 cycles
 SCF Done:  E(RB3LYP) =  -987.755887779     A.U. after   12 cycles
 SCF Done:  E(RB3LYP) =  -987.756026357     A.U. after   12 cycles
 SCF Done:  E(RB3LYP) =  -987.756043374     A.U. after   10 cycles
 SCF Done:  E(RB3LYP) =  -987.756053610     A.U. after    9 cycles
 SCF Done:  E(RB3LYP) =  -987.756058991     A.U. after    9 cycles
 SCF Done:  E(RB3LYP) =  -987.756059125     A.U. after    9 cycles
 SCF Done:  E(RB3LYP) =  -987.756058825     A.U. after    7 cycles
 SCF Done:  E(RB3LYP) =  -987.756058982     A.U. after    9 cycles
 SCF Done:  E(RB3LYP) =  -987.756059735     A.U. after    9 cycles
 SCF Done:  E(RB3LYP) =  -987.756061452     A.U. after    9 cycles
 SCF Done:  E(RB3LYP) =  -987.756063781     A.U. after    9 cycles
 SCF Done:  E(RB3LYP) =  -987.756065339     A.U. after    9 cycles
 SCF Done:  E(RB3LYP) =  -987.756065814     A.U. after    7 cycles
 SCF Done:  E(RB3LYP) =  -987.756066210     A.U. after    7 cycles
 SCF Done:  E(RB3LYP) =  -987.756066143     A.U. after    6 cycles
 Optimization completed.
    -- Stationary point found.
 Normal termination of Gaussian 09 at Tue Sep 28 19:33:48 2021.

 ----------------------------------------------------------------------
 #p freq b3lyp/6-31G* volume NMR pop=NPA density=current Geom=AllCheck
 Guess=Read
 ----------------------------------------------------------------------

 CC[Si](Oc1ccc2c(c1)cccc2)(CC)CC_conf_0
 --------------------------------------
 Redundant internal coordinates taken from checkpoint file:
 C16H22OSi_f167_conf_0.chk
 Charge =  0 Multiplicity = 1

 SCF Done:  E(RB3LYP) =  -987.756066143     A.U. after    1 cycles

  1  C    Isotropic =   180.6114   Anisotropy =    15.1008

  2  C    Isotropic =   183.7598   Anisotropy =    14.7564

  3  Si   Isotropic =   384.6829   Anisotropy =    19.5893

  4  O    Isotropic =   219.9599   Anisotropy =    85.8046

  5  C    Isotropic =    42.1494   Anisotropy =   119.5070

  6  C    Isotropic =    74.1299   Anisotropy =   133.2043

  7  C    Isotropic =    65.8368   Anisotropy =   142.8474

  8  C    Isotropic =    67.9416   Anisotropy =   192.5161

  9  C    Isotropic =    62.1209   Anisotropy =   193.5849

 10  C    Isotropic =    83.3887   Anisotropy =   104.7645

 11  C    Isotropic =    69.4778   Anisotropy =   141.1510

 12  C    Isotropic =    70.0406   Anisotropy =   161.6211

 13  C    Isotropic =    72.9126   Anisotropy =   157.2354

 14  C    Isotropic =    67.8603   Anisotropy =   145.8135

 15  C    Isotropic =   182.5355   Anisotropy =    14.8432

 16  C    Isotropic =   180.2884   Anisotropy =    14.7157

 17  C    Isotropic =   178.7457   Anisotropy =     6.5608

 18  C    Isotropic =   180.6016   Anisotropy =    13.0905

 19  H    Isotropic =    30.9964   Anisotropy =    11.2821

 20  H    Isotropic =    31.3180   Anisotropy =     8.3527

 21  H    Isotropic =    31.3764   Anisotropy =     7.8815

 22  H    Isotropic =    31.3562   Anisotropy =     7.0481

 23  H    Isotropic =    31.1585   Anisotropy =     9.0057

 24  H    Isotropic =    25.1811   Anisotropy =     7.9691

 25  H    Isotropic =    24.6709   Anisotropy =     6.7172

 26  H    Isotropic =    25.3469   Anisotropy =    10.7994

 27  H    Isotropic =    24.7970   Anisotropy =     8.6721

 28  H    Isotropic =    24.8919   Anisotropy =     5.5254

 29  H    Isotropic =    24.9942   Anisotropy =     4.6500

 30  H    Isotropic =    24.6993   Anisotropy =     6.7569

 31  H    Isotropic =    31.1402   Anisotropy =     7.0713

 32  H    Isotropic =    31.6798   Anisotropy =     7.9351

 33  H    Isotropic =    30.7262   Anisotropy =     8.4395

 34  H    Isotropic =    30.9323   Anisotropy =    11.4252

 35  H    Isotropic =    31.1000   Anisotropy =     7.4120

 36  H    Isotropic =    30.9844   Anisotropy =     7.4893

 37  H    Isotropic =    31.4903   Anisotropy =     7.4782

 38  H    Isotropic =    30.9567   Anisotropy =     6.1020

 39  H    Isotropic =    30.9900   Anisotropy =    11.1731

 40  H    Isotropic =    31.1608   Anisotropy =     8.4310

  Exact polarizability: 267.426 -15.253 193.658  -7.612   1.500 120.047
 Approx polarizability: 381.862 -32.569 324.924 -19.083   5.853 166.992

                     1                      2                      3
                     A                      A                      A
 Frequencies --    17.7333                23.5926                28.0969
 Red. masses --     3.5973                 2.5263                 3.7431
 Frc consts  --     0.0007                 0.0008                 0.0017
 IR Inten    --     0.2065                 0.0388                 0.0470

                     4                      5                      6
                     A                      A                      A
 Frequencies --    44.5605                58.9181                75.7452
 Red. masses --     3.3007                 2.2870                 2.7279
 Frc consts  --     0.0039                 0.0047                 0.0092
 IR Inten    --     0.0417                 0.0884                 0.2694

                     7                      8                      9
                     A                      A                      A
 Frequencies --   105.9562               110.8286               135.3503
 Red. masses --     3.3420                 4.0149                 2.1570
 Frc consts  --     0.0221                 0.0291                 0.0233
 IR Inten    --     0.3089                 0.4019                 0.3184

                    10                     11                     12
                     A                      A                      A
 Frequencies --   148.6025               180.6460               183.8140
 Red. masses --     1.7863                 2.3075                 1.8182
 Frc consts  --     0.0232                 0.0444                 0.0362
 IR Inten    --     0.0594                 0.6829                 1.9968

                    13                     14                     15
                     A                      A                      A
 Frequencies --   188.4987               225.7715               249.4890
 Red. masses --     3.2905                 1.3317                 3.0294
 Frc consts  --     0.0689                 0.0400                 0.1111
 IR Inten    --     1.8074                 0.1218                 0.9256

                    16                     17                     18
                     A                      A                      A
 Frequencies --   253.9610               268.6994               301.3816
 Red. masses --     1.3442                 1.9452                 2.7763
 Frc consts  --     0.0511                 0.0827                 0.1486
 IR Inten    --     0.1215                 0.5693                 2.1966

                    19                     20                     21
                     A                      A                      A
 Frequencies --   315.2497               348.0858               396.4751
 Red. masses --     3.9565                 4.4487                 3.5780
 Frc consts  --     0.2317                 0.3176                 0.3314
 IR Inten    --     1.1251                10.6780                 9.2092

                    22                     23                     24
                     A                      A                      A
 Frequencies --   411.4237               417.8056               474.6548
 Red. masses --     3.4503                 4.5969                 5.3163
 Frc consts  --     0.3441                 0.4728                 0.7057
 IR Inten    --     1.0167                 5.6512                 5.5432

                    25                     26                     27
                     A                      A                      A
 Frequencies --   486.0740               524.8335               547.2766
 Red. masses --     2.5942                 6.2049                 3.6547
 Frc consts  --     0.3611                 1.0070                 0.6449
 IR Inten    --     8.9759                 0.8742                 0.5229

                    28                     29                     30
                     A                      A                      A
 Frequencies --   567.2982               635.3247               646.1256
 Red. masses --     3.5210                 4.7274                 2.0927
 Frc consts  --     0.6676                 1.1242                 0.5147
 IR Inten    --     1.5140                 6.4146                 2.6421

                    31                     32                     33
                     A                      A                      A
 Frequencies --   648.0722               656.6764               680.0444
 Red. masses --     3.5005                 2.8434                 1.7251
 Frc consts  --     0.8662                 0.7224                 0.4701
 IR Inten    --    11.7112                 0.4821                13.2206

                    34                     35                     36
                     A                      A                      A
 Frequencies --   716.7952               742.3324               762.1999
 Red. masses --     2.2407                 1.8690                 1.5852
 Frc consts  --     0.6783                 0.6068                 0.5426
 IR Inten    --    68.6833                72.6814                63.2688

                    37                     38                     39
                     A                      A                      A
 Frequencies --   763.4867               769.6161               784.9758
 Red. masses --     1.5730                 2.6730                 4.7767
 Frc consts  --     0.5402                 0.9328                 1.7342
 IR Inten    --    50.3860                 1.2837                 0.2205

                    40                     41                     42
                     A                      A                      A
 Frequencies --   828.5043               844.0094               859.9091
 Red. masses --     1.3368                 5.9672                 1.6217
 Frc consts  --     0.5407                 2.5045                 0.7065
 IR Inten    --     8.2202               131.7850                63.1880

                    43                     44                     45
                     A                      A                      A
 Frequencies --   886.2220               937.4833               948.4543
 Red. masses --     1.6873                 5.3791                 1.3203
 Frc consts  --     0.7808                 2.7854                 0.6998
 IR Inten    --     2.1609                57.3161                 2.5061

                    46                     47                     48
                     A                      A                      A
 Frequencies --   963.2955               964.2296               973.4614
 Red. masses --     1.1182                 1.2915                 1.2196
 Frc consts  --     0.6114                 0.7075                 0.6809
 IR Inten    --     4.4773                 0.7468                 6.4627

                    49                     50                     51
                     A                      A                      A
 Frequencies --   984.6486               984.9737               990.8942
 Red. masses --     1.3956                 1.2913                 1.9048
 Frc consts  --     0.7972                 0.7381                 1.1019
 IR Inten    --     0.5362                 0.1485                 9.2869

                    52                     53                     54
                     A                      A                      A
 Frequencies --   992.3682               996.3524              1006.1354
 Red. masses --     2.0899                 1.7754                 1.3968
 Frc consts  --     1.2126                 1.0384                 0.8331
 IR Inten    --    47.7965                46.1313                54.4179

                    55                     56                     57
                     A                      A                      A
 Frequencies --  1033.2349              1048.2002              1051.7672
 Red. masses --     2.0708                 2.0381                 2.1237
 Frc consts  --     1.3025                 1.3194                 1.3842
 IR Inten    --    46.6088                32.4231                34.2882

                    58                     59                     60
                     A                      A                      A
 Frequencies --  1052.1414              1151.8433              1176.2159
 Red. masses --     2.2444                 1.6012                 1.2366
 Frc consts  --     1.4638                 1.2517                 1.0080
 IR Inten    --     4.2336                20.6612                 1.7329

                    61                     62                     63
                     A                      A                      A
 Frequencies --  1187.2034              1216.8615              1259.6111
 Red. masses --     1.1798                 1.6050                 2.1371
 Frc consts  --     0.9798                 1.4002                 1.9978
 IR Inten    --     1.8618               101.5277                95.2141

                    64                     65                     66
                     A                      A                      A
 Frequencies --  1273.5380              1277.8475              1281.2414
 Red. masses --     1.2658                 1.2633                 1.2638
 Frc consts  --     1.2096                 1.2154                 1.2224
 IR Inten    --     0.4044                 0.3698                12.3664

                    67                     68                     69
                     A                      A                      A
 Frequencies --  1290.3763              1293.4132              1295.6854
 Red. masses --     1.5422                 1.5696                 1.7821
 Frc consts  --     1.5130                 1.5471                 1.7627
 IR Inten    --    11.8847                44.6474                23.0324

                    70                     71                     72
                     A                      A                      A
 Frequencies --  1300.7291              1306.2921              1392.8691
 Red. masses --     1.4945                 2.3761                 2.0756
 Frc consts  --     1.4898                 2.3889                 2.3725
 IR Inten    --    23.5046               215.3588                21.9056

                    73                     74                     75
                     A                      A                      A
 Frequencies --  1412.8812              1425.9981              1439.8648
 Red. masses --     6.1672                 3.7897                 1.1970
 Frc consts  --     7.2536                 4.5404                 1.4622
 IR Inten    --     3.2191                71.2375                 0.0728

                    76                     77                     78
                     A                      A                      A
 Frequencies --  1442.2672              1445.0780              1483.6032
 Red. masses --     1.2011                 1.1969                 1.0938
 Frc consts  --     1.4720                 1.4727                 1.4184
 IR Inten    --     0.7175                 1.4255                10.0372

                    79                     80                     81
                     A                      A                      A
 Frequencies --  1486.9258              1489.9470              1493.8993
 Red. masses --     1.9681                 1.2306                 1.0818
 Frc consts  --     2.5638                 1.6095                 1.4224
 IR Inten    --    10.5853                 3.5243                 6.7014

                    82                     83                     84
                     A                      A                      A
 Frequencies --  1519.2739              1532.0427              1534.9415
 Red. masses --     2.3148                 1.0480                 1.0517
 Frc consts  --     3.1481                 1.4493                 1.4598
 IR Inten    --   109.6342                 3.8646                 2.4375

                    85                     86                     87
                     A                      A                      A
 Frequencies --  1535.7545              1538.2500              1539.4601
 Red. masses --     1.0476                 1.0411                 1.0407
 Frc consts  --     1.4558                 1.4514                 1.4531
 IR Inten    --     2.8673                 6.0711                 3.7553

                    88                     89                     90
                     A                      A                      A
 Frequencies --  1540.4485              1561.6746              1626.3372
 Red. masses --     1.0387                 3.3997                 6.9312
 Frc consts  --     1.4523                 4.8851                10.8015
 IR Inten    --     2.4544                57.4137                 9.1375

                    91                     92                     93
                     A                      A                      A
 Frequencies --  1659.8650              1684.5962              3021.0681
 Red. masses --     5.3448                 6.1419                 1.0608
 Frc consts  --     8.6762                10.2693                 5.7046
 IR Inten    --    95.6984                87.7866                12.5398

                    94                     95                     96
                     A                      A                      A
 Frequencies --  3024.6071              3035.9626              3040.6490
 Red. masses --     1.0605                 1.0597                 1.0353
 Frc consts  --     5.7160                 5.7548                 5.6397
 IR Inten    --    17.1193                11.2023                45.7274

                    97                     98                     99
                     A                      A                      A
 Frequencies --  3044.3924              3045.5869              3055.6168
 Red. masses --     1.0369                 1.0363                 1.0988
 Frc consts  --     5.6624                 5.6634                 6.0447
 IR Inten    --    50.3406                25.9620                22.0813

                   100                    101                    102
                     A                      A                      A
 Frequencies --  3061.7544              3069.5632              3101.3215
 Red. masses --     1.0986                 1.1008                 1.1021
 Frc consts  --     6.0679                 6.1110                 6.2453
 IR Inten    --    22.1207                 8.0445                75.0314

                   103                    104                    105
                     A                      A                      A
 Frequencies --  3101.4961              3104.2632              3107.1529
 Red. masses --     1.1023                 1.1021                 1.1022
 Frc consts  --     6.2474                 6.2572                 6.2695
 IR Inten    --     5.4414                33.4418                39.9466

                   106                    107                    108
                     A                      A                      A
 Frequencies --  3120.2892              3121.9024              3174.3908
 Red. masses --     1.1021                 1.1016                 1.0856
 Frc consts  --     6.3220                 6.3258                 6.4455
 IR Inten    --    37.5360                36.0212                 5.1583

                   109                    110                    111
                     A                      A                      A
 Frequencies --  3178.2119              3183.1376              3193.2836
 Red. masses --     1.0884                 1.0883                 1.0929
 Frc consts  --     6.4776                 6.4972                 6.5661
 IR Inten    --     0.5025                12.9085                31.1739

                   112                    113                    114
                     A                      A                      A
 Frequencies --  3200.9444              3207.5253              3215.5172
 Red. masses --     1.0898                 1.0969                 1.0937
 Frc consts  --     6.5790                 6.6489                 6.6628
 IR Inten    --    27.2458                32.6228                10.0717

 - Thermochemistry -
 -------------------
 Temperature   298.150 Kelvin.  Pressure   1.00000 Atm.
 Atom     1 has atomic number  6 and mass  12.00000

 Molecular mass:   258.14399 amu.
 Principal axes and moments of inertia in atomic units:
                           1         2         3
     Eigenvalues --  2594.364539244.412699895.89015
           X            1.00000   0.00072   0.00279
           Y           -0.00069   0.99995  -0.01032
           Z           -0.00279   0.01032   0.99994
 This molecule is an asymmetric top.
 Rotational symmetry number  1.
 Warning -- assumption of classical behavior for rotation
           may cause significant error
 Rotational temperatures (Kelvin)      0.03339     0.00937     0.00875
 Rotational constants (GHZ):           0.69564     0.19523     0.18237
 Zero-point vibrational energy     895693.3 (Joules/Mol)
                                  214.07584 (Kcal/Mol)
 Warning -- explicit consideration of  28 degrees of freedom as
           vibrations may cause significant error
 Vibrational temperatures:     25.51    33.94    40.43    64.11    84.77
          (Kelvin)            108.98   152.45   159.46   194.74   213.81
                              259.91   264.47   271.21   324.83   358.96
                              365.39   386.60   433.62   453.57   500.82
                              570.44   591.95   601.13   682.92   699.35
                              755.12   787.41   816.21   914.09   929.63
                              932.43   944.81   978.43  1031.31  1068.05
                             1096.63  1098.49  1107.30  1129.40  1192.03
                             1214.34  1237.22  1275.07  1348.83  1364.61
                             1385.97  1387.31  1400.59  1416.69  1417.16
                             1425.67  1427.79  1433.53  1447.60  1486.59
                             1508.12  1513.26  1513.79  1657.24  1692.31
                             1708.12  1750.79  1812.30  1832.33  1838.54
                             1843.42  1856.56  1860.93  1864.20  1871.46
                             1879.46  2004.03  2032.82  2051.69  2071.64
                             2075.10  2079.14  2134.57  2139.35  2143.70
                             2149.39  2185.89  2204.26  2208.44  2209.61
                             2213.20  2214.94  2216.36  2246.90  2339.93
                             2388.17  2423.76  4346.64  4351.73  4368.07
                             4374.81  4380.20  4381.91  4396.35  4405.18
                             4416.41  4462.10  4462.36  4466.34  4470.49
                             4489.39  4491.72  4567.23  4572.73  4579.82
                             4594.42  4605.44  4614.91  4626.41

 Zero-point correction=                           0.341152 (Hartree/Particle)
 Thermal correction to Energy=                    0.361032
 Thermal correction to Enthalpy=                  0.361976
 Thermal correction to Gibbs Free Energy=         0.290270
 Sum of electronic and zero-point Energies=           -987.414915
 Sum of electronic and thermal Energies=              -987.395034
 Sum of electronic and thermal Enthalpies=            -987.394090
 Sum of electronic and thermal Free Energies=         -987.465796

                     E (Thermal)             CV                S
                      KCal/Mol        Cal/Mol-Kelvin    Cal/Mol-Kelvin
 Total                  226.551             74.255            150.917
 Electronic               0.000              0.000              0.000
 Translational            0.889              2.981             42.545
 Rotational               0.889              2.981             33.828
 Vibrational            224.773             68.293             74.544
 Vibration     1          0.593              1.986              6.873
 Vibration     2          0.593              1.985              6.306
 Vibration     3          0.593              1.984              5.959
 Vibration     4          0.595              1.980              5.045
 Vibration     5          0.596              1.974              4.493
 Vibration     6          0.599              1.965              3.998
 Vibration     7          0.605              1.944              3.342
 Vibration     8          0.607              1.941              3.254
 Vibration     9          0.613              1.918              2.869
 Vibration    10          0.618              1.904              2.690
 Vibration    11          0.630              1.866              2.322
 Vibration    12          0.631              1.862              2.289
 Vibration    13          0.633              1.856              2.243
 Vibration    14          0.650              1.802              1.912
 Vibration    15          0.662              1.764              1.734
 Vibration    16          0.665              1.756              1.703
 Vibration    17          0.673              1.731              1.605
 Vibration    18          0.693              1.671              1.409
 Vibration    19          0.703              1.645              1.335
 Vibration    20          0.726              1.579              1.175
 Vibration    21          0.763              1.478              0.976
 Vibration    22          0.775              1.445              0.922
 Vibration    23          0.781              1.432              0.899
 Vibration    24          0.831              1.306              0.725
 Vibration    25          0.842              1.281              0.694
 Vibration    26          0.880              1.195              0.599
 Vibration    27          0.902              1.146              0.550
 Vibration    28          0.923              1.102              0.509

 Normal termination of Gaussian 09 at Tue Sep 28 21:07:50 2021.
 Gaussian 09:  AM64L-G09RevA.02 11-Jun-2009

 ----------------------------------------------------------------------
 #p TD(NStates=10, Root=1) b3lyp/6-31G* volume pop=NPA density=current
 Geom=AllCheck Guess=Read
 ----------------------------------------------------------------------

 CC[Si](Oc1ccc2c(c1)cccc2)(CC)CC_conf_0
 --------------------------------------
 Redundant internal coordinates taken from checkpoint file:
 C16H22OSi_f167_conf_0.chk
 Charge =  0 Multiplicity = 1

                         Standard orientation:
 ---------------------------------------------------------------------
 Center     Atomic      Atomic             Coordinates (Angstroms)
 Number     Number       Type             X           Y           Z
 ---------------------------------------------------------------------
      1          6           0       -3.295556   -1.770016   -2.149322
      2          6           0       -2.203983   -0.759038   -1.748265
      3         14           0       -2.296845   -0.165654    0.048361
      4          8           0       -1.028803    0.925388    0.335462
      5          6           0        0.322949    0.829646    0.195994
      6          6           0        1.034327    2.060672    0.155870
      7          6           0        2.401127    2.071243    0.030008
      8          6           0        3.142502    0.861496   -0.063273
      9          6           0        2.427269   -0.379062   -0.018805
     10          6           0        1.012650   -0.364847    0.114432
     11          6           0        3.164470   -1.591057   -0.107885
     12          6           0        4.535831   -1.577592   -0.235998
     13          6           0        5.240965   -0.350541   -0.281267
     14          6           0        4.555331    0.841074   -0.196332
     15          6           0       -3.839100    0.875813    0.373129
     16          6           0       -3.959147    2.152273   -0.478486
     17          6           0       -2.228255   -1.626954    1.256549
     18          6           0       -1.919808   -1.249002    2.717293
     19          1           0       -3.200842   -2.065343   -3.201114
     20          1           0       -4.301995   -1.354031   -2.019167
     21          1           0       -3.240036   -2.685599   -1.548506
     22          1           0       -2.256396    0.123235   -2.401059
     23          1           0       -1.211760   -1.195184   -1.926101
     24          1           0        0.463871    2.981504    0.227261
     25          1           0        2.936009    3.017747   -0.000679
     26          1           0        0.483092   -1.311945    0.159693
     27          1           0        2.625484   -2.535230   -0.073067
     28          1           0        5.083286   -2.514155   -0.303092
     29          1           0        6.322764   -0.353402   -0.382774
     30          1           0        5.089956    1.787884   -0.229906
     31          1           0       -3.851044    1.141821    1.439277
     32          1           0       -4.721575    0.237429    0.218663
     33          1           0       -3.102676    2.815188   -0.316886
     34          1           0       -4.867929    2.715063   -0.232856
     35          1           0       -3.998543    1.920451   -1.549557
     36          1           0       -1.494554   -2.365055    0.903101
     37          1           0       -3.200920   -2.138651    1.203551
     38          1           0       -0.937444   -0.772510    2.805140
     39          1           0       -1.921311   -2.131213    3.368719
     40          1           0       -2.660619   -0.546598    3.116765
 ---------------------------------------------------------------------

 SCF Done:  E(RB3LYP) =  -987.756066143     A.U. after    1 cycles

 Excitation energies and oscillator strengths:

 Excited State   1:      Singlet-A      4.1915 eV  295.80 nm  f=0.0375  <S**2>=0.000
      69 -> 71         0.18340
      69 -> 72         0.17427
      70 -> 71         0.63078
      70 -> 72        -0.18590
 This state for optimization and/or second-order correction.
 Total Energy, E(TD-HF/TD-KS) =  -987.602031053
 Copying the excited state density for this state as the 1-particle RhoCI density.

 Excited State   2:      Singlet-A      4.5451 eV  272.79 nm  f=0.0106  <S**2>=0.000
      69 -> 71         0.50022
      70 -> 71        -0.26607
      70 -> 72        -0.41511

 Excited State   3:      Singlet-A      5.6024 eV  221.30 nm  f=0.5166  <S**2>=0.000
      66 -> 71        -0.11946
      68 -> 71         0.37948
      69 -> 71         0.32743
      70 -> 72         0.35243
      70 -> 73        -0.30782

 Excited State   4:      Singlet-A      5.7953 eV  213.94 nm  f=0.6082  <S**2>=0.000
      66 -> 71         0.23690
      68 -> 71        -0.10906
      69 -> 71         0.26736
      69 -> 72         0.18179
      70 -> 72         0.34391
      70 -> 73         0.43693

 Excited State   5:      Singlet-A      5.8547 eV  211.77 nm  f=0.0753  <S**2>=0.000
      66 -> 71        -0.15230
      68 -> 71        -0.28328
      68 -> 72         0.13102
      69 -> 72         0.49828
      69 -> 73        -0.12305
      70 -> 71        -0.10859
      70 -> 73        -0.26155

 Excited State   6:      Singlet-A      6.0230 eV  205.85 nm  f=0.0179  <S**2>=0.000
      64 -> 71        -0.12110
      67 -> 71         0.65958
      68 -> 71        -0.17013

 Excited State   7:      Singlet-A      6.2037 eV  199.85 nm  f=0.0069  <S**2>=0.000
      66 -> 71        -0.42220
      66 -> 72         0.17939
      68 -> 72        -0.14823
      69 -> 72         0.13629
      69 -> 73         0.45174
      70 -> 73         0.17804

 Excited State   8:      Singlet-A      6.2358 eV  198.83 nm  f=0.4117  <S**2>=0.000
      66 -> 71         0.22596
      67 -> 71         0.17634
      68 -> 71         0.43426
      69 -> 71        -0.16395
      69 -> 72         0.36792
      70 -> 72        -0.17726

 Excited State   9:      Singlet-A      6.4777 eV  191.40 nm  f=0.0019  <S**2>=0.000
      70 -> 74         0.66645
      70 -> 75        -0.16516

 Excited State  10:      Singlet-A      6.5736 eV  188.61 nm  f=0.0153  <S**2>=0.000
      66 -> 71         0.40318
      66 -> 72         0.10247
      68 -> 71        -0.18364
      68 -> 72        -0.18907
      69 -> 73         0.36823
      70 -> 73        -0.29260

 The electronic state is 1-A.
 Alpha  occ. eigenvalues --  -66.14293 -19.15441 -10.24792 -10.19454 -10.18973
 Alpha  occ. eigenvalues --  -10.18887 -10.18578 -10.18534 -10.18403 -10.18381
 Alpha  occ. eigenvalues --  -10.18330 -10.18224 -10.18127 -10.17701 -10.17542
 Alpha  occ. eigenvalues --  -10.17145 -10.16968 -10.16880  -5.28450  -3.64581
 Alpha  occ. eigenvalues --   -3.64219  -3.64209  -1.02635  -0.86407  -0.80949
 Alpha  occ. eigenvalues --   -0.76609  -0.76120  -0.74572  -0.74342  -0.72968
 Alpha  occ. eigenvalues --   -0.71043  -0.63743  -0.61929  -0.61094  -0.60705
 Alpha  occ. eigenvalues --   -0.60194  -0.59227  -0.53802  -0.50981  -0.50202
 Alpha  occ. eigenvalues --   -0.45848  -0.45185  -0.44652  -0.44228  -0.43540
 Alpha  occ. eigenvalues --   -0.43350  -0.42746  -0.42276  -0.41351  -0.41192
 Alpha  occ. eigenvalues --   -0.40600  -0.40436  -0.37719  -0.37487  -0.37151
 Alpha  occ. eigenvalues --   -0.36287  -0.36120  -0.35824  -0.35155  -0.34883
 Alpha  occ. eigenvalues --   -0.34172  -0.33997  -0.33206  -0.31200  -0.30509
 Alpha  occ. eigenvalues --   -0.27981  -0.27375  -0.27090  -0.22591  -0.20248
 Alpha virt. eigenvalues --   -0.03062   0.00240   0.03758   0.06027   0.07144
 Alpha virt. eigenvalues --    0.08232   0.09079   0.10027   0.10963   0.11650
 Alpha virt. eigenvalues --    0.11972   0.13135   0.13687   0.14270   0.14872

 Mulliken atomic charges:
              1
     1  C   -0.458496
     2  C   -0.487694
     3  Si   0.907589
     4  O   -0.596042
     5  C    0.397354
     6  C   -0.196307
     7  C   -0.215153
     8  C    0.152143
     9  C    0.135545
    10  C   -0.271381
    11  C   -0.207188
    12  C   -0.158041
    13  C   -0.113150
    14  C   -0.217025
    15  C   -0.472972
    16  C   -0.450244
    17  C   -0.495759
    18  C   -0.450835
    19  H    0.153726
    20  H    0.151901
    21  H    0.151326
    22  H    0.163411
    23  H    0.161790
    24  H    0.123903
    25  H    0.124352
    26  H    0.143814
    27  H    0.114219
    28  H    0.114774
    29  H    0.130274
    30  H    0.122546
    31  H    0.160434
    32  H    0.151577
    33  H    0.167139
    34  H    0.144862
    35  H    0.146891
    36  H    0.155306
    37  H    0.154880
    38  H    0.162288
    39  H    0.147062
    40  H    0.151180
 Sum of Mulliken atomic charges =  -0.00000

 Dipole moment (field-independent basis, Debye):
    X=             -2.8403    Y=             -1.0306    Z=             -0.2539  Tot=              3.0322
 Quadrupole moment (field-independent basis, Debye-Ang):
   XX=           -109.6303   YY=           -112.2298   ZZ=           -118.7402
   XY=              2.7768   XZ=             -0.3691   YZ=             -0.2560

 Summary of Natural Population Analysis:

                                       Natural Population
                Natural  -----------------------------------------------
    Atom  No    Charge         Core      Valence    Rydberg      Total
 -----------------------------------------------------------------------
      C    1   -0.67289      1.99948     4.66460    0.00882     6.67289
      C    2   -0.99167      1.99936     4.97842    0.01389     6.99167
     Si    3    2.06439      9.99763     1.89221    0.04577    11.93561
      O    4   -0.80730      1.99975     6.79524    0.01230     8.80730
      C    5    0.39176      1.99878     3.58694    0.02252     5.60824
      C    6   -0.34217      1.99905     4.32609    0.01703     6.34217
      C    7   -0.21871      1.99907     4.20429    0.01535     6.21871
      C    8   -0.04543      1.99902     4.03138    0.01503     6.04543
      C    9   -0.05307      1.99903     4.03829    0.01574     6.05307
      C   10   -0.26490      1.99899     4.25209    0.01383     6.26490
      C   11   -0.22785      1.99906     4.21351    0.01527     6.22785
      C   12   -0.29853      1.99912     4.28304    0.01637     6.29853
      C   13   -0.16664      1.99911     4.15291    0.01462     6.16664
      C   14   -0.25137      1.99907     4.23691    0.01539     6.25137
      C   15   -0.99090      1.99936     4.97806    0.01348     6.99090
      C   16   -0.67098      1.99948     4.66209    0.00941     6.67098
      C   17   -0.99145      1.99936     4.97884    0.01324     6.99145
      C   18   -0.67160      1.99948     4.66231    0.00981     6.67160
      H   19    0.23783      0.00000     0.76099    0.00118     0.76217
      H   20    0.22604      0.00000     0.77277    0.00120     0.77396
      H   21    0.22681      0.00000     0.77206    0.00112     0.77319
      H   22    0.25570      0.00000     0.74289    0.00141     0.74430
      H   23    0.25551      0.00000     0.74278    0.00171     0.74449
      H   24    0.23998      0.00000     0.75896    0.00106     0.76002
      H   25    0.23163      0.00000     0.76726    0.00111     0.76837
      H   26    0.22903      0.00000     0.76946    0.00151     0.77097
      H   27    0.22420      0.00000     0.77463    0.00117     0.77580
      H   28    0.23040      0.00000     0.76880    0.00081     0.76960
      H   29    0.23199      0.00000     0.76714    0.00087     0.76801
      H   30    0.22911      0.00000     0.76976    0.00113     0.77089
      H   31    0.25471      0.00000     0.74396    0.00133     0.74529
      H   32    0.24932      0.00000     0.74951    0.00117     0.75068
      H   33    0.23567      0.00000     0.76285    0.00148     0.76433
      H   34    0.23259      0.00000     0.76629    0.00112     0.76741
      H   35    0.22332      0.00000     0.77550    0.00118     0.77668
      H   36    0.24724      0.00000     0.75138    0.00138     0.75276
      H   37    0.25401      0.00000     0.74479    0.00120     0.74599
      H   38    0.23414      0.00000     0.76425    0.00161     0.76586
      H   39    0.23395      0.00000     0.76493    0.00111     0.76605
      H   40    0.22614      0.00000     0.77273    0.00113     0.77386
 =======================================================================
   * Total *   -0.00000     43.98419    95.70092    0.31489   140.00000

 Normal termination of Gaussian 09 at Wed Sep 29 03:19:05 2021.
