 Gaussian 09, Revision A.02,

 -----------------------------------
 #p opt b3lyp/6-31G* scf=(xqc,tight)
 -----------------------------------

 ---------------------------------------
 COc1ccc(c2c1cccc2)OC(=O)C(C)(C)C_conf_0
 ---------------------------------------
 Symbolic Z-matrix:
 Charge =  0 Multiplicity = 1

 SCF Done:  E(RB3LYP) =  -846.224055781     A.U. after   16 cycles
 SCF Done:  E(RB3LYP) =  -846.231114761     A.U. after   13 cycles
 SCF Done:  E(RB3LYP) =  -846.230518470     A.U. after   13 cycles
 SCF Done:  E(RB3LYP) =  -846.231657424     A.U. after   12 cycles
 SCF Done:  E(RB3LYP) =  -846.230882324     A.U. after   12 cycles
 SCF Done:  E(RB3LYP) =  -846.231900376     A.U. after   12 cycles
 SCF Done:  E(RB3LYP) =  -846.231997572     A.U. after   12 cycles
 SCF Done:  E(RB3LYP) =  -846.232052394     A.U. after   11 cycles
 SCF Done:  E(RB3LYP) =  -846.232098144     A.U. after   12 cycles
 SCF Done:  E(RB3LYP) =  -846.232193776     A.U. after   14 cycles
 SCF Done:  E(RB3LYP) =  -846.232223541     A.U. after   12 cycles
 SCF Done:  E(RB3LYP) =  -846.232238767     A.U. after   10 cycles
 SCF Done:  E(RB3LYP) =  -846.232243376     A.U. after   11 cycles
 SCF Done:  E(RB3LYP) =  -846.232246303     A.U. after   11 cycles
 SCF Done:  E(RB3LYP) =  -846.232247145     A.U. after   10 cycles
 SCF Done:  E(RB3LYP) =  -846.232248052     A.U. after    9 cycles
 SCF Done:  E(RB3LYP) =  -846.232248187     A.U. after    7 cycles
 SCF Done:  E(RB3LYP) =  -846.232248274     A.U. after    6 cycles
 Optimization completed.
    -- Stationary point found.
 Normal termination of Gaussian 09 at Wed Sep 29 07:46:22 2021.

 ----------------------------------------------------------------------
 #p freq b3lyp/6-31G* volume NMR pop=NPA density=current Geom=AllCheck
 Guess=Read
 ----------------------------------------------------------------------

 COc1ccc(c2c1cccc2)OC(=O)C(C)(C)C_conf_0
 ---------------------------------------
 Redundant internal coordinates taken from checkpoint file:
 C16H18O3_ed73_conf_0.chk
 Charge =  0 Multiplicity = 1

 SCF Done:  E(RB3LYP) =  -846.232248274     A.U. after    1 cycles

  1  C    Isotropic =   137.0427   Anisotropy =    66.3666

  2  O    Isotropic =   240.3602   Anisotropy =    98.9156

  3  C    Isotropic =    44.3317   Anisotropy =   116.4532

  4  C    Isotropic =    92.2138   Anisotropy =   131.7348

  5  C    Isotropic =    75.5714   Anisotropy =   143.7547

  6  C    Isotropic =    55.2978   Anisotropy =    89.4013

  7  C    Isotropic =    68.3261   Anisotropy =   177.1733

  8  C    Isotropic =    70.1396   Anisotropy =   172.1104

  9  C    Isotropic =    71.9920   Anisotropy =   167.2850

 10  C    Isotropic =    71.4194   Anisotropy =   161.4309

 11  C    Isotropic =    69.9397   Anisotropy =   163.5910

 12  C    Isotropic =    73.6814   Anisotropy =   160.3470

 13  O    Isotropic =   116.6152   Anisotropy =   170.8837

 14  C    Isotropic =    22.0992   Anisotropy =    79.1363

 15  O    Isotropic =   -62.7663   Anisotropy =   575.9877

 16  C    Isotropic =   148.5888   Anisotropy =    24.5554

 17  C    Isotropic =   161.5002   Anisotropy =    38.1599

 18  C    Isotropic =   162.6269   Anisotropy =    31.5465

 19  C    Isotropic =   162.3183   Anisotropy =    37.0315

 20  H    Isotropic =    28.0603   Anisotropy =     8.6817

 21  H    Isotropic =    28.4379   Anisotropy =     8.5657

 22  H    Isotropic =    28.4183   Anisotropy =     8.5273

 23  H    Isotropic =    25.8219   Anisotropy =     7.6919

 24  H    Isotropic =    25.1379   Anisotropy =     9.3183

 25  H    Isotropic =    23.9296   Anisotropy =     9.8281

 26  H    Isotropic =    24.8005   Anisotropy =     5.1992

 27  H    Isotropic =    24.7676   Anisotropy =     6.1799

 28  H    Isotropic =    24.2735   Anisotropy =    10.0615

 29  H    Isotropic =    30.7655   Anisotropy =     8.2973

 30  H    Isotropic =    30.3369   Anisotropy =     5.4747

 31  H    Isotropic =    31.0052   Anisotropy =     8.0119

 32  H    Isotropic =    30.5446   Anisotropy =     8.2550

 33  H    Isotropic =    31.4618   Anisotropy =     8.0099

 34  H    Isotropic =    30.6774   Anisotropy =     7.8174

 35  H    Isotropic =    30.1075   Anisotropy =     7.2153

 36  H    Isotropic =    30.7109   Anisotropy =     7.8190

 37  H    Isotropic =    31.0330   Anisotropy =     8.0089

  Exact polarizability: 230.334   0.834 210.212   4.509  -3.788  97.186
 Approx polarizability: 322.746  -4.221 353.388  12.609  -3.204 152.252

                     1                      2                      3
                     A                      A                      A
 Frequencies --    14.6911                36.0645                41.9479
 Red. masses --     3.5180                 4.9012                 4.6092
 Frc consts  --     0.0004                 0.0038                 0.0048
 IR Inten    --     0.5451                 0.3712                 0.8719

                     4                      5                      6
                     A                      A                      A
 Frequencies --    59.9037                87.4845               141.2472
 Red. masses --     4.3759                 3.5185                 3.7166
 Frc consts  --     0.0093                 0.0159                 0.0437
 IR Inten    --     1.4908                 2.1059                 3.1972

                     7                      8                      9
                     A                      A                      A
 Frequencies --   150.4400               174.5961               200.5806
 Red. masses --     3.8479                 3.9291                 1.9481
 Frc consts  --     0.0513                 0.0706                 0.0462
 IR Inten    --     0.3995                 1.9348                 0.3677

                    10                     11                     12
                     A                      A                      A
 Frequencies --   208.0993               224.0721               228.5774
 Red. masses --     3.6771                 1.3758                 2.9401
 Frc consts  --     0.0938                 0.0407                 0.0905
 IR Inten    --     0.3281                 0.3524                 0.4663

                    13                     14                     15
                     A                      A                      A
 Frequencies --   254.8173               269.5285               272.8561
 Red. masses --     1.2751                 1.2333                 1.1221
 Frc consts  --     0.0488                 0.0528                 0.0492
 IR Inten    --     0.0447                 0.2940                 0.0332

                    16                     17                     18
                     A                      A                      A
 Frequencies --   296.9497               315.0696               355.2808
 Red. masses --     2.3044                 3.3383                 3.0168
 Frc consts  --     0.1197                 0.1952                 0.2244
 IR Inten    --     1.7487                 5.5554                 4.5129

                    19                     20                     21
                     A                      A                      A
 Frequencies --   367.9749               379.9774               411.1558
 Red. masses --     3.6697                 2.6069                 5.4036
 Frc consts  --     0.2928                 0.2218                 0.5382
 IR Inten    --     3.6411                 1.9620                 0.4425

                    22                     23                     24
                     A                      A                      A
 Frequencies --   429.7579               439.6769               479.0917
 Red. masses --     3.3061                 3.4977                 3.6629
 Frc consts  --     0.3598                 0.3984                 0.4954
 IR Inten    --     3.2637                 6.2970                 0.1179

                    25                     26                     27
                     A                      A                      A
 Frequencies --   480.7370               530.0571               557.9989
 Red. masses --     5.7693                 6.2284                 5.1522
 Frc consts  --     0.7856                 1.0310                 0.9452
 IR Inten    --     0.8369                 1.9917                 2.6214

                    28                     29                     30
                     A                      A                      A
 Frequencies --   598.6031               613.5276               630.5720
 Red. masses --     3.8928                 4.5897                 3.3299
 Frc consts  --     0.8218                 1.0179                 0.7801
 IR Inten    --     2.8328                 5.8222                 2.4115

                    31                     32                     33
                     A                      A                      A
 Frequencies --   644.8704               730.5199               750.8963
 Red. masses --     3.7772                 5.4646                 6.5490
 Frc consts  --     0.9255                 1.7182                 2.1756
 IR Inten    --     1.0468                 5.9165                17.4646

                    34                     35                     36
                     A                      A                      A
 Frequencies --   758.6036               778.3231               785.1581
 Red. masses --     6.6535                 2.4503                 1.7834
 Frc consts  --     2.2560                 0.8745                 0.6477
 IR Inten    --     1.7578                16.2266                29.2408

                    37                     38                     39
                     A                      A                      A
 Frequencies --   806.1719               817.2052               836.7591
 Red. masses --     3.0689                 2.5487                 2.3622
 Frc consts  --     1.1751                 1.0028                 0.9745
 IR Inten    --     9.6769                10.5765                 8.9313

                    40                     41                     42
                     A                      A                      A
 Frequencies --   879.8510               892.4573               918.0002
 Red. masses --     1.6837                 2.3979                 1.6256
 Frc consts  --     0.7680                 1.1252                 0.8071
 IR Inten    --     2.6325                 8.0168                 3.4152

                    43                     44                     45
                     A                      A                      A
 Frequencies --   949.8954               955.3257               961.7322
 Red. masses --     1.7591                 1.6406                 1.3332
 Frc consts  --     0.9351                 0.8822                 0.7266
 IR Inten    --     1.2104                 3.6142                 0.3347

                    46                     47                     48
                     A                      A                      A
 Frequencies --   981.6872               992.6999              1009.0554
 Red. masses --     1.1987                 1.2654                 4.9831
 Frc consts  --     0.6806                 0.7347                 2.9894
 IR Inten    --     0.0146                 0.0491                 2.4136

                    49                     50                     51
                     A                      A                      A
 Frequencies --  1049.6278              1056.2966              1060.8486
 Red. masses --     2.7339                 2.0430                 1.4319
 Frc consts  --     1.7746                 1.3430                 0.9494
 IR Inten    --    15.1460                30.0006                 0.8037

                    52                     53                     54
                     A                      A                      A
 Frequencies --  1072.6796              1131.3726              1147.1047
 Red. masses --     2.0577                 3.1181                 4.3780
 Frc consts  --     1.3950                 2.3515                 3.3942
 IR Inten    --    18.1362                86.7832               769.8490

                    55                     56                     57
                     A                      A                      A
 Frequencies --  1184.6704              1184.9577              1189.5130
 Red. masses --     1.5696                 1.2774                 1.1757
 Frc consts  --     1.2978                 1.0568                 0.9801
 IR Inten    --    42.6858                 3.1027                 8.7814

                    58                     59                     60
                     A                      A                      A
 Frequencies --  1201.6727              1230.8846              1242.2247
 Red. masses --     1.6971                 1.4181                 2.6555
 Frc consts  --     1.4439                 1.2659                 2.4143
 IR Inten    --    14.1997                 2.5580                 1.9785

                    61                     62                     63
                     A                      A                      A
 Frequencies --  1257.4232              1266.3478              1278.5048
 Red. masses --     2.3457                 2.6937                 2.0558
 Frc consts  --     2.1852                 2.5451                 1.9799
 IR Inten    --    55.4588                42.0699                52.6360

                    64                     65                     66
                     A                      A                      A
 Frequencies --  1301.5664              1311.1342              1380.7031
 Red. masses --     2.6533                 2.8080                 6.1385
 Frc consts  --     2.6483                 2.8441                 6.8947
 IR Inten    --   204.2636                16.2238                 9.8685

                    67                     68                     69
                     A                      A                      A
 Frequencies --  1422.7328              1423.7729              1429.0806
 Red. masses --     1.2232                 6.4630                 1.3094
 Frc consts  --     1.4588                 7.7191                 1.5756
 IR Inten    --     2.9666                 8.3261                30.8872

                    70                     71                     72
                     A                      A                      A
 Frequencies --  1433.3792              1458.9880              1476.1029
 Red. masses --     1.9971                 1.2263                 2.2568
 Frc consts  --     2.4175                 1.5380                 2.8972
 IR Inten    --   107.8759                10.1485                23.8848

                    73                     74                     75
                     A                      A                      A
 Frequencies --  1496.6439              1508.3160              1515.0448
 Red. masses --     1.4527                 1.0489                 1.9901
 Frc consts  --     1.9171                 1.4060                 2.6914
 IR Inten    --    22.1514                 0.0115                57.1364

                    76                     77                     78
                     A                      A                      A
 Frequencies --  1516.2346              1518.7859              1521.2232
 Red. masses --     1.0461                 1.0486                 1.0462
 Frc consts  --     1.4169                 1.4252                 1.4265
 IR Inten    --     0.2575                 5.8580                 1.1988

                    79                     80                     81
                     A                      A                      A
 Frequencies --  1530.2792              1533.2097              1536.2644
 Red. masses --     1.0492                 1.0537                 1.0774
 Frc consts  --     1.4476                 1.4594                 1.4981
 IR Inten    --     5.5374                 6.8461                13.8673

                    82                     83                     84
                     A                      A                      A
 Frequencies --  1550.9141              1567.1485              1638.3071
 Red. masses --     1.0645                 3.6281                 6.7860
 Frc consts  --     1.5085                 5.2499                10.7314
 IR Inten    --    26.6470                 4.6164                36.9136

                    85                     86                     87
                     A                      A                      A
 Frequencies --  1656.3208              1683.6749              1832.1804
 Red. masses --     5.3642                 6.6295                12.7244
 Frc consts  --     8.6705                11.0725                25.1665
 IR Inten    --    57.2527                13.3010               186.0857

                    88                     89                     90
                     A                      A                      A
 Frequencies --  3027.4554              3049.3416              3051.5681
 Red. masses --     1.0344                 1.0354                 1.0361
 Frc consts  --     5.5859                 5.6726                 5.6848
 IR Inten    --    63.3140                27.3552                10.6652

                    91                     92                     93
                     A                      A                      A
 Frequencies --  3061.7391              3087.5427              3112.9983
 Red. masses --     1.0365                 1.1068                 1.1031
 Frc consts  --     5.7245                 6.2163                 6.2981
 IR Inten    --    27.7131                40.1875                 9.8387

                    94                     95                     96
                     A                      A                      A
 Frequencies --  3114.3847              3129.2294              3137.1669
 Red. masses --     1.1023                 1.1017                 1.1021
 Frc consts  --     6.2995                 6.3563                 6.3906
 IR Inten    --    29.2952                39.2232                 0.4434

                    97                     98                     99
                     A                      A                      A
 Frequencies --  3140.6601              3141.0273              3158.8145
 Red. masses --     1.1024                 1.1011                 1.1002
 Frc consts  --     6.4066                 6.4004                 6.4677
 IR Inten    --    23.0189                47.9882                24.1095

                   100                    101                    102
                     A                      A                      A
 Frequencies --  3186.4523              3201.9350              3226.3609
 Red. masses --     1.0865                 1.0919                 1.0881
 Frc consts  --     6.5000                 6.5955                 6.6735
 IR Inten    --     6.9870                24.8805                12.3821

                   103                    104                    105
                     A                      A                      A
 Frequencies --  3228.7300              3233.2995              3239.7383
 Red. masses --     1.0922                 1.0930                 1.0937
 Frc consts  --     6.7081                 6.7321                 6.7634
 IR Inten    --    13.7111                 8.5563                 4.3104

 - Thermochemistry -
 -------------------
 Temperature   298.150 Kelvin.  Pressure   1.00000 Atm.
 Atom     1 has atomic number  6 and mass  12.00000

 Molecular mass:   258.12559 amu.
 Principal axes and moments of inertia in atomic units:
                           1         2         3
     Eigenvalues --  2607.362798191.77089**********
           X            0.99991   0.01289   0.00343
           Y           -0.01287   0.99989  -0.00688
           Z           -0.00352   0.00683   0.99997
 This molecule is an asymmetric top.
 Rotational symmetry number  1.
 Warning -- assumption of classical behavior for rotation
           may cause significant error
 Rotational temperatures (Kelvin)      0.03322     0.01057     0.00853
 Rotational constants (GHZ):           0.69217     0.22031     0.17771
 Zero-point vibrational energy     807629.6 (Joules/Mol)
                                  193.02811 (Kcal/Mol)
 Warning -- explicit consideration of  29 degrees of freedom as
           vibrations may cause significant error
 Vibrational temperatures:     21.14    51.89    60.35    86.19   125.87
          (Kelvin)            203.22   216.45   251.20   288.59   299.41
                              322.39   328.87   366.62   387.79   392.58
                              427.24   453.31   511.17   529.43   546.70
                              591.56   618.33   632.60   689.31   691.67
                              762.63   802.84   861.26   882.73   907.25
                              927.82  1051.05  1080.37  1091.46  1119.83
                             1129.67  1159.90  1175.77  1203.91  1265.91
                             1284.05  1320.80  1366.69  1374.50  1383.72
                             1412.43  1428.27  1451.80  1510.18  1519.77
                             1526.32  1543.34  1627.79  1650.43  1704.47
                             1704.89  1711.44  1728.94  1770.97  1787.28
                             1809.15  1821.99  1839.48  1872.66  1886.43
                             1986.52  2046.99  2048.49  2056.13  2062.31
                             2099.16  2123.78  2153.33  2170.13  2179.81
                             2181.52  2185.19  2188.70  2201.73  2205.94
                             2210.34  2231.42  2254.77  2357.16  2383.07
                             2422.43  2636.10  4355.83  4387.32  4390.52
                             4405.15  4442.28  4478.90  4480.90  4502.26
                             4513.68  4518.70  4519.23  4544.82  4584.59
                             4606.86  4642.01  4645.42  4651.99  4661.25

 Zero-point correction=                           0.307610 (Hartree/Particle)
 Thermal correction to Energy=                    0.325758
 Thermal correction to Enthalpy=                  0.326702
 Thermal correction to Gibbs Free Energy=         0.260293
 Sum of electronic and zero-point Energies=           -845.924638
 Sum of electronic and thermal Energies=              -845.906491
 Sum of electronic and thermal Enthalpies=            -845.905547
 Sum of electronic and thermal Free Energies=         -845.971955

                     E (Thermal)             CV                S
                      KCal/Mol        Cal/Mol-Kelvin    Cal/Mol-Kelvin
 Total                  204.416             69.743            139.769
 Electronic               0.000              0.000              0.000
 Translational            0.889              2.981             42.545
 Rotational               0.889              2.981             33.739
 Vibrational            202.639             63.781             63.486
 Vibration     1          0.593              1.986              7.247
 Vibration     2          0.594              1.982              5.464
 Vibration     3          0.595              1.980              5.165
 Vibration     4          0.597              1.973              4.460
 Vibration     5          0.601              1.958              3.716
 Vibration     6          0.615              1.912              2.787
 Vibration     7          0.618              1.902              2.667
 Vibration     8          0.627              1.874              2.385
 Vibration     9          0.638              1.839              2.128
 Vibration    10          0.641              1.828              2.060
 Vibration    11          0.649              1.804              1.926
 Vibration    12          0.651              1.797              1.890
 Vibration    13          0.665              1.755              1.697
 Vibration    14          0.674              1.729              1.599
 Vibration    15          0.676              1.723              1.578
 Vibration    16          0.691              1.679              1.434
 Vibration    17          0.702              1.645              1.336
 Vibration    18          0.731              1.564              1.143
 Vibration    19          0.741              1.538              1.088
 Vibration    20          0.750              1.513              1.039
 Vibration    21          0.775              1.446              0.923
 Vibration    22          0.791              1.405              0.859
 Vibration    23          0.800              1.384              0.828
 Vibration    24          0.836              1.296              0.713
 Vibration    25          0.837              1.293              0.708
 Vibration    26          0.885              1.183              0.587
 Vibration    27          0.914              1.122              0.528
 Vibration    28          0.957              1.035              0.452
 Vibration    29          0.973              1.003              0.427

 Optimization completed.
    -- Stationary point found.
 Normal termination of Gaussian 09 at Wed Sep 29 09:23:58 2021.
 Gaussian 09:  AM64L-G09RevA.02 11-Jun-2009

 ----------------------------------------------------------------------
 #p TD(NStates=10, Root=1) b3lyp/6-31G* volume pop=NPA density=current
 Geom=AllCheck Guess=Read
 ----------------------------------------------------------------------

 COc1ccc(c2c1cccc2)OC(=O)C(C)(C)C_conf_0
 ---------------------------------------
 Redundant internal coordinates taken from checkpoint file:
 C16H18O3_ed73_conf_0.chk
 Charge =  0 Multiplicity = 1

                         Standard orientation:
 ---------------------------------------------------------------------
 Center     Atomic      Atomic             Coordinates (Angstroms)
 Number     Number       Type             X           Y           Z
 ---------------------------------------------------------------------
      1          6           0       -4.593636   -2.331186   -0.034566
      2          8           0       -4.071532   -1.012707   -0.054096
      3          6           0       -2.720928   -0.851140    0.056409
      4          6           0       -1.816983   -1.883931    0.202047
      5          6           0       -0.432728   -1.611632    0.310640
      6          6           0        0.027443   -0.321219    0.265574
      7          6           0       -0.865737    0.777830    0.115204
      8          6           0       -2.267769    0.507529    0.012894
      9          6           0       -3.170308    1.591730   -0.132685
     10          6           0       -2.709403    2.889389   -0.177170
     11          6           0       -1.324892    3.157171   -0.077984
     12          6           0       -0.423398    2.125757    0.066213
     13          8           0        1.380986   -0.013601    0.442073
     14          6           0        2.332199   -0.579960   -0.372769
     15          8           0        2.073165   -1.339116   -1.274039
     16          6           0        3.737289   -0.130414    0.044435
     17          6           0        4.014871   -0.652389    1.473004
     18          6           0        4.752819   -0.725648   -0.943749
     19          6           0        3.821353    1.411480    0.027880
     20          1           0       -5.674603   -2.227071   -0.144123
     21          1           0       -4.371029   -2.837527    0.913968
     22          1           0       -4.199014   -2.931041   -0.865038
     23          1           0       -2.145862   -2.915528    0.235459
     24          1           0        0.265318   -2.432878    0.421923
     25          1           0       -4.230087    1.376987   -0.209085
     26          1           0       -3.411460    3.711154   -0.289234
     27          1           0       -0.970321    4.183832   -0.115624
     28          1           0        0.638839    2.328329    0.143926
     29          1           0        3.960455   -1.746578    1.512649
     30          1           0        3.298116   -0.245892    2.192227
     31          1           0        5.023073   -0.355523    1.784725
     32          1           0        4.702843   -1.818309   -0.953913
     33          1           0        5.767405   -0.426065   -0.657854
     34          1           0        4.563888   -0.377439   -1.963921
     35          1           0        3.132639    1.857977    0.750469
     36          1           0        3.588642    1.811850   -0.965743
     37          1           0        4.839050    1.726913    0.285422
 ---------------------------------------------------------------------

 SCF Done:  E(RB3LYP) =  -846.232248274     A.U. after    2 cycles

 Excitation energies and oscillator strengths:

 Excited State   1:      Singlet-A      4.0865 eV  303.40 nm  f=0.1386  <S**2>=0.000
      68 -> 71        -0.11213
      69 -> 70         0.69136
 This state for optimization and/or second-order correction.
 Total Energy, E(TD-HF/TD-KS) =  -846.082073707
 Copying the excited state density for this state as the 1-particle RhoCI density.

 Excited State   2:      Singlet-A      4.3735 eV  283.49 nm  f=0.0237  <S**2>=0.000
      68 -> 70         0.39524
      69 -> 71         0.58234

 Excited State   3:      Singlet-A      4.9199 eV  252.01 nm  f=0.0255  <S**2>=0.000
      69 -> 72         0.70093

 Excited State   4:      Singlet-A      5.4215 eV  228.69 nm  f=0.0628  <S**2>=0.000
      66 -> 70         0.37224
      66 -> 72        -0.35186
      67 -> 70         0.35090
      67 -> 72        -0.14316
      68 -> 70         0.20412
      68 -> 72        -0.12469
      69 -> 71        -0.12357

 Excited State   5:      Singlet-A      5.5378 eV  223.89 nm  f=0.0669  <S**2>=0.000
      66 -> 70        -0.23162
      66 -> 72         0.13201
      67 -> 70         0.51052
      67 -> 71         0.11791
      68 -> 70        -0.21199
      68 -> 71         0.15022
      69 -> 71         0.12735
      69 -> 73         0.23302

 Excited State   6:      Singlet-A      5.6551 eV  219.24 nm  f=0.2947  <S**2>=0.000
      65 -> 70        -0.10817
      66 -> 70        -0.20159
      66 -> 72         0.22099
      67 -> 71        -0.32935
      68 -> 70         0.38458
      68 -> 72         0.10703
      69 -> 71        -0.28636
      69 -> 73         0.10367

 Excited State   7:      Singlet-A      5.9433 eV  208.61 nm  f=0.0066  <S**2>=0.000
      66 -> 70         0.47704
      66 -> 72         0.38136
      67 -> 72         0.17714
      68 -> 72         0.25029

 Excited State   8:      Singlet-A      6.0882 eV  203.65 nm  f=0.1629  <S**2>=0.000
      66 -> 72        -0.19091
      67 -> 71        -0.39909
      68 -> 70        -0.22670
      68 -> 71        -0.11146
      68 -> 72         0.40104
      68 -> 73         0.11941
      69 -> 71         0.12296
      69 -> 73        -0.15441

 Excited State   9:      Singlet-A      6.2020 eV  199.91 nm  f=0.0791  <S**2>=0.000
      66 -> 71         0.16895
      66 -> 72        -0.15111
      67 -> 70        -0.22088
      67 -> 72         0.12264
      67 -> 73         0.10890
      68 -> 71         0.51366
      68 -> 72         0.16951
      69 -> 73         0.23055

 Excited State  10:      Singlet-A      6.2816 eV  197.38 nm  f=0.2613  <S**2>=0.000
      66 -> 71        -0.11744
      67 -> 70        -0.14645
      68 -> 71        -0.32257
      68 -> 72         0.13996
      69 -> 73         0.55139

 The electronic state is 1-A.
 Alpha  occ. eigenvalues --  -19.19583 -19.18225 -19.13715 -10.31333 -10.24912
 Alpha  occ. eigenvalues --  -10.24399 -10.24167 -10.21326 -10.19970 -10.19716
 Alpha  occ. eigenvalues --  -10.19169 -10.18881 -10.18873 -10.18716 -10.18707
 Alpha  occ. eigenvalues --  -10.18617 -10.18246 -10.18225 -10.17356  -1.10197
 Alpha  occ. eigenvalues --   -1.06819  -1.02008  -0.86939  -0.82598  -0.81585
 Alpha  occ. eigenvalues --   -0.77368  -0.74465  -0.72547  -0.70529  -0.69184
 Alpha  occ. eigenvalues --   -0.68567  -0.65019  -0.61886  -0.61835  -0.58039
 Alpha  occ. eigenvalues --   -0.54832  -0.53222  -0.51464  -0.50323  -0.48660
 Alpha  occ. eigenvalues --   -0.47574  -0.47165  -0.46638  -0.45557  -0.43696
 Alpha  occ. eigenvalues --   -0.43548  -0.43182  -0.42428  -0.42114  -0.40946
 Alpha  occ. eigenvalues --   -0.40728  -0.39814  -0.39137  -0.38499  -0.38106
 Alpha  occ. eigenvalues --   -0.36849  -0.35821  -0.35521  -0.34444  -0.34019
 Alpha  occ. eigenvalues --   -0.33492  -0.33333  -0.32984  -0.31915  -0.29762
 Alpha  occ. eigenvalues --   -0.26879  -0.25763  -0.24228  -0.19752
 Alpha virt. eigenvalues --   -0.03156  -0.00773   0.00944   0.04863   0.07868
 Alpha virt. eigenvalues --    0.09403   0.10393   0.10462   0.11222   0.12525
 Alpha virt. eigenvalues --    0.13067   0.13718   0.14990   0.15095   0.15335

 Mulliken atomic charges:
              1
     1  C   -0.229900
     2  O   -0.464839
     3  C    0.328196
     4  C   -0.199850
     5  C   -0.151553
     6  C    0.297666
     7  C    0.106108
     8  C    0.069769
     9  C   -0.224507
    10  C   -0.130537
    11  C   -0.135998
    12  C   -0.238286
    13  O   -0.522986
    14  C    0.625518
    15  O   -0.464517
    16  C   -0.009366
    17  C   -0.453536
    18  C   -0.433902
    19  C   -0.454977
    20  H    0.184110
    21  H    0.167265
    22  H    0.169760
    23  H    0.146812
    24  H    0.155051
    25  H    0.125020
    26  H    0.116680
    27  H    0.114387
    28  H    0.123625
    29  H    0.149049
    30  H    0.164253
    31  H    0.150183
    32  H    0.155655
    33  H    0.137397
    34  H    0.156716
    35  H    0.169980
    36  H    0.154524
    37  H    0.147030
 Sum of Mulliken atomic charges =  -0.00000

 Dipole moment (field-independent basis, Debye):
    X=             -0.8115    Y=             -3.0361    Z=              1.4935  Tot=              3.4795
 Quadrupole moment (field-independent basis, Debye-Ang):
   XX=            -91.3850   YY=           -103.8322   ZZ=           -117.2190
   XY=             15.6595   XZ=              3.4511   YZ=             -3.8963

 Summary of Natural Population Analysis:

                                       Natural Population
                Natural  -----------------------------------------------
    Atom  No    Charge         Core      Valence    Rydberg      Total
 -----------------------------------------------------------------------
      C    1   -0.32373      1.99943     4.31002    0.01428     6.32373
      O    2   -0.46133      1.99974     6.44958    0.01201     8.46133
      C    3    0.36542      1.99873     3.61357    0.02227     5.63458
      C    4   -0.28246      1.99904     4.27020    0.01322     6.28246
      C    5   -0.25860      1.99901     4.24381    0.01577     6.25860
      C    6    0.37078      1.99862     3.60758    0.02302     5.62922
      C    7   -0.07958      1.99896     4.06547    0.01515     6.07958
      C    8   -0.07100      1.99899     4.05669    0.01532     6.07100
      C    9   -0.29720      1.99907     4.28037    0.01776     6.29720
      C   10   -0.22262      1.99910     4.20809    0.01542     6.22262
      C   11   -0.23867      1.99911     4.22396    0.01560     6.23867
      C   12   -0.29481      1.99907     4.27827    0.01747     6.29481
      O   13   -0.53176      1.99969     6.52101    0.01106     8.53176
      C   14    0.82825      1.99927     3.12323    0.04924     5.17175
      O   15   -0.57746      1.99977     6.55757    0.02012     8.57746
      C   16   -0.15072      1.99905     4.13924    0.01243     6.15072
      C   17   -0.66978      1.99938     4.66074    0.00965     6.66978
      C   18   -0.66964      1.99940     4.65916    0.01109     6.66964
      C   19   -0.67127      1.99938     4.66189    0.01000     6.67127
      H   20    0.23627      0.00000     0.76323    0.00051     0.76373
      H   21    0.21227      0.00000     0.78596    0.00178     0.78773
      H   22    0.21367      0.00000     0.78455    0.00177     0.78633
      H   23    0.24254      0.00000     0.75660    0.00086     0.75746
      H   24    0.25635      0.00000     0.74269    0.00095     0.74365
      H   25    0.23778      0.00000     0.76114    0.00109     0.76222
      H   26    0.22964      0.00000     0.76952    0.00084     0.77036
      H   27    0.22930      0.00000     0.76989    0.00082     0.77070
      H   28    0.23240      0.00000     0.76648    0.00112     0.76760
      H   29    0.23455      0.00000     0.76450    0.00096     0.76545
      H   30    0.24347      0.00000     0.75546    0.00107     0.75653
      H   31    0.23578      0.00000     0.76308    0.00114     0.76422
      H   32    0.24277      0.00000     0.75616    0.00107     0.75723
      H   33    0.23012      0.00000     0.76896    0.00092     0.76988
      H   34    0.24305      0.00000     0.75594    0.00101     0.75695
      H   35    0.24323      0.00000     0.75568    0.00109     0.75677
      H   36    0.23826      0.00000     0.76078    0.00096     0.76174
      H   37    0.23471      0.00000     0.76421    0.00108     0.76529
 =======================================================================
   * Total *    0.00000     37.98482    99.67526    0.33993   138.00000

 Normal termination of Gaussian 09 at Wed Sep 29 16:45:31 2021.
