 Gaussian 09, Revision A.02,

 -----------------------------------
 #p opt b3lyp/6-31G* scf=(xqc,tight)
 -----------------------------------

 ---------------------------------
 COCCCCc1ccc2c(c1)ccc(c2)OC_conf_0
 ---------------------------------
 Symbolic Z-matrix:
 Charge =  0 Multiplicity = 1

 SCF Done:  E(RB3LYP) =  -772.181446790     A.U. after   14 cycles
 SCF Done:  E(RB3LYP) =  -772.186559531     A.U. after   12 cycles
 SCF Done:  E(RB3LYP) =  -772.187071154     A.U. after   15 cycles
 SCF Done:  E(RB3LYP) =  -772.187211446     A.U. after   15 cycles
 SCF Done:  E(RB3LYP) =  -772.187278035     A.U. after   11 cycles
 SCF Done:  E(RB3LYP) =  -772.187297410     A.U. after   10 cycles
 SCF Done:  E(RB3LYP) =  -772.187299711     A.U. after    9 cycles
 SCF Done:  E(RB3LYP) =  -772.187299820     A.U. after    7 cycles
 Optimization completed.
    -- Stationary point found.
 Normal termination of Gaussian 09 at Tue Sep 28 19:45:51 2021.

 ----------------------------------------------------------------------
 #p freq b3lyp/6-31G* volume NMR pop=NPA density=current Geom=AllCheck
 Guess=Read
 ----------------------------------------------------------------------

 COCCCCc1ccc2c(c1)ccc(c2)OC_conf_0
 ---------------------------------
 Redundant internal coordinates taken from checkpoint file:
 C16H20O2_02c6_conf_0.chk
 Charge =  0 Multiplicity = 1

 SCF Done:  E(RB3LYP) =  -772.187299820     A.U. after    1 cycles

  1  C    Isotropic =   132.4630   Anisotropy =    80.4395

  2  O    Isotropic =   303.1849   Anisotropy =    29.6266

  3  C    Isotropic =   118.4898   Anisotropy =    61.2297

  4  C    Isotropic =   156.5287   Anisotropy =    22.0416

  5  C    Isotropic =   156.3473   Anisotropy =    32.9995

  6  C    Isotropic =   150.3958   Anisotropy =    32.0477

  7  C    Isotropic =    58.4750   Anisotropy =   174.4198

  8  C    Isotropic =    68.1633   Anisotropy =   152.3390

  9  C    Isotropic =    68.6103   Anisotropy =   140.3652

 10  C    Isotropic =    63.5336   Anisotropy =   194.0127

 11  C    Isotropic =    67.9545   Anisotropy =   189.1046

 12  C    Isotropic =    68.6890   Anisotropy =   123.3608

 13  C    Isotropic =    66.7359   Anisotropy =   143.1004

 14  C    Isotropic =    84.9324   Anisotropy =   144.2734

 15  C    Isotropic =    41.5318   Anisotropy =   121.3818

 16  C    Isotropic =    82.2815   Anisotropy =   112.9417

 17  O    Isotropic =   241.7562   Anisotropy =    68.4784

 18  C    Isotropic =   137.3752   Anisotropy =    65.1164

 19  H    Isotropic =    28.5933   Anisotropy =     9.1635

 20  H    Isotropic =    29.0668   Anisotropy =     8.9004

 21  H    Isotropic =    29.1146   Anisotropy =     8.2979

 22  H    Isotropic =    28.9562   Anisotropy =     4.6819

 23  H    Isotropic =    28.7540   Anisotropy =     5.6205

 24  H    Isotropic =    30.7651   Anisotropy =     6.5546

 25  H    Isotropic =    30.2517   Anisotropy =     5.4964

 26  H    Isotropic =    29.8450   Anisotropy =     6.4875

 27  H    Isotropic =    30.8253   Anisotropy =     4.0374

 28  H    Isotropic =    29.7425   Anisotropy =     5.2488

 29  H    Isotropic =    29.4196   Anisotropy =     4.7932

 30  H    Isotropic =    24.9020   Anisotropy =     8.4758

 31  H    Isotropic =    24.7305   Anisotropy =     7.5303

 32  H    Isotropic =    24.9305   Anisotropy =     9.5359

 33  H    Isotropic =    24.6970   Anisotropy =     7.7863

 34  H    Isotropic =    25.4252   Anisotropy =     7.9918

 35  H    Isotropic =    25.2470   Anisotropy =     8.1214

 36  H    Isotropic =    28.2313   Anisotropy =     8.3552

 37  H    Isotropic =    28.5110   Anisotropy =     8.3246

 38  H    Isotropic =    28.5183   Anisotropy =     8.3659

  Exact polarizability: 282.565   8.374 157.743 -33.105  22.033 117.767
 Approx polarizability: 374.705  16.038 266.876 -61.793  53.511 187.249

                     1                      2                      3
                     A                      A                      A
 Frequencies --    18.4248                32.2575                45.1831
 Red. masses --     4.1720                 4.4022                 3.1092
 Frc consts  --     0.0008                 0.0027                 0.0037
 IR Inten    --     0.1529                 0.0892                 0.8531

                     4                      5                      6
                     A                      A                      A
 Frequencies --    65.0354                84.4722                89.9906
 Red. masses --     3.3237                 3.6236                 2.2689
 Frc consts  --     0.0083                 0.0152                 0.0108
 IR Inten    --     0.7646                 3.0177                 3.6526

                     7                      8                      9
                     A                      A                      A
 Frequencies --   122.8475               140.3161               185.4546
 Red. masses --     3.1082                 2.3668                 3.1092
 Frc consts  --     0.0276                 0.0275                 0.0630
 IR Inten    --     1.1508                 1.4766                 0.5079

                    10                     11                     12
                     A                      A                      A
 Frequencies --   192.1685               212.7603               225.3009
 Red. masses --     3.2882                 2.4178                 3.6499
 Frc consts  --     0.0715                 0.0645                 0.1092
 IR Inten    --     1.5623                 1.0557                 0.1157

                    13                     14                     15
                     A                      A                      A
 Frequencies --   245.6800               266.1418               288.6381
 Red. masses --     1.3388                 1.3906                 2.3641
 Frc consts  --     0.0476                 0.0580                 0.1160
 IR Inten    --     2.3504                 0.7707                 1.7233

                    16                     17                     18
                     A                      A                      A
 Frequencies --   293.3136               337.4781               359.3021
 Red. masses --     2.6570                 3.2401                 4.2399
 Frc consts  --     0.1347                 0.2174                 0.3225
 IR Inten    --     2.2778                 1.1204                 0.5132

                    19                     20                     21
                     A                      A                      A
 Frequencies --   407.7058               416.6862               445.5413
 Red. masses --     3.5504                 3.4800                 4.1373
 Frc consts  --     0.3477                 0.3560                 0.4839
 IR Inten    --     0.6815                 0.0452                 0.1561

                    22                     23                     24
                     A                      A                      A
 Frequencies --   488.8700               520.3494               534.7253
 Red. masses --     2.6619                 3.5522                 5.3459
 Frc consts  --     0.3748                 0.5667                 0.9006
 IR Inten    --     6.5361                 2.7398                 0.2600

                    25                     26                     27
                     A                      A                      A
 Frequencies --   558.3558               587.8532               621.7893
 Red. masses --     3.5718                 3.0251                 4.6970
 Frc consts  --     0.6561                 0.6159                 1.0699
 IR Inten    --     9.0225                 3.1115                 4.5068

                    28                     29                     30
                     A                      A                      A
 Frequencies --   675.8754               706.7973               747.1762
 Red. masses --     3.9526                 5.0707                 1.1616
 Frc consts  --     1.0638                 1.4925                 0.3821
 IR Inten    --     2.3787                 4.5941                 0.5792

                    31                     32                     33
                     A                      A                      A
 Frequencies --   766.5294               773.9147               816.9121
 Red. masses --     3.4213                 4.7187                 1.5382
 Frc consts  --     1.1844                 1.6652                 0.6048
 IR Inten    --     1.9250                 3.1886                17.8312

                    34                     35                     36
                     A                      A                      A
 Frequencies --   817.8375               825.7693               847.7133
 Red. masses --     1.7059                 1.4399                 3.0258
 Frc consts  --     0.6723                 0.5785                 1.2811
 IR Inten    --     1.8780                 7.1900                 8.0571

                    37                     38                     39
                     A                      A                      A
 Frequencies --   887.2987               899.5305               918.1412
 Red. masses --     1.5432                 1.5391                 1.9725
 Frc consts  --     0.7158                 0.7338                 0.9797
 IR Inten    --    33.3121                 8.0548                 9.1466

                    40                     41                     42
                     A                      A                      A
 Frequencies --   937.6133               948.7067               957.1201
 Red. masses --     3.1219                 1.3432                 1.9844
 Frc consts  --     1.6170                 0.7123                 1.0710
 IR Inten    --     1.2184                 2.0824                 9.0100

                    43                     44                     45
                     A                      A                      A
 Frequencies --   967.7164               983.3448              1027.4419
 Red. masses --     1.3184                 3.3777                 3.4079
 Frc consts  --     0.7274                 1.9244                 2.1196
 IR Inten    --     0.3530                 0.0588                12.0695

                    46                     47                     48
                     A                      A                      A
 Frequencies --  1065.0426              1082.6415              1092.0382
 Red. masses --     2.5343                 3.5233                 2.2143
 Frc consts  --     1.6938                 2.4331                 1.5558
 IR Inten    --     6.3508                50.9095                 0.5324

                    49                     50                     51
                     A                      A                      A
 Frequencies --  1121.9216              1167.5864              1169.0138
 Red. masses --     1.7696                 2.6043                 1.8244
 Frc consts  --     1.3124                 2.0918                 1.4689
 IR Inten    --     2.2103                79.7423                75.2580

                    52                     53                     54
                     A                      A                      A
 Frequencies --  1180.3618              1185.0115              1189.0801
 Red. masses --     1.6641                 1.2674                 1.3255
 Frc consts  --     1.3660                 1.0486                 1.1042
 IR Inten    --    24.6114                 0.5449                10.6729

                    55                     56                     57
                     A                      A                      A
 Frequencies --  1197.7017              1200.2500              1209.4424
 Red. masses --     1.4531                 1.6072                 1.3415
 Frc consts  --     1.2281                 1.3642                 1.1562
 IR Inten    --    19.3176                59.3991                44.3097

                    58                     59                     60
                     A                      A                      A
 Frequencies --  1220.2593              1244.9240              1268.1897
 Red. masses --     1.6378                 1.5597                 1.2895
 Frc consts  --     1.4369                 1.4242                 1.2219
 IR Inten    --     9.2359                18.3375                10.4220

                    61                     62                     63
                     A                      A                      A
 Frequencies --  1280.2593              1297.0682              1306.8011
 Red. masses --     1.9741                 1.7659                 1.3440
 Frc consts  --     1.9064                 1.7504                 1.3523
 IR Inten    --    44.0781                 4.5382                 0.5843

                    64                     65                     66
                     A                      A                      A
 Frequencies --  1315.8985              1323.4646              1344.1077
 Red. masses --     3.0162                 1.2577                 1.0913
 Frc consts  --     3.0772                 1.2979                 1.1617
 IR Inten    --   316.4516                 9.1973                 3.6520

                    67                     68                     69
                     A                      A                      A
 Frequencies --  1380.6028              1391.0264              1413.4166
 Red. masses --     1.4452                 2.0348                 3.3448
 Frc consts  --     1.6230                 2.3197                 3.9370
 IR Inten    --     2.8918                 4.5108                 9.9792

                    70                     71                     72
                     A                      A                      A
 Frequencies --  1420.5775              1428.2476              1437.6864
 Red. masses --     1.5461                 4.7576                 1.3719
 Frc consts  --     1.8383                 5.7180                 1.6707
 IR Inten    --    10.0862                 9.1408                45.9834

                    73                     74                     75
                     A                      A                      A
 Frequencies --  1463.1800              1502.1168              1504.0650
 Red. masses --     3.5013                 1.2402                 1.1613
 Frc consts  --     4.4164                 1.6487                 1.5478
 IR Inten    --     0.8022                19.2151                 2.4068

                    76                     77                     78
                     A                      A                      A
 Frequencies --  1506.4934              1513.1810              1515.4245
 Red. masses --     1.0918                 1.0939                 1.0485
 Frc consts  --     1.4599                 1.4757                 1.4187
 IR Inten    --     2.1103                 0.7122                 4.9028

                    79                     80                     81
                     A                      A                      A
 Frequencies --  1523.2461              1532.8133              1532.9247
 Red. masses --     1.0484                 1.0651                 1.3047
 Frc consts  --     1.4333                 1.4744                 1.8064
 IR Inten    --     5.0204                 9.8580                60.4534

                    82                     83                     84
                     A                      A                      A
 Frequencies --  1535.0017              1539.6853              1556.5333
 Red. masses --     1.0956                 1.6879                 1.0908
 Frc consts  --     1.5210                 2.3575                 1.5571
 IR Inten    --     5.4552                 0.9360                 0.7028

                    85                     86                     87
                     A                      A                      A
 Frequencies --  1560.2489              1621.0424              1667.9984
 Red. masses --     3.3322                 6.8988                 5.6593
 Frc consts  --     4.7793                10.6809                 9.2769
 IR Inten    --    65.1936                 5.2613               109.6335

                    88                     89                     90
                     A                      A                      A
 Frequencies --  1692.5748              2961.3295              2986.7774
 Red. masses --     6.3026                 1.0538                 1.0475
 Frc consts  --    10.6381                 5.4448                 5.5054
 IR Inten    --    38.5227                38.3710                78.8532

                    91                     92                     93
                     A                      A                      A
 Frequencies --  2989.1484              3022.8941              3023.5896
 Red. masses --     1.0953                 1.0367                 1.0599
 Frc consts  --     5.7658                 5.5817                 5.7091
 IR Inten    --    94.4722                84.3126                10.2269

                    94                     95                     96
                     A                      A                      A
 Frequencies --  3027.4777              3033.6888              3040.6191
 Red. masses --     1.1046                 1.0620                 1.0684
 Frc consts  --     5.9652                 5.7587                 5.8200
 IR Inten    --    67.6323                11.6285                76.7709

                    97                     98                     99
                     A                      A                      A
 Frequencies --  3063.1105              3070.8165              3080.9751
 Red. masses --     1.0981                 1.0986                 1.1067
 Frc consts  --     6.0702                 6.1040                 6.1896
 IR Inten    --    13.2432                22.5405                46.7193

                   100                    101                    102
                     A                      A                      A
 Frequencies --  3102.0507              3133.3251              3153.8296
 Red. masses --     1.1009                 1.0962                 1.0993
 Frc consts  --     6.2419                 6.3412                 6.4423
 IR Inten    --    43.9432                32.2019                32.0855

                   103                    104                    105
                     A                      A                      A
 Frequencies --  3165.3363              3171.6154              3181.2529
 Red. masses --     1.0897                 1.0862                 1.0891
 Frc consts  --     6.4328                 6.4376                 6.4938
 IR Inten    --    15.7723                 9.1047                17.1979

                   106                    107                    108
                     A                      A                      A
 Frequencies --  3190.7137              3203.8192              3226.0156
 Red. masses --     1.0950                 1.0905                 1.0913
 Frc consts  --     6.5681                 6.5948                 6.6913
 IR Inten    --    23.2057                 9.5066                15.4858

 - Thermochemistry -
 -------------------
 Temperature   298.150 Kelvin.  Pressure   1.00000 Atm.
 Atom     1 has atomic number  6 and mass  12.00000

 Molecular mass:   244.14633 amu.
 Principal axes and moments of inertia in atomic units:
                           1         2         3
     Eigenvalues --  1471.38956********************
           X            1.00000  -0.00207   0.00044
           Y            0.00207   0.99988   0.01508
           Z           -0.00047  -0.01508   0.99989
 This molecule is an asymmetric top.
 Rotational symmetry number  1.
 Warning -- assumption of classical behavior for rotation
           may cause significant error
 Rotational temperatures (Kelvin)      0.05887     0.00591     0.00576
 Rotational constants (GHZ):           1.22656     0.12324     0.12011
 Zero-point vibrational energy     860232.3 (Joules/Mol)
                                  205.60046 (Kcal/Mol)
 Warning -- explicit consideration of  26 degrees of freedom as
           vibrations may cause significant error
 Vibrational temperatures:     26.51    46.41    65.01    93.57   121.54
          (Kelvin)            129.48   176.75   201.88   266.83   276.49
                              306.11   324.16   353.48   382.92   415.29
                              422.01   485.56   516.95   586.60   599.52
                              641.03   703.37   748.67   769.35   803.35
                              845.79   894.62   972.43  1016.92  1075.02
                             1102.86  1113.49  1175.35  1176.68  1188.10
                             1219.67  1276.62  1294.22  1321.00  1349.01
                             1364.98  1377.08  1392.33  1414.81  1478.26
                             1532.36  1557.68  1571.20  1614.19  1679.89
                             1681.95  1698.28  1704.97  1710.82  1723.22
                             1726.89  1740.12  1755.68  1791.17  1824.64
                             1842.01  1866.19  1880.19  1893.28  1904.17
                             1933.87  1986.38  2001.37  2033.59  2043.89
                             2054.93  2068.51  2105.19  2161.21  2164.01
                             2167.51  2177.13  2180.36  2191.61  2205.37
                             2205.53  2208.52  2215.26  2239.50  2244.85
                             2332.32  2399.87  2435.23  4260.69  4297.30
                             4300.71  4349.26  4350.27  4355.86  4364.80
                             4374.77  4407.13  4418.21  4432.83  4463.15
                             4508.15  4537.65  4554.21  4563.24  4577.11
                             4590.72  4609.58  4641.51

 Zero-point correction=                           0.327645 (Hartree/Particle)
 Thermal correction to Energy=                    0.345201
 Thermal correction to Enthalpy=                  0.346145
 Thermal correction to Gibbs Free Energy=         0.280143
 Sum of electronic and zero-point Energies=           -771.859655
 Sum of electronic and thermal Energies=              -771.842099
 Sum of electronic and thermal Enthalpies=            -771.841154
 Sum of electronic and thermal Free Energies=         -771.907157

                     E (Thermal)             CV                S
                      KCal/Mol        Cal/Mol-Kelvin    Cal/Mol-Kelvin
 Total                  216.617             66.226            138.914
 Electronic               0.000              0.000              0.000
 Translational            0.889              2.981             42.379
 Rotational               0.889              2.981             34.137
 Vibrational            214.840             60.264             62.399
 Vibration     1          0.593              1.986              6.797
 Vibration     2          0.594              1.983              5.686
 Vibration     3          0.595              1.979              5.018
 Vibration     4          0.597              1.971              4.298
 Vibration     5          0.601              1.960              3.784
 Vibration     6          0.602              1.956              3.660
 Vibration     7          0.610              1.930              3.055
 Vibration     8          0.615              1.913              2.800
 Vibration     9          0.632              1.860              2.273
 Vibration    10          0.634              1.851              2.207
 Vibration    11          0.644              1.821              2.020
 Vibration    12          0.650              1.803              1.916
 Vibration    13          0.660              1.770              1.761
 Vibration    14          0.672              1.735              1.621
 Vibration    15          0.685              1.695              1.482
 Vibration    16          0.688              1.686              1.455
 Vibration    17          0.718              1.601              1.224
 Vibration    18          0.734              1.556              1.125
 Vibration    19          0.772              1.453              0.935
 Vibration    20          0.780              1.434              0.903
 Vibration    21          0.805              1.371              0.809
 Vibration    22          0.845              1.275              0.687
 Vibration    23          0.875              1.205              0.609
 Vibration    24          0.890              1.173              0.577
 Vibration    25          0.914              1.121              0.527
 Vibration    26          0.945              1.058              0.471

 Optimization completed.
    -- Stationary point found.
 Normal termination of Gaussian 09 at Tue Sep 28 20:56:17 2021.
 Gaussian 09:  AM64L-G09RevA.02 11-Jun-2009

 ----------------------------------------------------------------------
 #p TD(NStates=10, Root=1) b3lyp/6-31G* volume pop=NPA density=current
 Geom=AllCheck Guess=Read
 ----------------------------------------------------------------------

 COCCCCc1ccc2c(c1)ccc(c2)OC_conf_0
 ---------------------------------
 Redundant internal coordinates taken from checkpoint file:
 C16H20O2_02c6_conf_0.chk
 Charge =  0 Multiplicity = 1

                         Standard orientation:
 ---------------------------------------------------------------------
 Center     Atomic      Atomic             Coordinates (Angstroms)
 Number     Number       Type             X           Y           Z
 ---------------------------------------------------------------------
      1          6           0       -6.501732    1.630307   -1.184416
      2          8           0       -5.588699    0.940099   -0.361250
      3          6           0       -5.476623   -0.432836   -0.693715
      4          6           0       -4.446974   -1.080798    0.224750
      5          6           0       -3.033543   -0.510546    0.055634
      6          6           0       -2.009965   -1.157138    1.009526
      7          6           0       -0.614797   -0.589455    0.864293
      8          6           0       -0.314398    0.702722    1.385576
      9          6           0        0.934280    1.259491    1.252706
     10          6           0        1.979325    0.560747    0.584235
     11          6           0        1.691162   -0.739875    0.055562
     12          6           0        0.386220   -1.280805    0.215169
     13          6           0        2.730626   -1.438575   -0.606288
     14          6           0        3.990914   -0.896540   -0.746934
     15          6           0        4.269555    0.391365   -0.220111
     16          6           0        3.276653    1.100669    0.432080
     17          8           0        5.490126    1.002741   -0.313689
     18          6           0        6.546153    0.316874   -0.964452
     19          1           0       -6.516700    2.671561   -0.851048
     20          1           0       -7.520168    1.215431   -1.103705
     21          1           0       -6.201480    1.599374   -2.244759
     22          1           0       -5.173204   -0.544095   -1.750409
     23          1           0       -6.456125   -0.930444   -0.583222
     24          1           0       -4.442932   -2.161881    0.025868
     25          1           0       -4.779266   -0.952226    1.263731
     26          1           0       -3.062712    0.572421    0.221200
     27          1           0       -2.698719   -0.656090   -0.981133
     28          1           0       -1.984078   -2.240546    0.832630
     29          1           0       -2.356547   -1.020761    2.044082
     30          1           0       -1.095963    1.253537    1.904776
     31          1           0        1.142254    2.245019    1.662883
     32          1           0        0.184659   -2.272220   -0.187802
     33          1           0        2.524122   -2.426596   -1.011497
     34          1           0        4.761209   -1.460868   -1.260159
     35          1           0        3.510510    2.084689    0.828258
     36          1           0        7.409781    0.982940   -0.913755
     37          1           0        6.312047    0.112114   -2.017876
     38          1           0        6.790771   -0.627727   -0.460233
 ---------------------------------------------------------------------

 SCF Done:  E(RB3LYP) =  -772.187299820     A.U. after    1 cycles

 Excitation energies and oscillator strengths:

 Excited State   1:      Singlet-A      4.0328 eV  307.44 nm  f=0.0582  <S**2>=0.000
      65 -> 67         0.12793
      65 -> 68         0.16217
      66 -> 67         0.65684
      66 -> 68        -0.15070
 This state for optimization and/or second-order correction.
 Total Energy, E(TD-HF/TD-KS) =  -772.039097128
 Copying the excited state density for this state as the 1-particle RhoCI density.

 Excited State   2:      Singlet-A      4.5061 eV  275.14 nm  f=0.0108  <S**2>=0.000
      65 -> 67         0.49971
      66 -> 67        -0.20502
      66 -> 68        -0.44977

 Excited State   3:      Singlet-A      5.5154 eV  224.79 nm  f=0.2871  <S**2>=0.000
      63 -> 67         0.45697
      65 -> 67        -0.24962
      66 -> 68        -0.24562
      66 -> 69         0.39875

 Excited State   4:      Singlet-A      5.6379 eV  219.91 nm  f=0.0805  <S**2>=0.000
      64 -> 67         0.68751
      66 -> 68        -0.10903

 Excited State   5:      Singlet-A      5.7069 eV  217.25 nm  f=1.1339  <S**2>=0.000
      63 -> 67         0.16736
      64 -> 67         0.15976
      65 -> 67         0.36210
      65 -> 68         0.15472
      66 -> 68         0.43007
      66 -> 69         0.30654

 Excited State   6:      Singlet-A      5.8765 eV  210.98 nm  f=0.0437  <S**2>=0.000
      62 -> 67        -0.16104
      63 -> 67         0.29675
      63 -> 68        -0.19257
      65 -> 68         0.40677
      65 -> 69        -0.16307
      66 -> 69        -0.35492

 Excited State   7:      Singlet-A      6.1501 eV  201.60 nm  f=0.2981  <S**2>=0.000
      63 -> 67        -0.29895
      63 -> 68         0.12621
      65 -> 67        -0.14982
      65 -> 68         0.50112
      65 -> 69         0.19968
      66 -> 67        -0.10479
      66 -> 69         0.19793

 Excited State   8:      Singlet-A      6.4238 eV  193.01 nm  f=0.0392  <S**2>=0.000
      62 -> 67        -0.33055
      63 -> 67         0.22323
      63 -> 68         0.22562
      65 -> 69         0.50963
      66 -> 69        -0.11264

 Excited State   9:      Singlet-A      6.5788 eV  188.46 nm  f=0.0016  <S**2>=0.000
      62 -> 67        -0.17847
      63 -> 68        -0.10899
      64 -> 68         0.66680

 Excited State  10:      Singlet-A      6.6141 eV  187.45 nm  f=0.0102  <S**2>=0.000
      62 -> 67         0.47868
      63 -> 67         0.14296
      63 -> 68         0.35106
      64 -> 68         0.23064
      66 -> 69        -0.21740

 The electronic state is 1-A.
 Alpha  occ. eigenvalues --  -19.17321 -19.14351 -10.24253 -10.23932 -10.22677
 Alpha  occ. eigenvalues --  -10.22413 -10.18993 -10.18847 -10.18744 -10.18632
 Alpha  occ. eigenvalues --  -10.18545 -10.18092 -10.18085 -10.18027 -10.17939
 Alpha  occ. eigenvalues --  -10.17927 -10.17601 -10.17505  -1.05869  -1.02729
 Alpha  occ. eigenvalues --   -0.86387  -0.82031  -0.79084  -0.76693  -0.75338
 Alpha  occ. eigenvalues --   -0.72239  -0.71803  -0.68642  -0.66291  -0.62631
 Alpha  occ. eigenvalues --   -0.61590  -0.59006  -0.58068  -0.57071  -0.52575
 Alpha  occ. eigenvalues --   -0.50450  -0.49290  -0.48902  -0.47217  -0.46521
 Alpha  occ. eigenvalues --   -0.46110  -0.45579  -0.44566  -0.43944  -0.43193
 Alpha  occ. eigenvalues --   -0.41603  -0.41104  -0.40012  -0.39973  -0.38643
 Alpha  occ. eigenvalues --   -0.38245  -0.37303  -0.36512  -0.35700  -0.34178
 Alpha  occ. eigenvalues --   -0.33804  -0.33259  -0.32742  -0.31932  -0.31579
 Alpha  occ. eigenvalues --   -0.30789  -0.29192  -0.26485  -0.25084  -0.22475
 Alpha  occ. eigenvalues --   -0.19386
 Alpha virt. eigenvalues --   -0.02931   0.00611   0.04186   0.08984   0.09639
 Alpha virt. eigenvalues --    0.10139   0.11032   0.11425   0.12119   0.12717
 Alpha virt. eigenvalues --    0.13701   0.14172   0.14332   0.14929   0.15241

 Mulliken atomic charges:
              1
     1  C   -0.189106
     2  O   -0.458133
     3  C   -0.010943
     4  C   -0.272437
     5  C   -0.250206
     6  C   -0.354072
     7  C    0.200615
     8  C   -0.206941
     9  C   -0.208164
    10  C    0.144675
    11  C    0.163470
    12  C   -0.287481
    13  C   -0.220863
    14  C   -0.219444
    15  C    0.386791
    16  C   -0.261976
    17  O   -0.469449
    18  C   -0.223043
    19  H    0.157404
    20  H    0.127196
    21  H    0.129081
    22  H    0.114873
    23  H    0.116560
    24  H    0.129616
    25  H    0.144276
    26  H    0.165645
    27  H    0.132964
    28  H    0.135680
    29  H    0.147762
    30  H    0.111010
    31  H    0.117455
    32  H    0.114128
    33  H    0.122467
    34  H    0.116656
    35  H    0.138739
    36  H    0.176474
    37  H    0.169277
    38  H    0.169445
 Sum of Mulliken atomic charges =  -0.00000

 Dipole moment (field-independent basis, Debye):
    X=              1.2022    Y=             -0.9530    Z=             -1.8090  Tot=              2.3719
 Quadrupole moment (field-independent basis, Debye-Ang):
   XX=            -73.2311   YY=           -104.2037   ZZ=           -107.5741
   XY=              0.2912   XZ=             -2.4203   YZ=              1.7450

 Summary of Natural Population Analysis:

                                       Natural Population
                Natural  -----------------------------------------------
    Atom  No    Charge         Core      Valence    Rydberg      Total
 -----------------------------------------------------------------------
      C    1   -0.30676      1.99947     4.29287    0.01442     6.30676
      O    2   -0.57729      1.99979     6.56490    0.01260     8.57729
      C    3   -0.09406      1.99928     4.07783    0.01695     6.09406
      C    4   -0.47479      1.99931     4.46357    0.01191     6.47479
      C    5   -0.44847      1.99931     4.43686    0.01230     6.44847
      C    6   -0.46985      1.99927     4.45802    0.01257     6.46985
      C    7    0.03897      1.99904     3.94524    0.01675     5.96103
      C    8   -0.29382      1.99905     4.27945    0.01532     6.29382
      C    9   -0.22605      1.99906     4.21119    0.01579     6.22605
      C   10   -0.05407      1.99903     4.03985    0.01518     6.05407
      C   11   -0.04372      1.99903     4.02945    0.01524     6.04372
      C   12   -0.24107      1.99898     4.22776    0.01434     6.24107
      C   13   -0.21304      1.99907     4.19768    0.01629     6.21304
      C   14   -0.38337      1.99904     4.36944    0.01488     6.38337
      C   15    0.36352      1.99879     3.61521    0.02249     5.63648
      C   16   -0.24767      1.99900     4.23252    0.01615     6.24767
      O   17   -0.45680      1.99975     6.44548    0.01157     8.45680
      C   18   -0.32209      1.99942     4.30873    0.01394     6.32209
      H   19    0.21923      0.00000     0.78011    0.00066     0.78077
      H   20    0.18652      0.00000     0.81135    0.00213     0.81348
      H   21    0.18755      0.00000     0.81036    0.00209     0.81245
      H   22    0.19151      0.00000     0.80581    0.00268     0.80849
      H   23    0.19784      0.00000     0.79977    0.00238     0.80216
      H   24    0.23255      0.00000     0.76604    0.00141     0.76745
      H   25    0.23547      0.00000     0.76234    0.00218     0.76453
      H   26    0.24792      0.00000     0.75001    0.00207     0.75208
      H   27    0.22905      0.00000     0.76916    0.00179     0.77095
      H   28    0.23346      0.00000     0.76485    0.00168     0.76654
      H   29    0.24439      0.00000     0.75387    0.00174     0.75561
      H   30    0.22832      0.00000     0.77074    0.00094     0.77168
      H   31    0.22729      0.00000     0.77157    0.00114     0.77271
      H   32    0.22445      0.00000     0.77421    0.00134     0.77555
      H   33    0.23017      0.00000     0.76869    0.00114     0.76983
      H   34    0.23098      0.00000     0.76817    0.00085     0.76902
      H   35    0.24187      0.00000     0.75653    0.00160     0.75813
      H   36    0.23123      0.00000     0.76823    0.00053     0.76877
      H   37    0.21525      0.00000     0.78283    0.00193     0.78475
      H   38    0.21538      0.00000     0.78268    0.00194     0.78462
 =======================================================================
   * Total *    0.00000     35.98569    95.71340    0.30091   132.00000

 Normal termination of Gaussian 09 at Wed Sep 29 02:52:16 2021.
