 Gaussian 09, Revision A.02,

 -----------------------------------
 #p opt b3lyp/6-31G* scf=(xqc,tight)
 -----------------------------------

 --------------------------------------
 C[Si](Oc1ccc(cc1)Cc1ccccc1)(C)C_conf_0
 --------------------------------------
 Symbolic Z-matrix:
 Charge =  0 Multiplicity = 1

 SCF Done:  E(RB3LYP) =  -986.545787858     A.U. after   14 cycles
 SCF Done:  E(RB3LYP) =  -986.548879824     A.U. after   14 cycles
 SCF Done:  E(RB3LYP) =  -986.549344493     A.U. after   12 cycles
 SCF Done:  E(RB3LYP) =  -986.549458608     A.U. after   12 cycles
 SCF Done:  E(RB3LYP) =  -986.549531741     A.U. after   15 cycles
 SCF Done:  E(RB3LYP) =  -986.549547075     A.U. after   15 cycles
 SCF Done:  E(RB3LYP) =  -986.549571040     A.U. after   11 cycles
 SCF Done:  E(RB3LYP) =  -986.549577547     A.U. after   11 cycles
 SCF Done:  E(RB3LYP) =  -986.549594765     A.U. after   10 cycles
 SCF Done:  E(RB3LYP) =  -986.549605932     A.U. after    9 cycles
 SCF Done:  E(RB3LYP) =  -986.549619031     A.U. after    8 cycles
 SCF Done:  E(RB3LYP) =  -986.549619573     A.U. after    8 cycles
 SCF Done:  E(RB3LYP) =  -986.549619365     A.U. after    7 cycles
 SCF Done:  E(RB3LYP) =  -986.549619013     A.U. after    8 cycles
 SCF Done:  E(RB3LYP) =  -986.549618714     A.U. after    7 cycles
 SCF Done:  E(RB3LYP) =  -986.549618395     A.U. after    7 cycles
 SCF Done:  E(RB3LYP) =  -986.549618176     A.U. after    7 cycles
 SCF Done:  E(RB3LYP) =  -986.549618033     A.U. after    7 cycles
 Optimization completed.
    -- Stationary point found.
 Normal termination of Gaussian 09 at Thu Sep 30 21:59:19 2021.

 ----------------------------------------------------------------------
 #p freq b3lyp/6-31G* volume NMR pop=NPA density=current Geom=AllCheck
 Guess=Read
 ----------------------------------------------------------------------

 C[Si](Oc1ccc(cc1)Cc1ccccc1)(C)C_conf_0
 --------------------------------------
 Redundant internal coordinates taken from checkpoint file:
 C16H20OSi_5b73_conf_0.chk
 Charge =  0 Multiplicity = 1

 SCF Done:  E(RB3LYP) =  -986.549618033     A.U. after    1 cycles

  1  C    Isotropic =   188.4816   Anisotropy =    11.4681

  2  Si   Isotropic =   394.1924   Anisotropy =    32.4589

  3  O    Isotropic =   215.7356   Anisotropy =    83.3993

  4  C    Isotropic =    42.2164   Anisotropy =   121.6811

  5  C    Isotropic =    74.6963   Anisotropy =   134.4058

  6  C    Isotropic =    65.0781   Anisotropy =   161.8293

  7  C    Isotropic =    62.5490   Anisotropy =   171.3690

  8  C    Isotropic =    66.1961   Anisotropy =   140.0583

  9  C    Isotropic =    79.8398   Anisotropy =   127.0054

 10  C    Isotropic =   146.4952   Anisotropy =    23.6580

 11  C    Isotropic =    54.3116   Anisotropy =   183.0795

 12  C    Isotropic =    66.8066   Anisotropy =   165.0646

 13  C    Isotropic =    67.9557   Anisotropy =   164.7453

 14  C    Isotropic =    70.6398   Anisotropy =   164.3593

 15  C    Isotropic =    68.8634   Anisotropy =   162.5267

 16  C    Isotropic =    67.1748   Anisotropy =   144.8327

 17  C    Isotropic =   187.4048   Anisotropy =     9.6816

 18  C    Isotropic =   190.8051   Anisotropy =    10.3855

 19  H    Isotropic =    31.8080   Anisotropy =     8.8613

 20  H    Isotropic =    32.3414   Anisotropy =     9.6847

 21  H    Isotropic =    31.8968   Anisotropy =     9.2278

 22  H    Isotropic =    25.5757   Anisotropy =     7.1320

 23  H    Isotropic =    25.3378   Anisotropy =     9.5901

 24  H    Isotropic =    25.2436   Anisotropy =     7.0218

 25  H    Isotropic =    25.6697   Anisotropy =     8.7502

 26  H    Isotropic =    28.5274   Anisotropy =     6.6758

 27  H    Isotropic =    28.5177   Anisotropy =     5.7642

 28  H    Isotropic =    25.2097   Anisotropy =     9.9873

 29  H    Isotropic =    25.0620   Anisotropy =     5.4686

 30  H    Isotropic =    25.1397   Anisotropy =     3.7493

 31  H    Isotropic =    25.0540   Anisotropy =     4.3594

 32  H    Isotropic =    25.0911   Anisotropy =     6.9682

 33  H    Isotropic =    31.7639   Anisotropy =     8.5031

 34  H    Isotropic =    31.6430   Anisotropy =     8.6126

 35  H    Isotropic =    32.1826   Anisotropy =     9.6012

 36  H    Isotropic =    32.1321   Anisotropy =     9.0838

 37  H    Isotropic =    32.3679   Anisotropy =     9.8328

 38  H    Isotropic =    31.6047   Anisotropy =     8.3610

  Exact polarizability: 257.649   0.767 149.526  19.142  -2.104 153.425
 Approx polarizability: 323.784  -3.377 237.051  38.621   0.251 257.481

                     1                      2                      3
                     A                      A                      A
 Frequencies --     9.7250                17.5066                22.3172
 Red. masses --     3.9866                 3.9106                 3.7542
 Frc consts  --     0.0002                 0.0007                 0.0011
 IR Inten    --     0.5219                 0.1297                 0.0045

                     4                      5                      6
                     A                      A                      A
 Frequencies --    32.6309                51.2951                75.0029
 Red. masses --     3.4081                 3.9771                 3.6303
 Frc consts  --     0.0021                 0.0062                 0.0120
 IR Inten    --     0.0434                 0.2353                 0.1413

                     7                      8                      9
                     A                      A                      A
 Frequencies --   106.1917               124.8922               139.9154
 Red. masses --     1.0936                 1.1308                 2.2703
 Frc consts  --     0.0073                 0.0104                 0.0262
 IR Inten    --     0.0678                 0.0643                 0.1219

                    10                     11                     12
                     A                      A                      A
 Frequencies --   147.6856               170.6287               182.1197
 Red. masses --     1.2215                 2.5896                 3.3485
 Frc consts  --     0.0157                 0.0444                 0.0654
 IR Inten    --     0.0554                 0.1561                 0.2892

                    13                     14                     15
                     A                      A                      A
 Frequencies --   198.1925               217.8358               240.1880
 Red. masses --     2.6968                 3.0546                 2.9846
 Frc consts  --     0.0624                 0.0854                 0.1014
 IR Inten    --     0.2262                 2.1975                 4.3872

                    16                     17                     18
                     A                      A                      A
 Frequencies --   263.8004               298.2538               322.2368
 Red. masses --     3.5359                 4.5714                 2.3664
 Frc consts  --     0.1450                 0.2396                 0.1448
 IR Inten    --     6.8357                 3.2168                 1.9837

                    19                     20                     21
                     A                      A                      A
 Frequencies --   335.0657               396.9227               418.1514
 Red. masses --     5.6540                 3.2725                 2.9908
 Frc consts  --     0.3740                 0.3038                 0.3081
 IR Inten    --     4.3292                 3.6443                 0.3334

                    22                     23                     24
                     A                      A                      A
 Frequencies --   424.4539               473.2458               512.1173
 Red. masses --     3.1275                 3.6531                 5.2503
 Frc consts  --     0.3320                 0.4820                 0.8113
 IR Inten    --     0.6204                 0.5380                 6.8179

                    25                     26                     27
                     A                      A                      A
 Frequencies --   525.4201               587.5349               610.6833
 Red. masses --     2.8604                 4.4558                 3.7188
 Frc consts  --     0.4653                 0.9062                 0.8171
 IR Inten    --     6.7406                 2.5086                10.1731

                    28                     29                     30
                     A                      A                      A
 Frequencies --   635.9623               653.8741               684.1049
 Red. masses --     6.2350                 5.8656                 3.9355
 Frc consts  --     1.4858                 1.4776                 1.0852
 IR Inten    --     0.0103                 5.0106                14.3982

                    31                     32                     33
                     A                      A                      A
 Frequencies --   690.4689               697.2238               703.9285
 Red. masses --     2.2035                 2.2838                 1.2076
 Frc consts  --     0.6190                 0.6541                 0.3526
 IR Inten    --     8.8759                 6.8373                 0.5340

                    34                     35                     36
                     A                      A                      A
 Frequencies --   713.4526               728.6918               758.4645
 Red. masses --     2.3001                 2.6671                 2.0356
 Frc consts  --     0.6898                 0.8344                 0.6899
 IR Inten    --    15.7508                16.5301                19.0766

                    37                     38                     39
                     A                      A                      A
 Frequencies --   781.5403               791.1068               813.4789
 Red. masses --     1.5085                 1.4948                 2.2201
 Frc consts  --     0.5429                 0.5512                 0.8656
 IR Inten    --    19.1371                24.8088                24.1039

                    40                     41                     42
                     A                      A                      A
 Frequencies --   827.9209               837.7232               857.5691
 Red. masses --     1.4349                 3.7557                 1.8323
 Frc consts  --     0.5795                 1.5529                 0.7940
 IR Inten    --     0.6291                 1.1234                24.0867

                    43                     44                     45
                     A                      A                      A
 Frequencies --   861.7472               886.3834               889.5501
 Red. masses --     1.2508                 1.8041                 1.6839
 Frc consts  --     0.5473                 0.8351                 0.7851
 IR Inten    --     0.3996                86.8691               103.4285

                    46                     47                     48
                     A                      A                      A
 Frequencies --   891.5035               914.9114               937.7498
 Red. masses --     1.7516                 1.4437                 1.5072
 Frc consts  --     0.8202                 0.7120                 0.7809
 IR Inten    --    94.5766                18.6031                48.4145

                    49                     50                     51
                     A                      A                      A
 Frequencies --   944.2113               954.8476               964.8795
 Red. masses --     3.5370                 1.7079                 1.3969
 Frc consts  --     1.8579                 0.9175                 0.7662
 IR Inten    --   407.4225                16.3246                 0.5066

                    52                     53                     54
                     A                      A                      A
 Frequencies --   967.1341               994.0960              1018.4813
 Red. masses --     1.3500                 1.2492                 6.2368
 Frc consts  --     0.7440                 0.7273                 3.8117
 IR Inten    --     0.1172                 0.3019                 0.6475

                    55                     56                     57
                     A                      A                      A
 Frequencies --  1035.0492              1059.3527              1110.7687
 Red. masses --     2.6943                 2.2486                 1.5838
 Frc consts  --     1.7006                 1.4868                 1.1513
 IR Inten    --     7.1598                 4.3422                 4.6586

                    58                     59                     60
                     A                      A                      A
 Frequencies --  1138.2065              1191.9057              1207.5876
 Red. masses --     1.3214                 1.1035                 1.1595
 Frc consts  --     1.0086                 0.9236                 0.9962
 IR Inten    --     9.4634                 0.0728                32.0996

                    61                     62                     63
                     A                      A                      A
 Frequencies --  1213.7371              1214.2839              1219.9208
 Red. masses --     1.1799                 1.3575                 2.2064
 Frc consts  --     1.0241                 1.1793                 1.9346
 IR Inten    --     0.5993                 1.9608                 2.4711

                    64                     65                     66
                     A                      A                      A
 Frequencies --  1232.6083              1298.4618              1320.4746
 Red. masses --     2.4149                 4.7206                 2.2383
 Frc consts  --     2.1617                 4.6893                 2.2995
 IR Inten    --     4.7239               429.8174                22.5862

                    67                     68                     69
                     A                      A                      A
 Frequencies --  1331.9259              1333.3690              1334.3311
 Red. masses --     1.3643                 1.3964                 1.4224
 Frc consts  --     1.4260                 1.4628                 1.4921
 IR Inten    --    34.4556                33.0499                18.7215

                    70                     71                     72
                     A                      A                      A
 Frequencies --  1343.1774              1363.3967              1368.4174
 Red. masses --     1.2881                 3.6576                 1.6508
 Frc consts  --     1.3692                 4.0058                 1.8213
 IR Inten    --    83.3765                 0.9961                 9.9798

                    73                     74                     75
                     A                      A                      A
 Frequencies --  1381.2185              1464.8946              1483.3361
 Red. masses --     1.5365                 2.8075                 1.0540
 Frc consts  --     1.7271                 3.5496                 1.3663
 IR Inten    --    11.3740                 2.5468                 0.1420

                    76                     77                     78
                     A                      A                      A
 Frequencies --  1489.7539              1490.8341              1496.1075
 Red. masses --     1.0540                 1.0532                 1.0491
 Frc consts  --     1.3782                 1.3792                 1.3836
 IR Inten    --     0.4216                 0.1157                 4.2070

                    79                     80                     81
                     A                      A                      A
 Frequencies --  1497.6431              1499.3050              1508.0953
 Red. masses --     1.0508                 1.9061                 1.0478
 Frc consts  --     1.3887                 2.5245                 1.4040
 IR Inten    --     4.6829                 4.1055                 4.6929

                    82                     83                     84
                     A                      A                      A
 Frequencies --  1511.7129              1546.5544              1559.8037
 Red. masses --     1.1974                 2.1902                 2.5783
 Frc consts  --     1.6122                 3.0865                 3.6960
 IR Inten    --     9.7188                19.3546               226.9327

                    85                     86                     87
                     A                      A                      A
 Frequencies --  1626.8780              1644.5419              1664.1468
 Red. masses --     6.4863                 5.4806                 5.5730
 Frc consts  --    10.1148                 8.7330                 9.0933
 IR Inten    --     8.2409                 1.2940                 2.2107

                    88                     89                     90
                     A                      A                      A
 Frequencies --  1671.1322              3030.4068              3043.8425
 Red. masses --     5.8847                 1.0597                 1.0366
 Frc consts  --     9.6826                 5.7335                 5.6584
 IR Inten    --    76.2818                32.1005                 3.8958

                    91                     92                     93
                     A                      A                      A
 Frequencies --  3045.6571              3048.1635              3062.8829
 Red. masses --     1.0362                 1.0357                 1.1029
 Frc consts  --     5.6629                 5.6697                 6.0960
 IR Inten    --     3.4586                 4.6434                15.0227

                    94                     95                     96
                     A                      A                      A
 Frequencies --  3113.0911              3115.8235              3119.9947
 Red. masses --     1.0993                 1.0999                 1.0999
 Frc consts  --     6.2769                 6.2913                 6.3085
 IR Inten    --     9.0305                 9.8078                32.8327

                    97                     98                     99
                     A                      A                      A
 Frequencies --  3124.8197              3126.2944              3127.3288
 Red. masses --     1.1006                 1.1005                 1.1008
 Frc consts  --     6.3316                 6.3371                 6.3433
 IR Inten    --     8.5400                17.5036                14.7124

                   100                    101                    102
                     A                      A                      A
 Frequencies --  3171.6282              3174.9348              3178.7825
 Red. masses --     1.0864                 1.0885                 1.0861
 Frc consts  --     6.4387                 6.4648                 6.4663
 IR Inten    --     9.3354                18.4913                 0.8081

                   103                    104                    105
                     A                      A                      A
 Frequencies --  3184.1372              3188.3260              3196.2791
 Red. masses --     1.0885                 1.0901                 1.0940
 Frc consts  --     6.5023                 6.5289                 6.5853
 IR Inten    --    13.4504                12.5345                43.2412

                   106                    107                    108
                     A                      A                      A
 Frequencies --  3207.3380              3209.4525              3212.8717
 Red. masses --     1.0979                 1.0920                 1.0934
 Frc consts  --     6.6542                 6.6272                 6.6497
 IR Inten    --    26.9856                21.6179                 7.7938

 - Thermochemistry -
 -------------------
 Temperature   298.150 Kelvin.  Pressure   1.00000 Atm.
 Atom     1 has atomic number  6 and mass  12.00000

 Molecular mass:   256.12834 amu.
 Principal axes and moments of inertia in atomic units:
                           1         2         3
     Eigenvalues --  1581.49693********************
           X            1.00000  -0.00052   0.00295
           Y            0.00059   0.99970  -0.02447
           Z           -0.00293   0.02447   0.99970
 This molecule is an asymmetric top.
 Rotational symmetry number  1.
 Warning -- assumption of classical behavior for rotation
           may cause significant error
 Rotational temperatures (Kelvin)      0.05477     0.00631     0.00625
 Rotational constants (GHZ):           1.14116     0.13155     0.13020
 Zero-point vibrational energy     830447.6 (Joules/Mol)
                                  198.48175 (Kcal/Mol)
 Warning -- explicit consideration of  27 degrees of freedom as
           vibrations may cause significant error
 Vibrational temperatures:     13.99    25.19    32.11    46.95    73.80
          (Kelvin)            107.91   152.79   179.69   201.31   212.49
                              245.50   262.03   285.15   313.42   345.58
                              379.55   429.12   463.63   482.08   571.08
                              601.63   610.69   680.89   736.82   755.96
                              845.33   878.64   915.01   940.78   984.27
                              993.43  1003.15  1012.79  1026.50  1048.42
                             1091.26  1124.46  1138.22  1170.41  1191.19
                             1205.30  1233.85  1239.86  1275.31  1279.86
                             1282.67  1316.35  1349.21  1358.51  1373.81
                             1388.24  1391.49  1430.28  1465.37  1489.20
                             1524.17  1598.15  1637.62  1714.88  1737.45
                             1746.29  1747.08  1755.19  1773.45  1868.19
                             1899.87  1916.34  1918.42  1919.80  1932.53
                             1961.62  1968.84  1987.26  2107.65  2134.19
                             2143.42  2144.98  2152.56  2154.77  2157.16
                             2169.81  2175.01  2225.14  2244.21  2340.71
                             2366.13  2394.33  2404.38  4360.07  4379.40
                             4382.02  4385.62  4406.80  4479.04  4482.97
                             4488.97  4495.91  4498.03  4499.52  4563.26
                             4568.02  4573.55  4581.26  4587.28  4598.73
                             4614.64  4617.68  4622.60

 Zero-point correction=                           0.316301 (Hartree/Particle)
 Thermal correction to Energy=                    0.335797
 Thermal correction to Enthalpy=                  0.336742
 Thermal correction to Gibbs Free Energy=         0.264296
 Sum of electronic and zero-point Energies=           -986.233317
 Sum of electronic and thermal Energies=              -986.213821
 Sum of electronic and thermal Enthalpies=            -986.212876
 Sum of electronic and thermal Free Energies=         -986.285322

                     E (Thermal)             CV                S
                      KCal/Mol        Cal/Mol-Kelvin    Cal/Mol-Kelvin
 Total                  210.716             72.745            152.474
 Electronic               0.000              0.000              0.000
 Translational            0.889              2.981             42.522
 Rotational               0.889              2.981             34.063
 Vibrational            208.939             66.784             75.889
 Vibration     1          0.593              1.987              8.066
 Vibration     2          0.593              1.986              6.899
 Vibration     3          0.593              1.985              6.417
 Vibration     4          0.594              1.983              5.663
 Vibration     5          0.596              1.977              4.767
 Vibration     6          0.599              1.966              4.018
 Vibration     7          0.605              1.944              3.337
 Vibration     8          0.610              1.928              3.023
 Vibration     9          0.615              1.913              2.805
 Vibration    10          0.617              1.905              2.702
 Vibration    11          0.626              1.879              2.429
 Vibration    12          0.630              1.864              2.307
 Vibration    13          0.637              1.842              2.150
 Vibration    14          0.646              1.814              1.977
 Vibration    15          0.657              1.779              1.801
 Vibration    16          0.670              1.739              1.636
 Vibration    17          0.691              1.677              1.427
 Vibration    18          0.707              1.631              1.299
 Vibration    19          0.716              1.605              1.236
 Vibration    20          0.763              1.477              0.974
 Vibration    21          0.781              1.431              0.898
 Vibration    22          0.786              1.417              0.877
 Vibration    23          0.830              1.309              0.729
 Vibration    24          0.867              1.223              0.629
 Vibration    25          0.880              1.194              0.598
 Vibration    26          0.945              1.058              0.472
 Vibration    27          0.970              1.009              0.432

 Optimization completed on the basis of negligible forces.
    -- Stationary point found.
 Normal termination of Gaussian 09 at Thu Sep 30 23:22:23 2021.
 Gaussian 09:  AM64L-G09RevA.02 11-Jun-2009

 ----------------------------------------------------------------------
 #p TD(NStates=10, Root=1) b3lyp/6-31G* volume pop=NPA density=current
 Geom=AllCheck Guess=Read
 ----------------------------------------------------------------------

 C[Si](Oc1ccc(cc1)Cc1ccccc1)(C)C_conf_0
 --------------------------------------
 Redundant internal coordinates taken from checkpoint file:
 C16H20OSi_5b73_conf_0.chk
 Charge =  0 Multiplicity = 1

                         Standard orientation:
 ---------------------------------------------------------------------
 Center     Atomic      Atomic             Coordinates (Angstroms)
 Number     Number       Type             X           Y           Z
 ---------------------------------------------------------------------
      1          6           0        5.363287   -1.137855   -1.223288
      2         14           0        4.221729   -0.258515   -0.017539
      3          8           0        2.677570   -0.575089   -0.630968
      4          6           0        1.449050   -0.051267   -0.348511
      5          6           0        0.456042   -0.174331   -1.330955
      6          6           0       -0.822085    0.321920   -1.102834
      7          6           0       -1.154308    0.958394    0.103413
      8          6           0       -0.156445    1.068421    1.075266
      9          6           0        1.132112    0.571058    0.863322
     10          6           0       -2.546248    1.523208    0.333575
     11          6           0       -3.676094    0.515139    0.187268
     12          6           0       -3.679560   -0.671725    0.934742
     13          6           0       -4.726121   -1.584994    0.820554
     14          6           0       -5.790446   -1.330386   -0.048816
     15          6           0       -5.796970   -0.156127   -0.800551
     16          6           0       -4.746372    0.757371   -0.681149
     17          6           0        4.420457   -0.991283    1.710542
     18          6           0        4.544123    1.599298   -0.007922
     19          1           0        5.139211   -2.209764   -1.266540
     20          1           0        6.413828   -1.027108   -0.927919
     21          1           0        5.254655   -0.733873   -2.236057
     22          1           0        0.709478   -0.664487   -2.266058
     23          1           0       -1.580633    0.209403   -1.873982
     24          1           0       -0.383410    1.553036    2.022716
     25          1           0        1.879287    0.659684    1.645768
     26          1           0       -2.726795    2.353092   -0.363037
     27          1           0       -2.582724    1.963998    1.339062
     28          1           0       -2.849028   -0.881677    1.604477
     29          1           0       -4.711093   -2.498760    1.409332
     30          1           0       -6.605454   -2.043646   -0.139458
     31          1           0       -6.617803    0.051586   -1.482368
     32          1           0       -4.759248    1.672701   -1.269308
     33          1           0        4.161665   -2.056603    1.713847
     34          1           0        3.792820   -0.495814    2.459611
     35          1           0        5.462186   -0.902800    2.044538
     36          1           0        4.455914    2.016436   -1.017793
     37          1           0        5.557999    1.813133    0.352898
     38          1           0        3.841846    2.140334    0.635627
 ---------------------------------------------------------------------

 SCF Done:  E(RB3LYP) =  -986.549618033     A.U. after    1 cycles

 Excitation energies and oscillator strengths:

 Excited State   1:      Singlet-A      5.0294 eV  246.52 nm  f=0.0273  <S**2>=0.000
      66 -> 72        -0.15437
      66 -> 73         0.18528
      68 -> 72        -0.10503
      69 -> 70         0.62528
      69 -> 72        -0.12805
 This state for optimization and/or second-order correction.
 Total Energy, E(TD-HF/TD-KS) =  -986.364792513
 Copying the excited state density for this state as the 1-particle RhoCI density.

 Excited State   2:      Singlet-A      5.2143 eV  237.78 nm  f=0.0042  <S**2>=0.000
      69 -> 71         0.68939

 Excited State   3:      Singlet-A      5.3061 eV  233.66 nm  f=0.0762  <S**2>=0.000
      66 -> 70         0.10837
      66 -> 72         0.10855
      67 -> 71        -0.22224
      68 -> 71         0.15774
      69 -> 70         0.14397
      69 -> 72         0.54566
      69 -> 73         0.18875

 Excited State   4:      Singlet-A      5.5161 eV  224.77 nm  f=0.0507  <S**2>=0.000
      67 -> 70         0.15727
      67 -> 71         0.30365
      68 -> 70         0.31403
      68 -> 71        -0.26328
      68 -> 72         0.19281
      69 -> 70         0.13640
      69 -> 72         0.33001

 Excited State   5:      Singlet-A      5.7701 eV  214.88 nm  f=0.1206  <S**2>=0.000
      66 -> 70        -0.15624
      68 -> 70        -0.13285
      68 -> 72         0.30621
      69 -> 72        -0.16452
      69 -> 73         0.55962

 Excited State   6:      Singlet-A      5.9057 eV  209.94 nm  f=0.1404  <S**2>=0.000
      66 -> 70        -0.18725
      67 -> 70        -0.19955
      68 -> 70         0.49873
      68 -> 71         0.14589
      68 -> 72        -0.30546
      69 -> 73         0.19833

 Excited State   7:      Singlet-A      6.0564 eV  204.72 nm  f=0.0033  <S**2>=0.000
      66 -> 70         0.26009
      66 -> 71         0.15740
      67 -> 70        -0.27161
      67 -> 71         0.26024
      68 -> 70         0.10311
      68 -> 71         0.39558
      68 -> 72         0.28096
      69 -> 73        -0.11054

 Excited State   8:      Singlet-A      6.1252 eV  202.42 nm  f=0.0140  <S**2>=0.000
      66 -> 70        -0.10977
      66 -> 71         0.36249
      66 -> 72         0.10631
      67 -> 70         0.44728
      67 -> 72        -0.31267
      68 -> 71         0.19066

 Excited State   9:      Singlet-A      6.1772 eV  200.71 nm  f=0.0295  <S**2>=0.000
      66 -> 71         0.43451
      67 -> 70        -0.12886
      67 -> 71         0.15369
      67 -> 72         0.31791
      68 -> 70        -0.17820
      68 -> 72        -0.24546
      68 -> 73         0.22718

 Excited State  10:      Singlet-A      6.2633 eV  197.95 nm  f=0.0731  <S**2>=0.000
      66 -> 70         0.35188
      66 -> 71         0.16804
      66 -> 72         0.22986
      66 -> 73         0.24981
      67 -> 70         0.15987
      67 -> 71        -0.15737
      67 -> 72         0.32284
      68 -> 70         0.16406
      68 -> 71        -0.12439
      68 -> 73        -0.11559

 The electronic state is 1-A.
 Alpha  occ. eigenvalues --  -66.14860 -19.15092 -10.24289 -10.19074 -10.18893
 Alpha  occ. eigenvalues --  -10.18574 -10.18460 -10.18401 -10.18361 -10.18257
 Alpha  occ. eigenvalues --  -10.18215 -10.18177 -10.18169 -10.18032 -10.17735
 Alpha  occ. eigenvalues --  -10.16512 -10.16433 -10.16240  -5.28956  -3.65070
 Alpha  occ. eigenvalues --   -3.64743  -3.64732  -1.02264  -0.85285  -0.83975
 Alpha  occ. eigenvalues --   -0.77716  -0.73962  -0.73642  -0.73034  -0.71273
 Alpha  occ. eigenvalues --   -0.68125  -0.67990  -0.66806  -0.60964  -0.59787
 Alpha  occ. eigenvalues --   -0.59040  -0.56960  -0.53582  -0.50599  -0.47362
 Alpha  occ. eigenvalues --   -0.46579  -0.45255  -0.44280  -0.43949  -0.42478
 Alpha  occ. eigenvalues --   -0.41932  -0.41602  -0.41275  -0.40651  -0.40545
 Alpha  occ. eigenvalues --   -0.40336  -0.39719  -0.39276  -0.38708  -0.38344
 Alpha  occ. eigenvalues --   -0.38259  -0.36202  -0.35487  -0.34269  -0.33806
 Alpha  occ. eigenvalues --   -0.32844  -0.32457  -0.31858  -0.29557  -0.28712
 Alpha  occ. eigenvalues --   -0.24563  -0.24278  -0.23642  -0.21056
 Alpha virt. eigenvalues --    0.00046   0.00344   0.00739   0.01988   0.06918
 Alpha virt. eigenvalues --    0.07937   0.09373   0.09891   0.10579   0.11228
 Alpha virt. eigenvalues --    0.12475   0.13115   0.13668   0.13885   0.14171

 Mulliken atomic charges:
              1
     1  C   -0.664979
     2  Si   0.886600
     3  O   -0.580295
     4  C    0.382544
     5  C   -0.183811
     6  C   -0.200675
     7  C    0.209466
     8  C   -0.231091
     9  C   -0.196310
    10  C   -0.440663
    11  C    0.179612
    12  C   -0.169879
    13  C   -0.139483
    14  C   -0.133604
    15  C   -0.124093
    16  C   -0.209274
    17  C   -0.685671
    18  C   -0.680575
    19  H    0.175301
    20  H    0.165743
    21  H    0.174399
    22  H    0.132687
    23  H    0.133510
    24  H    0.121039
    25  H    0.131836
    26  H    0.161825
    27  H    0.159365
    28  H    0.124080
    29  H    0.120165
    30  H    0.120713
    31  H    0.121622
    32  H    0.112736
    33  H    0.175246
    34  H    0.171290
    35  H    0.167007
    36  H    0.174370
    37  H    0.165702
    38  H    0.173545
 Sum of Mulliken atomic charges =  -0.00000

 Dipole moment (field-independent basis, Debye):
    X=              3.6768    Y=              0.5794    Z=              0.5869  Tot=              3.7682
 Quadrupole moment (field-independent basis, Debye-Ang):
   XX=           -103.1463   YY=           -112.9218   ZZ=           -112.0543
   XY=             -0.7205   XZ=              4.2291   YZ=             -0.9311

 Summary of Natural Population Analysis:

                                       Natural Population
                Natural  -----------------------------------------------
    Atom  No    Charge         Core      Valence    Rydberg      Total
 -----------------------------------------------------------------------
      C    1   -1.22083      1.99949     5.21242    0.00893     7.22083
     Si    2    2.01009      9.99783     1.94619    0.04589    11.98991
      O    3   -0.78988      1.99976     6.77812    0.01200     8.78988
      C    4    0.36726      1.99878     3.61140    0.02257     5.63274
      C    5   -0.30030      1.99905     4.28203    0.01922     6.30030
      C    6   -0.26780      1.99905     4.25109    0.01765     6.26780
      C    7    0.05202      1.99903     3.93188    0.01707     5.94798
      C    8   -0.27445      1.99905     4.25675    0.01865     6.27445
      C    9   -0.32007      1.99904     4.30294    0.01808     6.32007
      C   10   -0.48587      1.99921     4.47224    0.01441     6.48587
      C   11   -0.04263      1.99900     4.02687    0.01676     6.04263
      C   12   -0.21770      1.99902     4.20568    0.01300     6.21770
      C   13   -0.25178      1.99910     4.23781    0.01487     6.25178
      C   14   -0.24196      1.99909     4.22883    0.01404     6.24196
      C   15   -0.22566      1.99910     4.21246    0.01411     6.22566
      C   16   -0.25704      1.99902     4.24408    0.01394     6.25704
      C   17   -1.22293      1.99948     5.21391    0.00954     7.22293
      C   18   -1.22369      1.99948     5.21495    0.00926     7.22369
      H   19    0.25958      0.00000     0.73965    0.00078     0.74042
      H   20    0.25389      0.00000     0.74554    0.00056     0.74611
      H   21    0.25892      0.00000     0.74032    0.00076     0.74108
      H   22    0.23967      0.00000     0.75914    0.00120     0.76033
      H   23    0.23798      0.00000     0.76088    0.00114     0.76202
      H   24    0.22944      0.00000     0.76948    0.00108     0.77056
      H   25    0.22612      0.00000     0.77278    0.00110     0.77388
      H   26    0.25744      0.00000     0.74021    0.00235     0.74256
      H   27    0.25238      0.00000     0.74611    0.00151     0.74762
      H   28    0.23313      0.00000     0.76517    0.00170     0.76687
      H   29    0.23184      0.00000     0.76727    0.00089     0.76816
      H   30    0.23137      0.00000     0.76777    0.00086     0.76863
      H   31    0.23212      0.00000     0.76698    0.00090     0.76788
      H   32    0.22686      0.00000     0.77197    0.00117     0.77314
      H   33    0.25977      0.00000     0.73944    0.00079     0.74023
      H   34    0.25343      0.00000     0.74583    0.00075     0.74657
      H   35    0.25599      0.00000     0.74337    0.00064     0.74401
      H   36    0.25904      0.00000     0.74015    0.00081     0.74096
      H   37    0.25552      0.00000     0.74375    0.00073     0.74448
      H   38    0.25875      0.00000     0.73968    0.00157     0.74125
 =======================================================================
   * Total *   -0.00000     43.98359    93.69512    0.32129   138.00000

 Normal termination of Gaussian 09 at Fri Oct  1 04:45:24 2021.
