 Gaussian 09, Revision A.02,

 -----------------------------------
 #p opt b3lyp/6-31G* scf=(xqc,tight)
 -----------------------------------

 ------------------------------------------
 C[Si](C(C)(C)C)(Oc1ccc2c(c1)cccc2)C_conf_0
 ------------------------------------------
 Symbolic Z-matrix:
 Charge =  0 Multiplicity = 1

 SCF Done:  E(RB3LYP) =  -987.746643243     A.U. after   14 cycles
 SCF Done:  E(RB3LYP) =  -987.757547663     A.U. after   13 cycles
 SCF Done:  E(RB3LYP) =  -987.759815126     A.U. after   12 cycles
 SCF Done:  E(RB3LYP) =  -987.760008901     A.U. after   11 cycles
 SCF Done:  E(RB3LYP) =  -987.760051895     A.U. after   11 cycles
 SCF Done:  E(RB3LYP) =  -987.760058133     A.U. after    8 cycles
 SCF Done:  E(RB3LYP) =  -987.760062415     A.U. after    9 cycles
 SCF Done:  E(RB3LYP) =  -987.760066185     A.U. after    9 cycles
 SCF Done:  E(RB3LYP) =  -987.760070961     A.U. after   10 cycles
 SCF Done:  E(RB3LYP) =  -987.760076383     A.U. after   10 cycles
 SCF Done:  E(RB3LYP) =  -987.760079066     A.U. after    9 cycles
 SCF Done:  E(RB3LYP) =  -987.760079598     A.U. after    7 cycles
 SCF Done:  E(RB3LYP) =  -987.760079853     A.U. after    7 cycles
 SCF Done:  E(RB3LYP) =  -987.760080084     A.U. after    7 cycles
 SCF Done:  E(RB3LYP) =  -987.760080449     A.U. after    8 cycles
 SCF Done:  E(RB3LYP) =  -987.760081110     A.U. after    9 cycles
 SCF Done:  E(RB3LYP) =  -987.760081620     A.U. after    9 cycles
 SCF Done:  E(RB3LYP) =  -987.760081679     A.U. after    7 cycles
 Optimization completed.
    -- Stationary point found.
 Normal termination of Gaussian 09 at Tue Sep 28 16:24:59 2021.

 ----------------------------------------------------------------------
 #p freq b3lyp/6-31G* volume NMR pop=NPA density=current Geom=AllCheck
 Guess=Read
 ----------------------------------------------------------------------

 C[Si](C(C)(C)C)(Oc1ccc2c(c1)cccc2)C_conf_0
 ------------------------------------------
 Redundant internal coordinates taken from checkpoint file:
 C16H22OSi_6b20_conf_0.chk
 Charge =  0 Multiplicity = 1

 SCF Done:  E(RB3LYP) =  -987.760081679     A.U. after    1 cycles

  1  C    Isotropic =   193.0072   Anisotropy =     5.9663

  2  Si   Isotropic =   384.9667   Anisotropy =    30.0796

  3  C    Isotropic =   167.3945   Anisotropy =     6.5158

  4  C    Isotropic =   164.1023   Anisotropy =    34.8581

  5  C    Isotropic =   164.0878   Anisotropy =    34.8957

  6  C    Isotropic =   164.1721   Anisotropy =    36.1593

  7  O    Isotropic =   217.0318   Anisotropy =    86.0019

  8  C    Isotropic =    41.9699   Anisotropy =   118.2219

  9  C    Isotropic =    74.0604   Anisotropy =   132.7864

 10  C    Isotropic =    65.9452   Anisotropy =   142.6894

 11  C    Isotropic =    68.0282   Anisotropy =   192.2617

 12  C    Isotropic =    62.0897   Anisotropy =   193.3521

 13  C    Isotropic =    83.2605   Anisotropy =   105.1088

 14  C    Isotropic =    69.5622   Anisotropy =   140.8371

 15  C    Isotropic =    70.1082   Anisotropy =   161.7012

 16  C    Isotropic =    72.9297   Anisotropy =   157.1229

 17  C    Isotropic =    67.8579   Anisotropy =   145.6037

 18  C    Isotropic =   193.1328   Anisotropy =     6.1319

 19  H    Isotropic =    31.8226   Anisotropy =     8.0577

 20  H    Isotropic =    31.5043   Anisotropy =     9.9790

 21  H    Isotropic =    32.1060   Anisotropy =     9.2484

 22  H    Isotropic =    30.5129   Anisotropy =     7.8811

 23  H    Isotropic =    31.0323   Anisotropy =     7.4841

 24  H    Isotropic =    31.3880   Anisotropy =     8.8669

 25  H    Isotropic =    30.5061   Anisotropy =     7.9218

 26  H    Isotropic =    31.3884   Anisotropy =     8.8646

 27  H    Isotropic =    31.0292   Anisotropy =     7.4937

 28  H    Isotropic =    31.1437   Anisotropy =     8.0968

 29  H    Isotropic =    31.1429   Anisotropy =     8.0764

 30  H    Isotropic =    31.3238   Anisotropy =     8.9017

 31  H    Isotropic =    25.1790   Anisotropy =     8.3278

 32  H    Isotropic =    24.6615   Anisotropy =     6.8599

 33  H    Isotropic =    25.3348   Anisotropy =    11.3302

 34  H    Isotropic =    24.8096   Anisotropy =     8.6102

 35  H    Isotropic =    24.8740   Anisotropy =     5.5092

 36  H    Isotropic =    24.9927   Anisotropy =     4.6818

 37  H    Isotropic =    24.7110   Anisotropy =     6.7888

 38  H    Isotropic =    32.1168   Anisotropy =     9.2634

 39  H    Isotropic =    31.5013   Anisotropy =     9.9739

 40  H    Isotropic =    31.8306   Anisotropy =     8.1178

  Exact polarizability: 279.901 -13.468 190.086  -0.040  -0.065 112.963
 Approx polarizability: 392.632 -29.604 322.358  -0.101  -0.122 164.807

 ******    1 imaginary frequencies (negative Signs) ******

                     1                      2                      3
                     A                      A                      A
 Frequencies --   -12.7747                18.9448                33.5692
 Red. masses --     2.7601                 3.7339                 3.1109
 Frc consts  --     0.0003                 0.0008                 0.0021
 IR Inten    --     0.0224                 0.3920                 0.2031

                     4                      5                      6
                     A                      A                      A
 Frequencies --    49.5202                93.7443               107.2654
 Red. masses --     3.9195                 1.3518                 1.2131
 Frc consts  --     0.0057                 0.0070                 0.0082
 IR Inten    --     0.0176                 0.0209                 0.1026

                     7                      8                      9
                     A                      A                      A
 Frequencies --   117.9873               125.0463               167.1191
 Red. masses --     2.6626                 2.7139                 2.6944
 Frc consts  --     0.0218                 0.0250                 0.0443
 IR Inten    --     0.5327                 0.0613                 0.3444

                    10                     11                     12
                     A                      A                      A
 Frequencies --   185.2452               187.8655               221.0000
 Red. masses --     2.5145                 3.6702                 2.3773
 Frc consts  --     0.0508                 0.0763                 0.0684
 IR Inten    --     0.9015                 0.2626                 1.5936

                    13                     14                     15
                     A                      A                      A
 Frequencies --   222.1460               228.0983               233.4061
 Red. masses --     1.7240                 2.5584                 1.3927
 Frc consts  --     0.0501                 0.0784                 0.0447
 IR Inten    --     1.0410                 0.1604                 0.9940

                    16                     17                     18
                     A                      A                      A
 Frequencies --   267.0806               284.3089               296.9648
 Red. masses --     1.1881                 1.2267                 2.8919
 Frc consts  --     0.0499                 0.0584                 0.1503
 IR Inten    --     0.6750                 0.4688                 0.7194

                    19                     20                     21
                     A                      A                      A
 Frequencies --   305.8299               324.6452               363.2548
 Red. masses --     3.0803                 4.4259                 3.0724
 Frc consts  --     0.1697                 0.2748                 0.2389
 IR Inten    --     2.2809                 6.6703                10.6976

                    22                     23                     24
                     A                      A                      A
 Frequencies --   380.9074               391.3094               411.1967
 Red. masses --     2.6648                 2.4231                 3.3641
 Frc consts  --     0.2278                 0.2186                 0.3351
 IR Inten    --     0.0590                 1.9325                 0.2456

                    25                     26                     27
                     A                      A                      A
 Frequencies --   427.8688               472.9650               485.9241
 Red. masses --     4.2982                 5.8260                 2.5384
 Frc consts  --     0.4636                 0.7678                 0.3531
 IR Inten    --     3.0874                 6.5628                 8.1506

                    28                     29                     30
                     A                      A                      A
 Frequencies --   524.8587               546.3491               564.5994
 Red. masses --     6.2363                 3.6199                 3.0642
 Frc consts  --     1.0122                 0.6366                 0.5755
 IR Inten    --     0.7971                 0.3812                 2.3000

                    31                     32                     33
                     A                      A                      A
 Frequencies --   633.2249               641.3761               654.5173
 Red. masses --     5.2744                 5.6743                 2.8910
 Frc consts  --     1.2461                 1.3753                 0.7297
 IR Inten    --     2.9333                19.9001                 0.0597

                    34                     35                     36
                     A                      A                      A
 Frequencies --   683.9505               690.1266               758.9406
 Red. masses --     4.3324                 2.0084                 1.3399
 Frc consts  --     1.1941                 0.5636                 0.4547
 IR Inten    --    23.9381                 7.4177                 8.0856

                    37                     38                     39
                     A                      A                      A
 Frequencies --   765.2253               770.7716               785.3076
 Red. masses --     1.2985                 2.5562                 4.8006
 Frc consts  --     0.4480                 0.8947                 1.7443
 IR Inten    --    17.7073                 0.4542                 0.5308

                    40                     41                     42
                     A                      A                      A
 Frequencies --   799.8182               817.7936               828.0821
 Red. masses --     2.0794                 2.5673                 1.3395
 Frc consts  --     0.7837                 1.0116                 0.5412
 IR Inten    --    64.8164                 1.1542                 5.7331

                    43                     44                     45
                     A                      A                      A
 Frequencies --   828.5229               858.8575               873.9480
 Red. masses --     2.6034                 1.5669                 2.1729
 Frc consts  --     1.0529                 0.6810                 0.9778
 IR Inten    --     9.7841                68.7968               338.8395

                    46                     47                     48
                     A                      A                      A
 Frequencies --   882.9087               886.0534               940.7385
 Red. masses --     1.7230                 1.6895                 5.5596
 Frc consts  --     0.7913                 0.7815                 2.8989
 IR Inten    --    80.8001                 3.1423               106.7318

                    49                     50                     51
                     A                      A                      A
 Frequencies --   947.9751               954.8683               956.2804
 Red. masses --     1.3185                 1.8827                 1.8464
 Frc consts  --     0.6981                 1.0114                 0.9948
 IR Inten    --     2.3976                 7.0201                 3.9111

                    52                     53                     54
                     A                      A                      A
 Frequencies --   963.5182               974.4536               984.7665
 Red. masses --     1.2980                 1.2012                 1.2647
 Frc consts  --     0.7100                 0.6720                 0.7226
 IR Inten    --     0.4171                 0.1195                 0.0117

                    55                     56                     57
                     A                      A                      A
 Frequencies --   993.7531              1039.6034              1045.4474
 Red. masses --     3.5230                 1.3594                 1.3628
 Frc consts  --     2.0499                 0.8656                 0.8776
 IR Inten    --   141.2839                 3.4477                 4.4786

                    58                     59                     60
                     A                      A                      A
 Frequencies --  1052.2547              1152.0993              1176.2366
 Red. masses --     2.2723                 1.6038                 1.2337
 Frc consts  --     1.4824                 1.2543                 1.0056
 IR Inten    --     0.5657                23.8802                 1.9136

                    61                     62                     63
                     A                      A                      A
 Frequencies --  1187.3748              1217.7789              1225.2320
 Red. masses --     1.1784                 1.6588                 2.4645
 Frc consts  --     0.9788                 1.4494                 2.1798
 IR Inten    --     2.3193               107.9046                 0.3429

                    64                     65                     66
                     A                      A                      A
 Frequencies --  1226.4112              1250.5079              1260.6573
 Red. masses --     2.3600                 2.2570                 2.0928
 Frc consts  --     2.0914                 2.0795                 1.9597
 IR Inten    --     4.2266                 5.5062               107.9032

                    67                     68                     69
                     A                      A                      A
 Frequencies --  1296.8666              1302.3756              1332.4967
 Red. masses --     1.8466                 2.5967                 1.2501
 Frc consts  --     1.8298                 2.5950                 1.3078
 IR Inten    --    70.4110               237.5689                40.5202

                    70                     71                     72
                     A                      A                      A
 Frequencies --  1338.5937              1393.6486              1413.1955
 Red. masses --     1.2476                 2.0543                 6.0424
 Frc consts  --     1.3171                 2.3508                 7.1100
 IR Inten    --    41.7076                25.5077                 3.3411

                    73                     74                     75
                     A                      A                      A
 Frequencies --  1425.7571              1426.1722              1427.4476
 Red. masses --     1.2318                 2.6768                 1.3616
 Frc consts  --     1.4753                 3.2079                 1.6346
 IR Inten    --     4.9602                65.2022                13.1407

                    76                     77                     78
                     A                      A                      A
 Frequencies --  1458.2387              1487.0808              1487.3493
 Red. masses --     1.2084                 1.0532                 2.4253
 Frc consts  --     1.5139                 1.3723                 3.1612
 IR Inten    --     5.9102                 0.2286                 9.8714

                    79                     80                     81
                     A                      A                      A
 Frequencies --  1491.0100              1495.8009              1502.2006
 Red. masses --     1.0531                 1.0831                 1.0580
 Frc consts  --     1.3794                 1.4278                 1.4066
 IR Inten    --     0.6455                 6.7160                 0.3190

                    82                     83                     84
                     A                      A                      A
 Frequencies --  1515.6176              1517.3416              1519.7780
 Red. masses --     1.0484                 1.1497                 1.0479
 Frc consts  --     1.4189                 1.5596                 1.4260
 IR Inten    --     0.1179                19.1108                 0.6254

                    85                     86                     87
                     A                      A                      A
 Frequencies --  1520.5724              1536.6376              1538.5720
 Red. masses --     1.9188                 1.0502                 1.0468
 Frc consts  --     2.6140                 1.4610                 1.4600
 IR Inten    --   104.6048                 4.7373                 6.4716

                    88                     89                     90
                     A                      A                      A
 Frequencies --  1546.1061              1561.5853              1626.5168
 Red. masses --     1.0521                 3.4093                 6.9297
 Frc consts  --     1.4818                 4.8984                10.8014
 IR Inten    --    16.1602                58.5299                10.4236

                    91                     92                     93
                     A                      A                      A
 Frequencies --  1660.4098              1684.8266              3022.5215
 Red. masses --     5.3403                 6.1663                 1.0379
 Frc consts  --     8.6746                10.3130                 5.5868
 IR Inten    --   103.1489                98.2862                24.7128

                    94                     95                     96
                     A                      A                      A
 Frequencies --  3023.1948              3029.5482              3049.5706
 Red. masses --     1.0407                 1.0404                 1.0365
 Frc consts  --     5.6042                 5.6262                 5.6793
 IR Inten    --    29.1613                70.2391                 2.4118

                    97                     98                     99
                     A                      A                      A
 Frequencies --  3051.4153              3080.8151              3084.3384
 Red. masses --     1.0364                 1.0987                 1.0963
 Frc consts  --     5.6854                 6.1439                 6.1445
 IR Inten    --     3.8005                10.9381                17.4407

                   100                    101                    102
                     A                      A                      A
 Frequencies --  3087.8458              3099.9372              3115.3348
 Red. masses --     1.0951                 1.1019                 1.1015
 Frc consts  --     6.1521                 6.2388                 6.2985
 IR Inten    --    75.6659                37.4823                 7.1960

                   103                    104                    105
                     A                      A                      A
 Frequencies --  3117.9994              3119.7720              3121.5001
 Red. masses --     1.1003                 1.0995                 1.0993
 Frc consts  --     6.3028                 6.3049                 6.3107
 IR Inten    --    49.1610                 0.7125                32.3154

                   106                    107                    108
                     A                      A                      A
 Frequencies --  3129.1381              3129.4595              3174.5138
 Red. masses --     1.1004                 1.1003                 1.0854
 Frc consts  --     6.3483                 6.3491                 6.4448
 IR Inten    --     8.0801                19.1572                 5.4837

                   109                    110                    111
                     A                      A                      A
 Frequencies --  3178.5583              3183.8039              3193.1909
 Red. masses --     1.0882                 1.0882                 1.0930
 Frc consts  --     6.4779                 6.4991                 6.5664
 IR Inten    --     0.3814                12.6685                32.8255

                   112                    113                    114
                     A                      A                      A
 Frequencies --  3203.6766              3207.3951              3214.7178
 Red. masses --     1.0899                 1.0967                 1.0938
 Frc consts  --     6.5905                 6.6472                 6.6602
 IR Inten    --    31.3513                30.0147                10.2329

 - Thermochemistry -
 -------------------
 Temperature   298.150 Kelvin.  Pressure   1.00000 Atm.
 Atom     1 has atomic number  6 and mass  12.00000

 Molecular mass:   258.14399 amu.
 Principal axes and moments of inertia in atomic units:
                           1         2         3
     Eigenvalues --  1854.44346********************
           X            1.00000  -0.00078  -0.00001
           Y            0.00078   1.00000  -0.00008
           Z            0.00001   0.00008   1.00000
 This molecule is an asymmetric top.
 Rotational symmetry number  1.
 Warning -- assumption of classical behavior for rotation
           may cause significant error
 Rotational temperatures (Kelvin)      0.04671     0.00852     0.00783
 Rotational constants (GHZ):           0.97320     0.17746     0.16325
    1 imaginary frequencies ignored.
 Zero-point vibrational energy     890457.4 (Joules/Mol)
                                  212.82442 (Kcal/Mol)
 Warning -- explicit consideration of  29 degrees of freedom as
           vibrations may cause significant error
 Vibrational temperatures:     27.26    48.30    71.25   134.88   154.33
          (Kelvin)            169.76   179.91   240.45   266.53   270.30
                              317.97   319.62   328.18   335.82   384.27
                              409.06   427.27   440.02   467.09   522.64
                              548.04   563.01   591.62   615.61   680.49
                              699.14   755.15   786.07   812.33   911.07
                              922.80   941.70   984.05   992.94  1091.94
                             1100.99  1108.97  1129.88  1150.76  1176.62
                             1191.42  1192.06  1235.70  1257.41  1270.31
                             1274.83  1353.51  1363.92  1373.84  1375.87
                             1386.29  1402.02  1416.86  1429.79  1495.76
                             1504.16  1513.96  1657.61  1692.34  1708.37
                             1752.11  1762.83  1764.53  1799.20  1813.80
                             1865.90  1873.83  1917.16  1925.94  2005.15
                             2033.27  2051.34  2051.94  2053.78  2098.08
                             2139.57  2139.96  2145.23  2152.12  2161.33
                             2180.63  2183.11  2186.62  2187.76  2210.88
                             2213.66  2224.50  2246.77  2340.19  2388.96
                             2424.09  4348.73  4349.70  4358.84  4387.65
                             4390.30  4432.60  4437.67  4442.72  4460.11
                             4482.27  4486.10  4488.65  4491.14  4502.13
                             4502.59  4567.41  4573.23  4580.78  4594.28
                             4609.37  4614.72  4625.26

 Zero-point correction=                           0.339157 (Hartree/Particle)
 Thermal correction to Energy=                    0.358319
 Thermal correction to Enthalpy=                  0.359263
 Thermal correction to Gibbs Free Energy=         0.291679
 Sum of electronic and zero-point Energies=           -987.420924
 Sum of electronic and thermal Energies=              -987.401763
 Sum of electronic and thermal Enthalpies=            -987.400819
 Sum of electronic and thermal Free Energies=         -987.468402

                     E (Thermal)             CV                S
                      KCal/Mol        Cal/Mol-Kelvin    Cal/Mol-Kelvin
 Total                  224.848             74.401            142.242
 Electronic               0.000              0.000              0.000
 Translational            0.889              2.981             42.545
 Rotational               0.889              2.981             33.699
 Vibrational            223.071             68.439             65.997
 Vibration     1          0.593              1.986              6.742
 Vibration     2          0.594              1.983              5.606
 Vibration     3          0.595              1.978              4.836
 Vibration     4          0.603              1.954              3.580
 Vibration     5          0.606              1.943              3.318
 Vibration     6          0.608              1.934              3.133
 Vibration     7          0.610              1.928              3.021
 Vibration     8          0.624              1.883              2.468
 Vibration     9          0.631              1.860              2.275
 Vibration    10          0.633              1.857              2.249
 Vibration    11          0.648              1.809              1.951
 Vibration    12          0.648              1.807              1.942
 Vibration    13          0.651              1.798              1.894
 Vibration    14          0.654              1.790              1.853
 Vibration    15          0.672              1.734              1.615
 Vibration    16          0.683              1.703              1.508
 Vibration    17          0.691              1.679              1.434
 Vibration    18          0.696              1.663              1.385
 Vibration    19          0.709              1.626              1.287
 Vibration    20          0.737              1.548              1.108
 Vibration    21          0.751              1.511              1.036
 Vibration    22          0.759              1.489              0.995
 Vibration    23          0.775              1.446              0.922
 Vibration    24          0.789              1.410              0.866
 Vibration    25          0.830              1.310              0.729
 Vibration    26          0.842              1.281              0.694
 Vibration    27          0.880              1.195              0.599
 Vibration    28          0.902              1.148              0.552
 Vibration    29          0.920              1.108              0.515

 Normal termination of Gaussian 09 at Tue Sep 28 17:40:14 2021.
 Gaussian 09:  AM64L-G09RevA.02 11-Jun-2009

 ----------------------------------------------------------------------
 #p TD(NStates=10, Root=1) b3lyp/6-31G* volume pop=NPA density=current
 Geom=AllCheck Guess=Read
 ----------------------------------------------------------------------

 C[Si](C(C)(C)C)(Oc1ccc2c(c1)cccc2)C_conf_0
 ------------------------------------------
 Redundant internal coordinates taken from checkpoint file:
 C16H22OSi_6b20_conf_0.chk
 Charge =  0 Multiplicity = 1

                         Standard orientation:
 ---------------------------------------------------------------------
 Center     Atomic      Atomic             Coordinates (Angstroms)
 Number     Number       Type             X           Y           Z
 ---------------------------------------------------------------------
      1          6           0       -1.862173   -1.679918    1.543992
      2         14           0       -2.046819   -0.610845   -0.002468
      3          6           0       -3.692238    0.360732    0.001793
      4          6           0       -3.778421    1.240406    1.267702
      5          6           0       -3.769728    1.267622   -1.245346
      6          6           0       -4.882614   -0.623746   -0.013296
      7          8           0       -0.879607    0.619964    0.002807
      8          6           0        0.482706    0.625297    0.001757
      9          6           0        1.095793    1.908910    0.000194
     10          6           0        2.463030    2.028327   -0.000755
     11          6           0        3.303064    0.881233   -0.000211
     12          6           0        2.686501   -0.411983    0.001413
     13          6           0        1.269097   -0.510356    0.002386
     14          6           0        3.522074   -1.561866    0.002082
     15          6           0        4.894020   -1.440131    0.001162
     16          6           0        5.501571   -0.161115   -0.000488
     17          6           0        4.719290    0.972601   -0.001153
     18          6           0       -1.860892   -1.667308   -1.557305
     19          1           0       -1.893977   -1.072540    2.455213
     20          1           0       -0.914819   -2.229862    1.549837
     21          1           0       -2.670390   -2.418815    1.606485
     22          1           0       -2.949074    1.954263    1.319727
     23          1           0       -3.764791    0.640995    2.186207
     24          1           0       -4.715453    1.815835    1.268201
     25          1           0       -2.941068    1.983452   -1.275335
     26          1           0       -4.707660    1.841602   -1.240722
     27          1           0       -3.748113    0.688354   -2.176575
     28          1           0       -4.887840   -1.280452    0.865512
     29          1           0       -4.882482   -1.259145   -0.907620
     30          1           0       -5.832672   -0.070589   -0.009420
     31          1           0        0.450092    2.781590   -0.000225
     32          1           0        2.921527    3.014544   -0.001958
     33          1           0        0.817104   -1.497485    0.003932
     34          1           0        3.058476   -2.545864    0.003360
     35          1           0        5.517339   -2.330550    0.001708
     36          1           0        6.584974   -0.078437   -0.001207
     37          1           0        5.178281    1.958857   -0.002402
     38          1           0       -2.658625   -2.417713   -1.617013
     39          1           0       -0.905450   -2.202848   -1.574495
     40          1           0       -1.909542   -1.055301   -2.464688
 ---------------------------------------------------------------------

 SCF Done:  E(RB3LYP) =  -987.760081679     A.U. after    1 cycles

 Excitation energies and oscillator strengths:

 Excited State   1:      Singlet-A      4.1970 eV  295.41 nm  f=0.0382  <S**2>=0.000
      69 -> 71         0.18484
      69 -> 72         0.17494
      70 -> 71         0.62974
      70 -> 72        -0.18746
 This state for optimization and/or second-order correction.
 Total Energy, E(TD-HF/TD-KS) =  -987.605843487
 Copying the excited state density for this state as the 1-particle RhoCI density.

 Excited State   2:      Singlet-A      4.5481 eV  272.61 nm  f=0.0106  <S**2>=0.000
      69 -> 71         0.49995
      70 -> 71        -0.26804
      70 -> 72        -0.41482

 Excited State   3:      Singlet-A      5.6364 eV  219.97 nm  f=0.4909  <S**2>=0.000
      67 -> 71         0.38827
      69 -> 71         0.30575
      70 -> 72         0.33744
      70 -> 73        -0.36493

 Excited State   4:      Singlet-A      5.8079 eV  213.48 nm  f=0.7790  <S**2>=0.000
      67 -> 71        -0.21554
      69 -> 71         0.29503
      69 -> 72         0.22359
      70 -> 72         0.38685
      70 -> 73         0.38146

 Excited State   5:      Singlet-A      5.8879 eV  210.57 nm  f=0.0004  <S**2>=0.000
      68 -> 71         0.70135

 Excited State   6:      Singlet-A      5.9104 eV  209.77 nm  f=0.1109  <S**2>=0.000
      66 -> 71         0.17266
      67 -> 71        -0.14297
      67 -> 72         0.17624
      69 -> 71        -0.10352
      69 -> 72         0.52262
      69 -> 73        -0.16316
      70 -> 71        -0.12216
      70 -> 73        -0.27942

 Excited State   7:      Singlet-A      6.2183 eV  199.39 nm  f=0.1571  <S**2>=0.000
      66 -> 71         0.11041
      67 -> 71         0.29433
      67 -> 72        -0.22311
      69 -> 71        -0.11180
      69 -> 72         0.31158
      69 -> 73         0.42043
      70 -> 73         0.18711

 Excited State   8:      Singlet-A      6.4904 eV  191.03 nm  f=0.1633  <S**2>=0.000
      66 -> 71         0.37238
      67 -> 71        -0.36889
      69 -> 72        -0.14543
      69 -> 73         0.36857
      70 -> 72         0.12038
      70 -> 73        -0.17355

 Excited State   9:      Singlet-A      6.5078 eV  190.52 nm  f=0.0002  <S**2>=0.000
      70 -> 74         0.66369
      70 -> 75        -0.19604
      70 -> 77        -0.10349

 Excited State  10:      Singlet-A      6.6366 eV  186.82 nm  f=0.0193  <S**2>=0.000
      65 -> 71        -0.18386
      66 -> 71         0.47791
      67 -> 71         0.21381
      67 -> 72         0.26815
      69 -> 73        -0.14663
      70 -> 73         0.24785

 The electronic state is 1-A.
 Alpha  occ. eigenvalues --  -66.14736 -19.15542 -10.24829 -10.19442 -10.18953
 Alpha  occ. eigenvalues --  -10.18869 -10.18565 -10.18519 -10.18393 -10.18380
 Alpha  occ. eigenvalues --  -10.18314 -10.18238 -10.18127 -10.17730 -10.17170
 Alpha  occ. eigenvalues --  -10.17162 -10.16622 -10.16619  -5.28843  -3.64974
 Alpha  occ. eigenvalues --   -3.64626  -3.64599  -1.02723  -0.86402  -0.80986
 Alpha  occ. eigenvalues --   -0.79680  -0.76594  -0.73120  -0.71103  -0.70447
 Alpha  occ. eigenvalues --   -0.68566  -0.68153  -0.67526  -0.62747  -0.60607
 Alpha  occ. eigenvalues --   -0.59249  -0.55879  -0.52871  -0.50981  -0.50218
 Alpha  occ. eigenvalues --   -0.46443  -0.45084  -0.44361  -0.43587  -0.43280
 Alpha  occ. eigenvalues --   -0.42827  -0.41996  -0.41827  -0.41419  -0.40733
 Alpha  occ. eigenvalues --   -0.40079  -0.39539  -0.39133  -0.39085  -0.38048
 Alpha  occ. eigenvalues --   -0.37723  -0.37400  -0.36786  -0.36042  -0.34433
 Alpha  occ. eigenvalues --   -0.33226  -0.32825  -0.32566  -0.31071  -0.31004
 Alpha  occ. eigenvalues --   -0.29191  -0.27438  -0.26583  -0.22585  -0.20235
 Alpha virt. eigenvalues --   -0.03034   0.00268   0.03793   0.06123   0.07179
 Alpha virt. eigenvalues --    0.09127   0.09953   0.10316   0.11231   0.11457
 Alpha virt. eigenvalues --    0.11888   0.12187   0.13005   0.13652   0.14602

 Mulliken atomic charges:
              1
     1  C   -0.693850
     2  Si   0.922612
     3  C   -0.092503
     4  C   -0.457453
     5  C   -0.457299
     6  C   -0.461080
     7  O   -0.596224
     8  C    0.400819
     9  C   -0.197333
    10  C   -0.214400
    11  C    0.151062
    12  C    0.137589
    13  C   -0.272351
    14  C   -0.207759
    15  C   -0.157794
    16  C   -0.113288
    17  C   -0.216576
    18  C   -0.693585
    19  H    0.176750
    20  H    0.172131
    21  H    0.167894
    22  H    0.162280
    23  H    0.141262
    24  H    0.137460
    25  H    0.162399
    26  H    0.137352
    27  H    0.141225
    28  H    0.144126
    29  H    0.144278
    30  H    0.143636
    31  H    0.123012
    32  H    0.124674
    33  H    0.142413
    34  H    0.113785
    35  H    0.114899
    36  H    0.130472
    37  H    0.122609
    38  H    0.167908
    39  H    0.172303
    40  H    0.176544
 Sum of Mulliken atomic charges =  -0.00000

 Dipole moment (field-independent basis, Debye):
    X=             -2.6604    Y=             -1.2009    Z=             -0.0043  Tot=              2.9189
 Quadrupole moment (field-independent basis, Debye-Ang):
   XX=           -111.7887   YY=           -111.3297   ZZ=           -119.3915
   XY=              3.2419   XZ=              0.0002   YZ=             -0.0069

 Summary of Natural Population Analysis:

                                       Natural Population
                Natural  -----------------------------------------------
    Atom  No    Charge         Core      Valence    Rydberg      Total
 -----------------------------------------------------------------------
      C    1   -1.23694      1.99944     5.22686    0.01064     7.23694
     Si    2    2.07846      9.99756     1.87705    0.04693    11.92154
      C    3   -0.54716      1.99916     4.53033    0.01767     6.54716
      C    4   -0.67657      1.99941     4.66532    0.01184     6.67657
      C    5   -0.67652      1.99941     4.66524    0.01186     6.67652
      C    6   -0.67719      1.99941     4.66617    0.01162     6.67719
      O    7   -0.81228      1.99975     6.80011    0.01241     8.81228
      C    8    0.39456      1.99878     3.58432    0.02234     5.60544
      C    9   -0.34194      1.99905     4.32589    0.01700     6.34194
      C   10   -0.21789      1.99907     4.20348    0.01535     6.21789
      C   11   -0.04540      1.99902     4.03134    0.01503     6.04540
      C   12   -0.05256      1.99904     4.03779    0.01573     6.05256
      C   13   -0.25995      1.99899     4.24760    0.01336     6.25995
      C   14   -0.22856      1.99906     4.21419    0.01532     6.22856
      C   15   -0.29863      1.99912     4.28311    0.01640     6.29863
      C   16   -0.16609      1.99911     4.15236    0.01463     6.16609
      C   17   -0.25166      1.99907     4.23717    0.01541     6.25166
      C   18   -1.23698      1.99944     5.22689    0.01065     7.23698
      H   19    0.26109      0.00000     0.73823    0.00068     0.73891
      H   20    0.25685      0.00000     0.74223    0.00093     0.74315
      H   21    0.25751      0.00000     0.74193    0.00056     0.74249
      H   22    0.24049      0.00000     0.75810    0.00140     0.75951
      H   23    0.22788      0.00000     0.77103    0.00109     0.77212
      H   24    0.22960      0.00000     0.76881    0.00159     0.77040
      H   25    0.24067      0.00000     0.75793    0.00140     0.75933
      H   26    0.22953      0.00000     0.76887    0.00159     0.77047
      H   27    0.22780      0.00000     0.77111    0.00109     0.77220
      H   28    0.22920      0.00000     0.76967    0.00113     0.77080
      H   29    0.22939      0.00000     0.76948    0.00113     0.77061
      H   30    0.23391      0.00000     0.76449    0.00160     0.76609
      H   31    0.23968      0.00000     0.75923    0.00109     0.76032
      H   32    0.23178      0.00000     0.76711    0.00110     0.76822
      H   33    0.22670      0.00000     0.77191    0.00139     0.77330
      H   34    0.22398      0.00000     0.77485    0.00117     0.77602
      H   35    0.23047      0.00000     0.76873    0.00081     0.76953
      H   36    0.23205      0.00000     0.76708    0.00087     0.76795
      H   37    0.22914      0.00000     0.76973    0.00112     0.77086
      H   38    0.25757      0.00000     0.74187    0.00056     0.74243
      H   39    0.25706      0.00000     0.74199    0.00094     0.74294
      H   40    0.26093      0.00000     0.73839    0.00068     0.73907
 =======================================================================
   * Total *   -0.00000     43.98389    95.69798    0.31813   140.00000

 Normal termination of Gaussian 09 at Wed Sep 29 00:26:46 2021.
