 Gaussian 09, Revision A.02,

 -----------------------------------
 #p opt b3lyp/6-31G* scf=(xqc,tight)
 -----------------------------------

 ----------------------------------
 CC(=O)Oc1c2ccccc2cc2c1cccc2_conf_0
 ----------------------------------
 Symbolic Z-matrix:
 Charge =  0 Multiplicity = 1

 SCF Done:  E(RB3LYP) =  -767.391887119     A.U. after   16 cycles
 SCF Done:  E(RB3LYP) =  -767.402032282     A.U. after   14 cycles
 SCF Done:  E(RB3LYP) =  -767.402237160     A.U. after   14 cycles
 SCF Done:  E(RB3LYP) =  -767.403602503     A.U. after   13 cycles
 SCF Done:  E(RB3LYP) =  -767.403939560     A.U. after   12 cycles
 SCF Done:  E(RB3LYP) =  -767.404012721     A.U. after   12 cycles
 SCF Done:  E(RB3LYP) =  -767.404034816     A.U. after   13 cycles
 SCF Done:  E(RB3LYP) =  -767.404062809     A.U. after   12 cycles
 SCF Done:  E(RB3LYP) =  -767.404095192     A.U. after   11 cycles
 SCF Done:  E(RB3LYP) =  -767.404139715     A.U. after   10 cycles
 SCF Done:  E(RB3LYP) =  -767.404179844     A.U. after   11 cycles
 SCF Done:  E(RB3LYP) =  -767.404206890     A.U. after   12 cycles
 SCF Done:  E(RB3LYP) =  -767.404214548     A.U. after   11 cycles
 SCF Done:  E(RB3LYP) =  -767.404215512     A.U. after   10 cycles
 SCF Done:  E(RB3LYP) =  -767.404215837     A.U. after    9 cycles
 SCF Done:  E(RB3LYP) =  -767.404215843     A.U. after    6 cycles
 Optimization completed.
    -- Stationary point found.
 Normal termination of Gaussian 09 at Wed Sep 29 20:19:38 2021.

 ----------------------------------------------------------------------
 #p freq b3lyp/6-31G* volume NMR pop=NPA density=current Geom=AllCheck
 Guess=Read
 ----------------------------------------------------------------------

 CC(=O)Oc1c2ccccc2cc2c1cccc2_conf_0
 ----------------------------------
 Redundant internal coordinates taken from checkpoint file:
 C16H12O2_e52d_conf_0.chk
 Charge =  0 Multiplicity = 1

 SCF Done:  E(RB3LYP) =  -767.404215843     A.U. after    1 cycles

  1  C    Isotropic =   169.3972   Anisotropy =    39.5126

  2  C    Isotropic =    29.3678   Anisotropy =    75.6580

  3  O    Isotropic =   -92.7082   Anisotropy =   561.9093

  4  O    Isotropic =   110.7218   Anisotropy =   191.0244

  5  C    Isotropic =    50.1395   Anisotropy =    85.3982

  6  C    Isotropic =    70.9957   Anisotropy =   180.1936

  7  C    Isotropic =    72.3469   Anisotropy =   156.9976

  8  C    Isotropic =    70.2407   Anisotropy =   160.7237

  9  C    Isotropic =    70.4776   Anisotropy =   160.2247

 10  C    Isotropic =    67.0390   Anisotropy =   143.3713

 11  C    Isotropic =    64.7009   Anisotropy =   192.6321

 12  C    Isotropic =    70.0087   Anisotropy =   124.7802

 13  C    Isotropic =    64.7010   Anisotropy =   192.6333

 14  C    Isotropic =    70.9958   Anisotropy =   180.1950

 15  C    Isotropic =    72.3465   Anisotropy =   156.9983

 16  C    Isotropic =    70.2407   Anisotropy =   160.7252

 17  C    Isotropic =    70.4777   Anisotropy =   160.2264

 18  C    Isotropic =    67.0388   Anisotropy =   143.3734

 19  H    Isotropic =    30.3564   Anisotropy =     8.1851

 20  H    Isotropic =    29.6248   Anisotropy =     6.0310

 21  H    Isotropic =    29.6247   Anisotropy =     6.0316

 22  H    Isotropic =    24.2329   Anisotropy =    10.5437

 23  H    Isotropic =    24.7332   Anisotropy =     6.1377

 24  H    Isotropic =    24.7668   Anisotropy =     5.1622

 25  H    Isotropic =    24.3330   Anisotropy =     7.3906

 26  H    Isotropic =    24.1139   Anisotropy =     8.7493

 27  H    Isotropic =    24.2329   Anisotropy =    10.5439

 28  H    Isotropic =    24.7332   Anisotropy =     6.1379

 29  H    Isotropic =    24.7667   Anisotropy =     5.1623

 30  H    Isotropic =    24.3329   Anisotropy =     7.3908

  Exact polarizability: 280.100  -0.004 192.002  -0.001 -16.993  73.050
 Approx polarizability: 479.900  -0.007 322.810  -0.002 -41.172 128.206

                     1                      2                      3
                     A                      A                      A
 Frequencies --    28.8662                57.1842                72.7756
 Red. masses --     7.1942                 2.0043                 4.3357
 Frc consts  --     0.0035                 0.0039                 0.0135
 IR Inten    --     1.0277                 1.8255                 0.6730

                     4                      5                      6
                     A                      A                      A
 Frequencies --    87.9332                91.2843               123.8930
 Red. masses --     5.5419                 1.3657                 3.6761
 Frc consts  --     0.0252                 0.0067                 0.0332
 IR Inten    --     2.2798                 0.2727                 0.0028

                     7                      8                      9
                     A                      A                      A
 Frequencies --   190.4955               221.0703               238.3478
 Red. masses --     5.8691                 4.4140                 4.8377
 Frc consts  --     0.1255                 0.1271                 0.1619
 IR Inten    --     1.1554                 0.8815                 0.0000

                    10                     11                     12
                     A                      A                      A
 Frequencies --   310.3117               320.8762               332.6251
 Red. masses --     7.3236                 3.9609                 3.6317
 Frc consts  --     0.4155                 0.2403                 0.2367
 IR Inten    --     1.3020                 0.5530                 1.3967

                    13                     14                     15
                     A                      A                      A
 Frequencies --   401.2189               416.9087               428.7693
 Red. masses --     6.5379                 3.6265                 6.0503
 Frc consts  --     0.6201                 0.3714                 0.6554
 IR Inten    --     0.2395                 2.7325                 0.0065

                    16                     17                     18
                     A                      A                      A
 Frequencies --   484.8026               506.7171               537.7136
 Red. masses --     2.8912                 3.6540                 4.8565
 Frc consts  --     0.4004                 0.5528                 0.8273
 IR Inten    --     0.0081                 0.0143                13.6129

                    19                     20                     21
                     A                      A                      A
 Frequencies --   559.0623               569.7712               598.2066
 Red. masses --     3.2936                 4.0713                 3.9635
 Frc consts  --     0.6065                 0.7787                 0.8357
 IR Inten    --     5.2320                 1.3871                 0.1444

                    22                     23                     24
                     A                      A                      A
 Frequencies --   602.8167               630.4987               654.1229
 Red. masses --     4.6768                 6.2249                 6.1858
 Frc consts  --     1.0013                 1.4580                 1.5594
 IR Inten    --     3.2661                11.0863                 1.0670

                    25                     26                     27
                     A                      A                      A
 Frequencies --   684.4807               732.5782               752.3568
 Red. masses --     5.3452                 4.1251                 1.4157
 Frc consts  --     1.4755                 1.3043                 0.4722
 IR Inten    --     5.0517                18.3193                43.4835

                    28                     29                     30
                     A                      A                      A
 Frequencies --   754.9693               774.0103               796.5563
 Red. masses --     3.9829                 1.3393                 3.0603
 Frc consts  --     1.3375                 0.4727                 1.1441
 IR Inten    --     0.0088                 0.0053                19.1924

                    31                     32                     33
                     A                      A                      A
 Frequencies --   855.8915               869.9272               872.5191
 Red. masses --     1.5986                 1.5370                 4.0051
 Frc consts  --     0.6900                 0.6853                 1.7964
 IR Inten    --    21.7062                 0.0009                 3.4301

                    34                     35                     36
                     A                      A                      A
 Frequencies --   875.4317               897.6964               910.4494
 Red. masses --     4.7311                 1.6424                 6.3489
 Frc consts  --     2.1363                 0.7798                 3.1007
 IR Inten    --     0.2918                19.0647                15.3436

                    37                     38                     39
                     A                      A                      A
 Frequencies --   944.6225               958.9661               961.8363
 Red. masses --     6.7145                 1.3138                 1.3394
 Frc consts  --     3.5300                 0.7119                 0.7300
 IR Inten    --     0.6276                 0.0062                 1.1850

                    40                     41                     42
                     A                      A                      A
 Frequencies --   989.9396               991.1198              1018.0541
 Red. masses --     1.2708                 1.2825                 2.0011
 Frc consts  --     0.7338                 0.7423                 1.2220
 IR Inten    --     0.0039                 0.3369                24.4507

                    43                     44                     45
                     A                      A                      A
 Frequencies --  1043.6116              1044.5005              1073.9160
 Red. masses --     2.3925                 2.1432                 1.7322
 Frc consts  --     1.5352                 1.3776                 1.1770
 IR Inten    --     0.2871                 5.0608                 4.0706

                    46                     47                     48
                     A                      A                      A
 Frequencies --  1092.0936              1136.8757              1181.5777
 Red. masses --     5.3686                 2.2148                 1.2317
 Frc consts  --     3.7725                 1.6866                 1.0132
 IR Inten    --   153.8926                 0.3018                 0.5572

                    49                     50                     51
                     A                      A                      A
 Frequencies --  1192.3810              1201.0712              1214.9609
 Red. masses --     1.3801                 1.1406                 1.3138
 Frc consts  --     1.1561                 0.9694                 1.1426
 IR Inten    --    29.3614                57.5731                 0.7923

                    52                     53                     54
                     A                      A                      A
 Frequencies --  1230.4804              1259.7827              1298.7669
 Red. masses --     3.1774                 1.6861                 2.0856
 Frc consts  --     2.8344                 1.5766                 2.0728
 IR Inten    --   486.0323                 0.9939                 4.2424

                    55                     56                     57
                     A                      A                      A
 Frequencies --  1316.6987              1376.5662              1379.2476
 Red. masses --     2.4410                 2.9012                 4.5974
 Frc consts  --     2.4934                 3.2390                 5.1528
 IR Inten    --     6.7977                 1.1821                71.2574

                    58                     59                     60
                     A                      A                      A
 Frequencies --  1422.3889              1424.0048              1427.1954
 Red. masses --     4.7892                 1.3281                 1.6248
 Frc consts  --     5.7088                 1.5867                 1.9499
 IR Inten    --     2.9182                49.7623                 0.4257

                    61                     62                     63
                     A                      A                      A
 Frequencies --  1450.0801              1495.0411              1499.4051
 Red. masses --     8.6283                 2.0065                 1.0544
 Frc consts  --    10.6896                 2.6424                 1.3966
 IR Inten    --    10.6770                 3.9147                13.3374

                    64                     65                     66
                     A                      A                      A
 Frequencies --  1500.6756              1504.4826              1534.8585
 Red. masses --     2.7231                 1.0581                 2.6244
 Frc consts  --     3.6131                 1.4111                 3.6426
 IR Inten    --     0.1333                10.7756                 2.1739

                    67                     68                     69
                     A                      A                      A
 Frequencies --  1590.0424              1608.7688              1636.1697
 Red. masses --     5.9753                 7.3053                 5.5334
 Frc consts  --     8.9008                11.1397                 8.7277
 IR Inten    --     1.2732                 3.2560                 2.3233

                    70                     71                     72
                     A                      A                      A
 Frequencies --  1683.0343              1687.6419              1863.1459
 Red. masses --     6.1310                 5.6227                11.6999
 Frc consts  --    10.2321                 9.4354                23.9292
 IR Inten    --     0.3735                 8.8607               196.6540

                    73                     74                     75
                     A                      A                      A
 Frequencies --  3072.2381              3133.7946              3179.5932
 Red. masses --     1.0373                 1.1005                 1.0886
 Frc consts  --     5.7683                 6.3677                 6.4840
 IR Inten    --     1.8924                 4.3565                 1.4878

                    76                     77                     78
                     A                      A                      A
 Frequencies --  3182.2591              3184.1111              3185.5699
 Red. masses --     1.0860                 1.0874                 1.1033
 Frc consts  --     6.4795                 6.4957                 6.5963
 IR Inten    --     0.0162                 6.0654                 7.6222

                    79                     80                     81
                     A                      A                      A
 Frequencies --  3193.0872              3193.3700              3207.3527
 Red. masses --     1.0893                 1.0894                 1.0947
 Frc consts  --     6.5436                 6.5453                 6.6350
 IR Inten    --     1.8698                28.3168                45.6425

                    82                     83                     84
                     A                      A                      A
 Frequencies --  3207.6661              3223.4214              3224.1236
 Red. masses --     1.0947                 1.0939                 1.0940
 Frc consts  --     6.6364                 6.6965                 6.7006
 IR Inten    --    22.6992                25.2362                14.6239

 - Thermochemistry -
 -------------------
 Temperature   298.150 Kelvin.  Pressure   1.00000 Atm.
 Atom     1 has atomic number  6 and mass  12.00000

 Molecular mass:   236.08373 amu.
 Principal axes and moments of inertia in atomic units:
                           1         2         3
     Eigenvalues --  3340.195634219.952567141.67433
           X            1.00000   0.00000  -0.00000
           Y           -0.00000   0.99992  -0.01276
           Z            0.00000   0.01276   0.99992
 This molecule is an asymmetric top.
 Rotational symmetry number  1.
 Warning -- assumption of classical behavior for rotation
           may cause significant error
 Rotational temperatures (Kelvin)      0.02593     0.02052     0.01213
 Rotational constants (GHZ):           0.54031     0.42767     0.25271
 Zero-point vibrational energy     620046.8 (Joules/Mol)
                                  148.19474 (Kcal/Mol)
 Warning -- explicit consideration of  22 degrees of freedom as
           vibrations may cause significant error
 Vibrational temperatures:     41.53    82.28   104.71   126.52   131.34
          (Kelvin)            178.25   274.08   318.07   342.93   446.47
                              461.67   478.57   577.26   599.84   616.90
                              697.52   729.05   773.65   804.36   819.77
                              860.68   867.32   907.15   941.14   984.81
                             1054.02  1082.47  1086.23  1113.63  1146.07
                             1231.44  1251.63  1255.36  1259.55  1291.58
                             1309.93  1359.10  1379.74  1383.87  1424.30
                             1426.00  1464.75  1501.52  1502.80  1545.12
                             1571.28  1635.71  1700.02  1715.57  1728.07
                             1748.06  1770.38  1812.54  1868.63  1894.43
                             1980.57  1984.43  2046.50  2048.82  2053.41
                             2086.34  2151.03  2157.31  2159.13  2164.61
                             2208.32  2287.71  2314.66  2354.08  2421.51
                             2428.14  2680.65  4420.26  4508.83  4574.72
                             4578.56  4581.22  4583.32  4594.13  4594.54
                             4614.66  4615.11  4637.78  4638.79

 Zero-point correction=                           0.236163 (Hartree/Particle)
 Thermal correction to Energy=                    0.250465
 Thermal correction to Enthalpy=                  0.251409
 Thermal correction to Gibbs Free Energy=         0.193786
 Sum of electronic and zero-point Energies=           -767.168052
 Sum of electronic and thermal Energies=              -767.153751
 Sum of electronic and thermal Enthalpies=            -767.152806
 Sum of electronic and thermal Free Energies=         -767.210430

                     E (Thermal)             CV                S
                      KCal/Mol        Cal/Mol-Kelvin    Cal/Mol-Kelvin
 Total                  157.169             56.455            121.279
 Electronic               0.000              0.000              0.000
 Translational            0.889              2.981             42.279
 Rotational               0.889              2.981             32.976
 Vibrational            155.392             50.494             46.025
 Vibration     1          0.593              1.984              5.906
 Vibration     2          0.596              1.975              4.552
 Vibration     3          0.599              1.967              4.077
 Vibration     4          0.601              1.958              3.706
 Vibration     5          0.602              1.955              3.632
 Vibration     6          0.610              1.929              3.039
 Vibration     7          0.634              1.853              2.223
 Vibration     8          0.648              1.809              1.950
 Vibration     9          0.656              1.782              1.815
 Vibration    10          0.699              1.654              1.361
 Vibration    11          0.706              1.634              1.306
 Vibration    12          0.715              1.610              1.247
 Vibration    13          0.767              1.467              0.958
 Vibration    14          0.780              1.434              0.903
 Vibration    15          0.790              1.408              0.863
 Vibration    16          0.841              1.284              0.697
 Vibration    17          0.862              1.235              0.642
 Vibration    18          0.893              1.167              0.570
 Vibration    19          0.915              1.120              0.526
 Vibration    20          0.926              1.097              0.505
 Vibration    21          0.956              1.036              0.453
 Vibration    22          0.961              1.026              0.445

 Optimization completed.
    -- Stationary point found.
 Normal termination of Gaussian 09 at Wed Sep 29 21:53:25 2021.
 Gaussian 09:  AM64L-G09RevA.02 11-Jun-2009

 ----------------------------------------------------------------------
 #p TD(NStates=10, Root=1) b3lyp/6-31G* volume pop=NPA density=current
 Geom=AllCheck Guess=Read
 ----------------------------------------------------------------------

 CC(=O)Oc1c2ccccc2cc2c1cccc2_conf_0
 ----------------------------------
 Redundant internal coordinates taken from checkpoint file:
 C16H12O2_e52d_conf_0.chk
 Charge =  0 Multiplicity = 1

                         Standard orientation:
 ---------------------------------------------------------------------
 Center     Atomic      Atomic             Coordinates (Angstroms)
 Number     Number       Type             X           Y           Z
 ---------------------------------------------------------------------
      1          6           0        0.000264    4.128001   -0.178001
      2          6           0        0.000177    2.726178    0.381495
      3          8           0        0.000202    2.419580    1.544950
      4          8           0        0.000079    1.815135   -0.652665
      5          6           0        0.000005    0.452008   -0.331601
      6          6           0       -1.231371   -0.208008   -0.215052
      7          6           0       -2.487453    0.456759   -0.363374
      8          6           0       -3.663630   -0.233863   -0.235331
      9          6           0       -3.659328   -1.630667    0.047759
     10          6           0       -2.474801   -2.302873    0.188967
     11          6           0       -1.221941   -1.625923    0.060804
     12          6           0       -0.000131   -2.294279    0.196194
     13          6           0        1.221756   -1.626041    0.060801
     14          6           0        1.231326   -0.208130   -0.215055
     15          6           0        2.487460    0.456513   -0.363382
     16          6           0        3.663577   -0.234227   -0.235345
     17          6           0        3.659139   -1.631019    0.047743
     18          6           0        2.474540   -2.303111    0.188958
     19          1           0        0.000142    4.845372    0.643035
     20          1           0       -0.881023    4.282618   -0.809178
     21          1           0        0.881771    4.282606   -0.808877
     22          1           0       -2.494884    1.517170   -0.590538
     23          1           0       -4.611629    0.284208   -0.351577
     24          1           0       -4.603380   -2.159063    0.148111
     25          1           0       -2.464652   -3.369167    0.401455
     26          1           0       -0.000177   -3.361130    0.408409
     27          1           0        2.495005    1.516923   -0.590542
     28          1           0        4.611619    0.283763   -0.351602
     29          1           0        4.603133   -2.159518    0.148095
     30          1           0        2.464297   -3.369403    0.401450
 ---------------------------------------------------------------------

 SCF Done:  E(RB3LYP) =  -767.404215843     A.U. after    1 cycles

 Excitation energies and oscillator strengths:

 Excited State   1:      Singlet-A      3.2137 eV  385.80 nm  f=0.0779  <S**2>=0.000
      62 -> 63         0.70070
 This state for optimization and/or second-order correction.
 Total Energy, E(TD-HF/TD-KS) =  -767.286114349
 Copying the excited state density for this state as the 1-particle RhoCI density.

 Excited State   2:      Singlet-A      3.8843 eV  319.19 nm  f=0.0002  <S**2>=0.000
      61 -> 63         0.50232
      62 -> 64         0.49515

 Excited State   3:      Singlet-A      4.5441 eV  272.84 nm  f=0.0001  <S**2>=0.000
      60 -> 63         0.53627
      62 -> 65         0.43421
      62 -> 66        -0.14404

 Excited State   4:      Singlet-A      4.6801 eV  264.92 nm  f=0.0034  <S**2>=0.000
      60 -> 63        -0.26259
      62 -> 65         0.47022
      62 -> 66         0.44718

 Excited State   5:      Singlet-A      4.9598 eV  249.98 nm  f=0.0005  <S**2>=0.000
      60 -> 63         0.36588
      62 -> 65        -0.28434
      62 -> 66         0.51706

 Excited State   6:      Singlet-A      5.0860 eV  243.77 nm  f=0.0035  <S**2>=0.000
      59 -> 63         0.70344

 Excited State   7:      Singlet-A      5.2640 eV  235.53 nm  f=1.7868  <S**2>=0.000
      61 -> 63        -0.49480
      62 -> 64         0.50025

 Excited State   8:      Singlet-A      5.4540 eV  227.33 nm  f=0.0000  <S**2>=0.000
      58 -> 63         0.58435
      62 -> 67        -0.38089

 Excited State   9:      Singlet-A      5.5800 eV  222.19 nm  f=0.0002  <S**2>=0.000
      57 -> 63        -0.35261
      60 -> 64         0.46763
      61 -> 65        -0.26497
      61 -> 66         0.20452
      62 -> 67         0.11122
      62 -> 68         0.16643

 Excited State  10:      Singlet-A      5.7535 eV  215.49 nm  f=0.0003  <S**2>=0.000
      59 -> 64         0.11523
      59 -> 65         0.51799
      59 -> 66         0.43692

 The electronic state is 1-A.
 Alpha  occ. eigenvalues --  -19.19962 -19.14250 -10.32458 -10.25069 -10.20298
 Alpha  occ. eigenvalues --  -10.20298 -10.20287 -10.20240 -10.20239 -10.19370
 Alpha  occ. eigenvalues --  -10.19369 -10.19340 -10.19340 -10.19283 -10.19283
 Alpha  occ. eigenvalues --  -10.19269 -10.19269 -10.19229  -1.10750  -1.02595
 Alpha  occ. eigenvalues --   -0.88123  -0.85060  -0.80356  -0.78934  -0.75460
 Alpha  occ. eigenvalues --   -0.75353  -0.74104  -0.70402  -0.65099  -0.62740
 Alpha  occ. eigenvalues --   -0.62206  -0.59287  -0.56433  -0.53652  -0.53209
 Alpha  occ. eigenvalues --   -0.49760  -0.49105  -0.47530  -0.47240  -0.46731
 Alpha  occ. eigenvalues --   -0.46305  -0.44618  -0.43295  -0.42817  -0.41705
 Alpha  occ. eigenvalues --   -0.41260  -0.40691  -0.39647  -0.38427  -0.38399
 Alpha  occ. eigenvalues --   -0.37943  -0.36143  -0.34960  -0.34340  -0.33421
 Alpha  occ. eigenvalues --   -0.31092  -0.30286  -0.29317  -0.27727  -0.25679
 Alpha  occ. eigenvalues --   -0.24158  -0.19403
 Alpha virt. eigenvalues --   -0.06411  -0.01485   0.00265   0.00806   0.04518
 Alpha virt. eigenvalues --    0.06393   0.08199   0.10148   0.10159   0.12364
 Alpha virt. eigenvalues --    0.13472   0.13547   0.15340   0.15818   0.16089

 Mulliken atomic charges:
              1
     1  C   -0.529426
     2  C    0.588934
     3  O   -0.427813
     4  O   -0.532077
     5  C    0.167295
     6  C    0.147490
     7  C   -0.189217
     8  C   -0.136734
     9  C   -0.131735
    10  C   -0.199984
    11  C    0.142419
    12  C   -0.282596
    13  C    0.142421
    14  C    0.147500
    15  C   -0.189223
    16  C   -0.136732
    17  C   -0.131733
    18  C   -0.199991
    19  H    0.187947
    20  H    0.186080
    21  H    0.186084
    22  H    0.132250
    23  H    0.131627
    24  H    0.132358
    25  H    0.132356
    26  H    0.133911
    27  H    0.132248
    28  H    0.131626
    29  H    0.132357
    30  H    0.132356
 Sum of Mulliken atomic charges =  -0.00000

 Dipole moment (field-independent basis, Debye):
    X=              0.0001    Y=              0.2848    Z=             -1.5293  Tot=              1.5556
 Quadrupole moment (field-independent basis, Debye-Ang):
   XX=            -90.0534   YY=            -84.9431   ZZ=           -111.5448
   XY=              0.0004   XZ=             -0.0006   YZ=             -6.9002

 Summary of Natural Population Analysis:

                                       Natural Population
                Natural  -----------------------------------------------
    Atom  No    Charge         Core      Valence    Rydberg      Total
 -----------------------------------------------------------------------
      C    1   -0.77628      1.99932     4.77020    0.00676     6.77628
      C    2    0.82174      1.99945     3.13472    0.04410     5.17826
      O    3   -0.55997      1.99977     6.53993    0.02026     8.55997
      O    4   -0.55499      1.99971     6.54404    0.01124     8.55499
      C    5    0.35336      1.99860     3.62419    0.02384     5.64664
      C    6   -0.07948      1.99894     4.06576    0.01479     6.07948
      C    7   -0.21130      1.99906     4.19714    0.01510     6.21130
      C    8   -0.22720      1.99910     4.21322    0.01488     6.22720
      C    9   -0.22773      1.99910     4.21390    0.01474     6.22773
      C   10   -0.21032      1.99906     4.19669    0.01458     6.21032
      C   11   -0.05081      1.99903     4.03684    0.01495     6.05081
      C   12   -0.17137      1.99901     4.15875    0.01362     6.17137
      C   13   -0.05081      1.99903     4.03683    0.01495     6.05081
      C   14   -0.07948      1.99894     4.06576    0.01479     6.07948
      C   15   -0.21130      1.99906     4.19714    0.01510     6.21130
      C   16   -0.22720      1.99910     4.21322    0.01488     6.22720
      C   17   -0.22773      1.99910     4.21390    0.01474     6.22773
      C   18   -0.21032      1.99906     4.19669    0.01458     6.21032
      H   19    0.25977      0.00000     0.73932    0.00091     0.74023
      H   20    0.25894      0.00000     0.74019    0.00087     0.74106
      H   21    0.25895      0.00000     0.74019    0.00087     0.74105
      H   22    0.23710      0.00000     0.76162    0.00127     0.76290
      H   23    0.23695      0.00000     0.76224    0.00080     0.76305
      H   24    0.23732      0.00000     0.76187    0.00081     0.76268
      H   25    0.23365      0.00000     0.76526    0.00110     0.76635
      H   26    0.23350      0.00000     0.76517    0.00132     0.76650
      H   27    0.23710      0.00000     0.76163    0.00127     0.76290
      H   28    0.23695      0.00000     0.76225    0.00080     0.76305
      H   29    0.23732      0.00000     0.76187    0.00081     0.76268
      H   30    0.23365      0.00000     0.76526    0.00110     0.76635
 =======================================================================
   * Total *   -0.00000     35.98444    87.70577    0.30978   124.00000

 Normal termination of Gaussian 09 at Thu Sep 30 03:33:23 2021.
