 Gaussian 09, Revision A.02,

 -----------------------------------
 #p opt b3lyp/6-31G* scf=(xqc,tight)
 -----------------------------------

 -----------------------------------
 COc1ccc2c(c1)cc(cc2)N1CCCCC1_conf_0
 -----------------------------------
 Symbolic Z-matrix:
 Charge =  0 Multiplicity = 1

 SCF Done:  E(RB3LYP) =  -751.113926375     A.U. after   14 cycles
 SCF Done:  E(RB3LYP) =  -751.120757968     A.U. after   12 cycles
 SCF Done:  E(RB3LYP) =  -751.121933457     A.U. after   12 cycles
 SCF Done:  E(RB3LYP) =  -751.122233793     A.U. after   11 cycles
 SCF Done:  E(RB3LYP) =  -751.122349717     A.U. after   11 cycles
 SCF Done:  E(RB3LYP) =  -751.122373524     A.U. after    9 cycles
 SCF Done:  E(RB3LYP) =  -751.122377387     A.U. after    8 cycles
 SCF Done:  E(RB3LYP) =  -751.122378088     A.U. after    8 cycles
 SCF Done:  E(RB3LYP) =  -751.122378317     A.U. after    7 cycles
 SCF Done:  E(RB3LYP) =  -751.122378425     A.U. after    7 cycles
 SCF Done:  E(RB3LYP) =  -751.122378492     A.U. after    7 cycles
 SCF Done:  E(RB3LYP) =  -751.122378510     A.U. after    6 cycles
 Optimization completed.
    -- Stationary point found.
 Normal termination of Gaussian 09 at Thu Sep 30 21:55:37 2021.

 ----------------------------------------------------------------------
 #p freq b3lyp/6-31G* volume NMR pop=NPA density=current Geom=AllCheck
 Guess=Read
 ----------------------------------------------------------------------

 COc1ccc2c(c1)cc(cc2)N1CCCCC1_conf_0
 -----------------------------------
 Redundant internal coordinates taken from checkpoint file:
 C16H19NO_b045_conf_0.chk
 Charge =  0 Multiplicity = 1

 SCF Done:  E(RB3LYP) =  -751.122378510     A.U. after    1 cycles

  1  C    Isotropic =   137.4936   Anisotropy =    65.1815

  2  O    Isotropic =   241.1902   Anisotropy =    68.9678

  3  C    Isotropic =    40.7365   Anisotropy =   121.9523

  4  C    Isotropic =    87.6353   Anisotropy =   139.9790

  5  C    Isotropic =    66.7287   Anisotropy =   143.6131

  6  C    Isotropic =    72.4571   Anisotropy =   183.3559

  7  C    Isotropic =    60.8374   Anisotropy =   191.7895

  8  C    Isotropic =    83.3455   Anisotropy =   108.8091

  9  C    Isotropic =    84.4524   Anisotropy =   121.8269

 10  C    Isotropic =    46.1694   Anisotropy =   144.9285

 11  C    Isotropic =    76.5684   Anisotropy =   140.5089

 12  C    Isotropic =    67.1789   Anisotropy =   141.0705

 13  N    Isotropic =   180.6583   Anisotropy =    39.8291

 14  C    Isotropic =   141.6214   Anisotropy =    25.2448

 15  C    Isotropic =   162.7445   Anisotropy =     5.1303

 16  C    Isotropic =   164.2304   Anisotropy =     5.7287

 17  C    Isotropic =   161.9982   Anisotropy =     3.7602

 18  C    Isotropic =   136.6977   Anisotropy =    37.5554

 19  H    Isotropic =    28.2828   Anisotropy =     8.3721

 20  H    Isotropic =    28.5520   Anisotropy =     8.4254

 21  H    Isotropic =    28.5581   Anisotropy =     8.4428

 22  H    Isotropic =    25.5993   Anisotropy =     7.5622

 23  H    Isotropic =    24.8126   Anisotropy =     7.0001

 24  H    Isotropic =    25.4345   Anisotropy =     9.1553

 25  H    Isotropic =    25.7172   Anisotropy =    12.1377

 26  H    Isotropic =    25.3487   Anisotropy =     9.6215

 27  H    Isotropic =    24.8741   Anisotropy =     6.9402

 28  H    Isotropic =    29.3562   Anisotropy =     6.8829

 29  H    Isotropic =    28.9561   Anisotropy =     5.6772

 30  H    Isotropic =    30.5436   Anisotropy =     9.3980

 31  H    Isotropic =    30.3583   Anisotropy =     7.3799

 32  H    Isotropic =    30.7425   Anisotropy =     7.8870

 33  H    Isotropic =    30.4131   Anisotropy =     9.8154

 34  H    Isotropic =    30.6081   Anisotropy =     9.5412

 35  H    Isotropic =    30.2671   Anisotropy =     7.7327

 36  H    Isotropic =    29.3881   Anisotropy =     6.6654

 37  H    Isotropic =    28.5383   Anisotropy =     6.3279

  Exact polarizability: 307.715  -5.939 173.738  -0.394  -5.173  94.972
 Approx polarizability: 420.633 -18.935 295.275   3.982 -15.454 147.459

                     1                      2                      3
                     A                      A                      A
 Frequencies --    39.5656                63.6352                68.0137
 Red. masses --     3.3443                 3.2177                 3.3646
 Frc consts  --     0.0031                 0.0077                 0.0092
 IR Inten    --     1.6709                 1.8853                 2.2308

                     4                      5                      6
                     A                      A                      A
 Frequencies --    86.3029               136.2868               151.9400
 Red. masses --     4.0292                 4.6202                 3.5368
 Frc consts  --     0.0177                 0.0506                 0.0481
 IR Inten    --     0.3255                 1.6626                 0.5265

                     7                      8                      9
                     A                      A                      A
 Frequencies --   199.2826               230.6292               241.9108
 Red. masses --     3.2048                 3.5180                 1.3257
 Frc consts  --     0.0750                 0.1102                 0.0457
 IR Inten    --     2.0339                 0.9640                 0.1828

                    10                     11                     12
                     A                      A                      A
 Frequencies --   257.7200               265.8981               310.9535
 Red. masses --     2.1595                 2.3175                 3.8457
 Frc consts  --     0.0845                 0.0965                 0.2191
 IR Inten    --     1.8241                 1.9438                 3.2596

                    13                     14                     15
                     A                      A                      A
 Frequencies --   329.9352               341.1785               386.1674
 Red. masses --     3.4939                 3.7227                 2.5883
 Frc consts  --     0.2241                 0.2553                 0.2274
 IR Inten    --     1.8979                 0.5390                 4.2792

                    16                     17                     18
                     A                      A                      A
 Frequencies --   405.8967               450.8263               459.1722
 Red. masses --     2.8928                 3.3562                 2.9529
 Frc consts  --     0.2808                 0.4019                 0.3668
 IR Inten    --     5.1039                 0.0387                 1.1191

                    19                     20                     21
                     A                      A                      A
 Frequencies --   469.2665               481.5967               494.0707
 Red. masses --     3.2136                 2.6506                 3.1138
 Frc consts  --     0.4169                 0.3622                 0.4478
 IR Inten    --     0.0236                 5.0287                 3.9573

                    22                     23                     24
                     A                      A                      A
 Frequencies --   554.1572               578.1973               628.1701
 Red. masses --     4.0925                 2.6435                 4.4775
 Frc consts  --     0.7405                 0.5207                 1.0410
 IR Inten    --    10.8042                 2.0941                 1.6941

                    25                     26                     27
                     A                      A                      A
 Frequencies --   646.3115               666.9072               696.0047
 Red. masses --     6.3426                 2.7166                 3.8047
 Frc consts  --     1.5610                 0.7119                 1.0859
 IR Inten    --     4.3021                 3.3002                 0.6890

                    28                     29                     30
                     A                      A                      A
 Frequencies --   746.2887               757.3237               792.1586
 Red. masses --     4.4995                 3.1051                 4.6412
 Frc consts  --     1.4765                 1.0493                 1.7159
 IR Inten    --    12.5379                 1.5804                 1.6712

                    31                     32                     33
                     A                      A                      A
 Frequencies --   796.9757               829.3525               838.7991
 Red. masses --     1.4988                 1.4925                 1.8797
 Frc consts  --     0.5609                 0.6048                 0.7792
 IR Inten    --     2.7460                 0.8419                29.3006

                    34                     35                     36
                     A                      A                      A
 Frequencies --   842.4713               853.1809               879.2417
 Red. masses --     1.7242                 2.1357                 1.4087
 Frc consts  --     0.7210                 0.9160                 0.6416
 IR Inten    --     4.9787                 9.0795                13.6251

                    37                     38                     39
                     A                      A                      A
 Frequencies --   890.8723               905.9155               927.3466
 Red. masses --     1.5951                 3.4058                 2.2810
 Frc consts  --     0.7459                 1.6468                 1.1557
 IR Inten    --    36.0460                11.4489                 3.6395

                    40                     41                     42
                     A                      A                      A
 Frequencies --   938.5538               960.1109               968.9967
 Red. masses --     1.2837                 1.3078                 4.0516
 Frc consts  --     0.6663                 0.7103                 2.2414
 IR Inten    --     0.7069                 0.4234                 8.8273

                    43                     44                     45
                     A                      A                      A
 Frequencies --   986.1452               993.2031              1054.1502
 Red. masses --     1.5592                 2.0401                 2.3754
 Frc consts  --     0.8934                 1.1857                 1.5552
 IR Inten    --    16.9903                19.7024                14.8042

                    46                     47                     48
                     A                      A                      A
 Frequencies --  1060.4261              1083.3934              1086.3347
 Red. masses --     1.9589                 3.5942                 1.5549
 Frc consts  --     1.2978                 2.4855                 1.0811
 IR Inten    --     1.7997                61.9094                 2.2133

                    49                     50                     51
                     A                      A                      A
 Frequencies --  1146.6449              1161.2070              1173.0470
 Red. masses --     2.9371                 1.9540                 1.5624
 Frc consts  --     2.2752                 1.5524                 1.2667
 IR Inten    --    33.5815                38.9885                33.9062

                    52                     53                     54
                     A                      A                      A
 Frequencies --  1184.0537              1188.0906              1194.4694
 Red. masses --     1.2682                 1.2326                 1.2529
 Frc consts  --     1.0475                 1.0251                 1.0532
 IR Inten    --     0.6529                 6.7153                 1.7310

                    55                     56                     57
                     A                      A                      A
 Frequencies --  1207.0259              1217.5107              1246.6029
 Red. masses --     1.4743                 1.5700                 2.2253
 Frc consts  --     1.2655                 1.3711                 2.0375
 IR Inten    --   146.9806                29.7774               109.8917

                    58                     59                     60
                     A                      A                      A
 Frequencies --  1264.6774              1275.7028              1298.7646
 Red. masses --     1.9176                 1.9168                 1.6727
 Frc consts  --     1.8070                 1.8379                 1.6624
 IR Inten    --    37.3008                21.8402               110.2778

                    61                     62                     63
                     A                      A                      A
 Frequencies --  1305.8885              1314.4398              1316.2853
 Red. masses --     1.3281                 2.5409                 1.1736
 Frc consts  --     1.3344                 2.5865                 1.1981
 IR Inten    --     1.2943               245.0503                 9.1140

                    64                     65                     66
                     A                      A                      A
 Frequencies --  1368.6842              1373.6934              1383.1351
 Red. masses --     1.7887                 1.3087                 1.9276
 Frc consts  --     1.9742                 1.4550                 2.1727
 IR Inten    --     5.9984                 0.5128                13.5012

                    67                     68                     69
                     A                      A                      A
 Frequencies --  1402.8385              1405.2083              1407.5535
 Red. masses --     1.4384                 1.7037                 1.4804
 Frc consts  --     1.6678                 1.9821                 1.7280
 IR Inten    --     8.3356                 9.9360                 1.2424

                    70                     71                     72
                     A                      A                      A
 Frequencies --  1413.4715              1434.8953              1437.9583
 Red. masses --     3.2624                 1.6567                 2.9609
 Frc consts  --     3.8402                 2.0097                 3.6072
 IR Inten    --     0.5909                26.1947               130.9048

                    73                     74                     75
                     A                      A                      A
 Frequencies --  1480.7391              1501.7060              1506.2708
 Red. masses --     3.8864                 1.3493                 1.1015
 Frc consts  --     5.0207                 1.7927                 1.4725
 IR Inten    --    34.2673                12.1549                 2.0345

                    76                     77                     78
                     A                      A                      A
 Frequencies --  1514.9487              1518.2740              1522.0126
 Red. masses --     1.0863                 1.6549                 1.0486
 Frc consts  --     1.4689                 2.2477                 1.4312
 IR Inten    --     5.4808                38.6901                 4.7824

                    79                     80                     81
                     A                      A                      A
 Frequencies --  1524.5999              1526.3694              1535.5286
 Red. masses --     1.1193                 1.2502                 1.0609
 Frc consts  --     1.5329                 1.7161                 1.4739
 IR Inten    --     9.8858                 7.3096                49.6822

                    82                     83                     84
                     A                      A                      A
 Frequencies --  1539.9048              1569.8041              1616.7958
 Red. masses --     1.1016                 3.1468                 6.8983
 Frc consts  --     1.5390                 4.5689                10.6244
 IR Inten    --     8.2637               120.8195                21.3684

                    85                     86                     87
                     A                      A                      A
 Frequencies --  1666.0350              1686.0789              2928.7021
 Red. masses --     5.6277                 6.2629                 1.0734
 Frc consts  --     9.2033                10.4901                 5.4246
 IR Inten    --    27.7018               310.3284                33.9211

                    88                     89                     90
                     A                      A                      A
 Frequencies --  2939.1483              3022.6604              3025.6126
 Red. masses --     1.0746                 1.0349                 1.0675
 Frc consts  --     5.4695                 5.5710                 5.7579
 IR Inten    --    94.1646                81.3590                29.5736

                    91                     92                     93
                     A                      A                      A
 Frequencies --  3043.1391              3044.3398              3078.0221
 Red. masses --     1.0603                 1.0618                 1.0939
 Frc consts  --     5.7850                 5.7983                 6.1062
 IR Inten    --    31.5889                22.2187                77.1755

                    94                     95                     96
                     A                      A                      A
 Frequencies --  3080.6323              3084.5593              3090.2434
 Red. masses --     1.1067                 1.1043                 1.1049
 Frc consts  --     6.1880                 6.1905                 6.2166
 IR Inten    --    46.5397                30.3395                63.5339

                    97                     98                     99
                     A                      A                      A
 Frequencies --  3102.5087              3131.2379              3152.7902
 Red. masses --     1.0888                 1.0873                 1.0994
 Frc consts  --     6.1749                 6.2812                 6.4385
 IR Inten    --    25.8107                20.1417                32.6790

                   100                    101                    102
                     A                      A                      A
 Frequencies --  3175.8892              3180.3404              3201.7248
 Red. masses --     1.0884                 1.0887                 1.0903
 Frc consts  --     6.4677                 6.4879                 6.5849
 IR Inten    --     2.1668                26.3552                 5.7231

                   103                    104                    105
                     A                      A                      A
 Frequencies --  3209.2663              3213.7532              3227.1133
 Red. masses --     1.0925                 1.0890                 1.0913
 Frc consts  --     6.6295                 6.6268                 6.6963
 IR Inten    --    21.7384                12.7385                15.0938

 - Thermochemistry -
 -------------------
 Temperature   298.150 Kelvin.  Pressure   1.00000 Atm.
 Atom     1 has atomic number  6 and mass  12.00000

 Molecular mass:   241.14666 amu.
 Principal axes and moments of inertia in atomic units:
                           1         2         3
     Eigenvalues --  1470.32496********************
           X            0.99999   0.00376  -0.00108
           Y           -0.00376   0.99998   0.00445
           Z            0.00110  -0.00445   0.99999
 This molecule is an asymmetric top.
 Rotational symmetry number  1.
 Warning -- assumption of classical behavior for rotation
           may cause significant error
 Rotational temperatures (Kelvin)      0.05891     0.00838     0.00750
 Rotational constants (GHZ):           1.22744     0.17455     0.15626
 Zero-point vibrational energy     840937.9 (Joules/Mol)
                                  200.98898 (Kcal/Mol)
 Warning -- explicit consideration of  23 degrees of freedom as
           vibrations may cause significant error
 Vibrational temperatures:     56.93    91.56    97.86   124.17   196.09
          (Kelvin)            218.61   286.72   331.82   348.06   370.80
                              382.57   447.39   474.70   490.88   555.61
                              583.99   648.64   660.65   675.17   692.91
                              710.86   797.31   831.90   903.80   929.90
                              959.53  1001.39  1073.74  1089.62  1139.74
                             1146.67  1193.25  1206.84  1212.13  1227.54
                             1265.03  1281.76  1303.41  1334.24  1350.37
                             1381.38  1394.17  1418.84  1429.00  1516.69
                             1525.71  1558.76  1562.99  1649.76  1670.72
                             1687.75  1703.59  1709.40  1718.57  1736.64
                             1751.72  1793.58  1819.59  1835.45  1868.63
                             1878.88  1891.18  1893.84  1969.23  1976.44
                             1990.02  2018.37  2021.78  2025.15  2033.67
                             2064.49  2068.90  2130.45  2160.62  2167.19
                             2179.67  2184.45  2189.83  2193.56  2196.10
                             2209.28  2215.58  2258.60  2326.21  2397.05
                             2425.89  4213.74  4228.77  4348.93  4353.18
                             4378.39  4380.12  4428.58  4432.34  4437.99
                             4446.17  4463.81  4505.15  4536.16  4569.39
                             4575.79  4606.56  4617.41  4623.87  4643.09

 Zero-point correction=                           0.320296 (Hartree/Particle)
 Thermal correction to Energy=                    0.335579
 Thermal correction to Enthalpy=                  0.336523
 Thermal correction to Gibbs Free Energy=         0.277688
 Sum of electronic and zero-point Energies=           -750.802082
 Sum of electronic and thermal Energies=              -750.786800
 Sum of electronic and thermal Enthalpies=            -750.785856
 Sum of electronic and thermal Free Energies=         -750.844690

                     E (Thermal)             CV                S
                      KCal/Mol        Cal/Mol-Kelvin    Cal/Mol-Kelvin
 Total                  210.579             61.857            123.828
 Electronic               0.000              0.000              0.000
 Translational            0.889              2.981             42.342
 Rotational               0.889              2.981             33.529
 Vibrational            208.801             55.895             47.957
 Vibration     1          0.594              1.981              5.281
 Vibration     2          0.597              1.972              4.341
 Vibration     3          0.598              1.969              4.210
 Vibration     4          0.601              1.959              3.742
 Vibration     5          0.614              1.917              2.855
 Vibration     6          0.619              1.901              2.648
 Vibration     7          0.637              1.841              2.140
 Vibration     8          0.652              1.794              1.874
 Vibration     9          0.658              1.776              1.789
 Vibration    10          0.667              1.750              1.677
 Vibration    11          0.672              1.736              1.623
 Vibration    12          0.700              1.653              1.357
 Vibration    13          0.713              1.616              1.260
 Vibration    14          0.721              1.593              1.207
 Vibration    15          0.755              1.500              1.015
 Vibration    16          0.771              1.457              0.941
 Vibration    17          0.810              1.359              0.793
 Vibration    18          0.817              1.341              0.769
 Vibration    19          0.826              1.318              0.740
 Vibration    20          0.838              1.291              0.706
 Vibration    21          0.850              1.263              0.673
 Vibration    22          0.910              1.131              0.536
 Vibration    23          0.935              1.078              0.489

 Optimization completed.
    -- Stationary point found.
 Normal termination of Gaussian 09 at Thu Sep 30 23:19:13 2021.
 Gaussian 09:  AM64L-G09RevA.02 11-Jun-2009

 ----------------------------------------------------------------------
 #p TD(NStates=10, Root=1) b3lyp/6-31G* volume pop=NPA density=current
 Geom=AllCheck Guess=Read
 ----------------------------------------------------------------------

 COc1ccc2c(c1)cc(cc2)N1CCCCC1_conf_0
 -----------------------------------
 Redundant internal coordinates taken from checkpoint file:
 C16H19NO_b045_conf_0.chk
 Charge =  0 Multiplicity = 1

                         Standard orientation:
 ---------------------------------------------------------------------
 Center     Atomic      Atomic             Coordinates (Angstroms)
 Number     Number       Type             X           Y           Z
 ---------------------------------------------------------------------
      1          6           0        5.941732   -1.175892    0.176585
      2          8           0        4.574515   -1.548257    0.196932
      3          6           0        3.625468   -0.569175    0.078073
      4          6           0        3.930494    0.809284   -0.057684
      5          6           0        2.903968    1.724957   -0.170669
      6          6           0        1.548506    1.324322   -0.154032
      7          6           0        1.243226   -0.068884   -0.021342
      8          6           0        2.307517   -0.992782    0.094508
      9          6           0       -0.118554   -0.481798    0.009041
     10          6           0       -1.157721    0.427587   -0.108284
     11          6           0       -0.834182    1.815417   -0.257042
     12          6           0        0.467833    2.241361   -0.272120
     13          7           0       -2.517650    0.047969   -0.144523
     14          6           0       -2.819224   -1.374916   -0.291348
     15          6           0       -4.272338   -1.584402   -0.735174
     16          6           0       -5.256483   -0.900911    0.221277
     17          6           0       -4.879676    0.575608    0.392824
     18          6           0       -3.414072    0.715784    0.812438
     19          1           0        6.505294   -2.105217    0.281422
     20          1           0        6.195071   -0.506294    1.009538
     21          1           0        6.218896   -0.692425   -0.769891
     22          1           0        4.959013    1.150814   -0.073621
     23          1           0        3.137611    2.782271   -0.275094
     24          1           0        2.102756   -2.054508    0.198444
     25          1           0       -0.320955   -1.538741    0.143723
     26          1           0       -1.636856    2.531881   -0.400373
     27          1           0        0.690006    3.299084   -0.396755
     28          1           0       -2.639456   -1.925725    0.653144
     29          1           0       -2.143106   -1.792092   -1.043291
     30          1           0       -4.474234   -2.661024   -0.798482
     31          1           0       -4.393262   -1.170719   -1.744892
     32          1           0       -5.220284   -1.400446    1.200801
     33          1           0       -6.285193   -1.000054   -0.146122
     34          1           0       -5.517579    1.056679    1.144974
     35          1           0       -5.030193    1.108930   -0.555083
     36          1           0       -3.278349    0.284147    1.823305
     37          1           0       -3.140703    1.770350    0.882147
 ---------------------------------------------------------------------

 SCF Done:  E(RB3LYP) =  -751.122378510     A.U. after    1 cycles

 Excitation energies and oscillator strengths:

 Excited State   1:      Singlet-A      3.9213 eV  316.18 nm  f=0.0713  <S**2>=0.000
      64 -> 66         0.24259
      64 -> 67        -0.13592
      65 -> 66         0.61607
      65 -> 67         0.19930
 This state for optimization and/or second-order correction.
 Total Energy, E(TD-HF/TD-KS) =  -750.978274150
 Copying the excited state density for this state as the 1-particle RhoCI density.

 Excited State   2:      Singlet-A      4.1471 eV  298.96 nm  f=0.0234  <S**2>=0.000
      64 -> 66         0.54812
      65 -> 66        -0.31130
      65 -> 67         0.30262

 Excited State   3:      Singlet-A      5.0046 eV  247.74 nm  f=0.7478  <S**2>=0.000
      62 -> 66         0.10604
      63 -> 67         0.12149
      64 -> 66        -0.31503
      64 -> 67         0.19735
      65 -> 67         0.56467

 Excited State   4:      Singlet-A      5.1136 eV  242.46 nm  f=0.1475  <S**2>=0.000
      63 -> 66         0.41348
      64 -> 66         0.12319
      64 -> 67         0.52987

 Excited State   5:      Singlet-A      5.5825 eV  222.09 nm  f=0.0438  <S**2>=0.000
      62 -> 66        -0.31276
      63 -> 66        -0.11210
      65 -> 68         0.60257

 Excited State   6:      Singlet-A      5.7947 eV  213.96 nm  f=0.2695  <S**2>=0.000
      62 -> 66         0.18081
      62 -> 67         0.10110
      63 -> 66         0.43073
      64 -> 67        -0.20400
      64 -> 68         0.40107
      65 -> 68         0.21532

 Excited State   7:      Singlet-A      5.9360 eV  208.87 nm  f=0.4076  <S**2>=0.000
      62 -> 66         0.10452
      62 -> 67         0.13838
      63 -> 66        -0.31827
      64 -> 67         0.30516
      64 -> 68         0.47934

 Excited State   8:      Singlet-A      6.2313 eV  198.97 nm  f=0.0852  <S**2>=0.000
      61 -> 66        -0.15639
      62 -> 66         0.51166
      62 -> 67        -0.14608
      63 -> 67        -0.23695
      64 -> 67         0.10131
      64 -> 68        -0.18633
      65 -> 68         0.24723

 Excited State   9:      Singlet-A      6.5062 eV  190.56 nm  f=0.1710  <S**2>=0.000
      61 -> 66         0.16303
      62 -> 66         0.24823
      63 -> 67         0.58955
      65 -> 67        -0.10054

 Excited State  10:      Singlet-A      6.7423 eV  183.89 nm  f=0.0042  <S**2>=0.000
      64 -> 69         0.13657
      65 -> 69         0.66959

 The electronic state is 1-A.
 Alpha  occ. eigenvalues --  -19.17044 -14.33636 -10.23929 -10.23697 -10.21618
 Alpha  occ. eigenvalues --  -10.21108 -10.20869 -10.18817 -10.18524 -10.18231
 Alpha  occ. eigenvalues --  -10.18219 -10.18191 -10.18179 -10.18163 -10.18048
 Alpha  occ. eigenvalues --  -10.17800 -10.17076 -10.17071  -1.05583  -0.93603
 Alpha  occ. eigenvalues --   -0.85764  -0.81302  -0.78719  -0.76232  -0.75450
 Alpha  occ. eigenvalues --   -0.73421  -0.71591  -0.68150  -0.65053  -0.62964
 Alpha  occ. eigenvalues --   -0.60637  -0.58638  -0.58523  -0.55337  -0.52652
 Alpha  occ. eigenvalues --   -0.51509  -0.50471  -0.47485  -0.46264  -0.46220
 Alpha  occ. eigenvalues --   -0.45593  -0.44126  -0.43966  -0.43182  -0.42489
 Alpha  occ. eigenvalues --   -0.41543  -0.40913  -0.40328  -0.39761  -0.38473
 Alpha  occ. eigenvalues --   -0.38066  -0.37623  -0.35038  -0.34651  -0.34464
 Alpha  occ. eigenvalues --   -0.33452  -0.33068  -0.32005  -0.31720  -0.31205
 Alpha  occ. eigenvalues --   -0.29745  -0.26692  -0.24759  -0.19754  -0.18586
 Alpha virt. eigenvalues --   -0.02359   0.01023   0.04586   0.08890   0.09821
 Alpha virt. eigenvalues --    0.10811   0.11107   0.11865   0.12060   0.12593
 Alpha virt. eigenvalues --    0.13506   0.14827   0.15138   0.15774   0.15911

 Mulliken atomic charges:
              1
     1  C   -0.203822
     2  O   -0.516617
     3  C    0.359725
     4  C   -0.184976
     5  C   -0.252559
     6  C    0.169936
     7  C    0.142122
     8  C   -0.286389
     9  C   -0.268707
    10  C    0.321347
    11  C   -0.200800
    12  C   -0.229817
    13  N   -0.427255
    14  C   -0.144467
    15  C   -0.272654
    16  C   -0.268944
    17  C   -0.271775
    18  C   -0.150841
    19  H    0.158329
    20  H    0.142368
    21  H    0.142572
    22  H    0.118780
    23  H    0.107528
    24  H    0.109644
    25  H    0.125541
    26  H    0.103037
    27  H    0.110597
    28  H    0.157210
    29  H    0.178384
    30  H    0.149472
    31  H    0.154018
    32  H    0.136373
    33  H    0.148411
    34  H    0.149362
    35  H    0.152895
    36  H    0.159700
    37  H    0.182275
 Sum of Mulliken atomic charges =  -0.00000

 Dipole moment (field-independent basis, Debye):
    X=             -5.3523    Y=             -1.1310    Z=              0.5782  Tot=              5.5010
 Quadrupole moment (field-independent basis, Debye-Ang):
   XX=            -81.0321   YY=           -104.7589   ZZ=           -110.0006
   XY=              3.8893   XZ=             -1.8264   YZ=              0.7935

 Summary of Natural Population Analysis:

                                       Natural Population
                Natural  -----------------------------------------------
    Atom  No    Charge         Core      Valence    Rydberg      Total
 -----------------------------------------------------------------------
      C    1   -0.31254      1.99943     4.29917    0.01393     6.31254
      O    2   -0.52647      1.99975     6.51503    0.01169     8.52647
      C    3    0.27734      1.99880     3.70085    0.02301     5.72266
      C    4   -0.27755      1.99904     4.26532    0.01320     6.27755
      C    5   -0.27987      1.99908     4.26457    0.01622     6.27987
      C    6   -0.03871      1.99902     4.02494    0.01475     6.03871
      C    7   -0.04734      1.99904     4.03282    0.01548     6.04734
      C    8   -0.29778      1.99900     4.28313    0.01564     6.29778
      C    9   -0.22664      1.99900     4.21474    0.01290     6.22664
      C   10    0.16115      1.99900     3.82042    0.01944     5.83885
      C   11   -0.34016      1.99906     4.32536    0.01575     6.34016
      C   12   -0.24689      1.99906     4.23202    0.01581     6.24689
      N   13   -0.30809      1.99932     5.29538    0.01339     7.30809
      C   14   -0.27866      1.99932     4.26384    0.01550     6.27866
      C   15   -0.46760      1.99932     4.45610    0.01218     6.46760
      C   16   -0.46518      1.99933     4.45408    0.01178     6.46518
      C   17   -0.47258      1.99932     4.46103    0.01223     6.47258
      C   18   -0.26548      1.99928     4.25098    0.01521     6.26548
      H   19    0.22177      0.00000     0.77765    0.00058     0.77823
      H   20    0.19630      0.00000     0.80110    0.00260     0.80370
      H   21    0.19650      0.00000     0.80090    0.00260     0.80350
      H   22    0.22996      0.00000     0.76910    0.00094     0.77004
      H   23    0.22419      0.00000     0.77476    0.00105     0.77581
      H   24    0.23028      0.00000     0.76816    0.00155     0.76972
      H   25    0.22610      0.00000     0.77258    0.00132     0.77390
      H   26    0.22149      0.00000     0.77763    0.00088     0.77851
      H   27    0.22734      0.00000     0.77156    0.00110     0.77266
      H   28    0.23143      0.00000     0.76575    0.00282     0.76857
      H   29    0.25824      0.00000     0.74011    0.00164     0.74176
      H   30    0.25006      0.00000     0.74881    0.00113     0.74994
      H   31    0.23973      0.00000     0.75827    0.00200     0.76027
      H   32    0.22855      0.00000     0.76950    0.00194     0.77145
      H   33    0.24801      0.00000     0.75092    0.00107     0.75199
      H   34    0.24973      0.00000     0.74923    0.00104     0.75027
      H   35    0.23897      0.00000     0.75908    0.00195     0.76103
      H   36    0.23418      0.00000     0.76292    0.00290     0.76582
      H   37    0.26021      0.00000     0.73844    0.00136     0.73979
 =======================================================================
   * Total *   -0.00000     35.98516    93.71625    0.29858   130.00000

 Normal termination of Gaussian 09 at Fri Oct  1 04:47:58 2021.
