 Gaussian 09, Revision A.02,

 -----------------------------------
 #p opt b3lyp/6-31G* scf=(xqc,tight)
 -----------------------------------

 -------------------------------------
 O=C(c1ccccn1)Oc1ccc2c(c1)cccc2_conf_0
 -------------------------------------
 Symbolic Z-matrix:
 Charge =  0 Multiplicity = 1

 SCF Done:  E(RB3LYP) =  -821.534192489     A.U. after   15 cycles
 SCF Done:  E(RB3LYP) =  -821.540072260     A.U. after   13 cycles
 SCF Done:  E(RB3LYP) =  -821.540106899     A.U. after   13 cycles
 SCF Done:  E(RB3LYP) =  -821.540775413     A.U. after   13 cycles
 SCF Done:  E(RB3LYP) =  -821.541177250     A.U. after   12 cycles
 SCF Done:  E(RB3LYP) =  -821.541342345     A.U. after   12 cycles
 SCF Done:  E(RB3LYP) =  -821.541408339     A.U. after   12 cycles
 SCF Done:  E(RB3LYP) =  -821.541469144     A.U. after   12 cycles
 SCF Done:  E(RB3LYP) =  -821.541503678     A.U. after   12 cycles
 SCF Done:  E(RB3LYP) =  -821.541527624     A.U. after   11 cycles
 SCF Done:  E(RB3LYP) =  -821.541535280     A.U. after   10 cycles
 SCF Done:  E(RB3LYP) =  -821.541536050     A.U. after    9 cycles
 SCF Done:  E(RB3LYP) =  -821.541536097     A.U. after    8 cycles
 Optimization completed.
    -- Stationary point found.
 Normal termination of Gaussian 09 at Wed Sep 29 03:23:11 2021.

 ----------------------------------------------------------------------
 #p freq b3lyp/6-31G* volume NMR pop=NPA density=current Geom=AllCheck
 Guess=Read
 ----------------------------------------------------------------------

 O=C(c1ccccn1)Oc1ccc2c(c1)cccc2_conf_0
 -------------------------------------
 Redundant internal coordinates taken from checkpoint file:
 C16H11NO2_c6f3_conf_0.chk
 Charge =  0 Multiplicity = 1

 SCF Done:  E(RB3LYP) =  -821.541536097     A.U. after    1 cycles

  1  O    Isotropic =   -42.3710   Anisotropy =   558.2891

  2  C    Isotropic =    33.6469   Anisotropy =    73.6691

  3  C    Isotropic =    46.7143   Anisotropy =   141.5395

  4  C    Isotropic =    68.2868   Anisotropy =   176.0315

  5  C    Isotropic =    61.0662   Anisotropy =   182.7373

  6  C    Isotropic =    70.2536   Anisotropy =   165.5698

  7  C    Isotropic =    46.5371   Anisotropy =   155.0090

  8  N    Isotropic =   -65.7960   Anisotropy =   547.7264

  9  O    Isotropic =   108.5490   Anisotropy =   158.9815

 10  C    Isotropic =    45.8612   Anisotropy =   106.2046

 11  C    Isotropic =    73.6770   Anisotropy =   149.9146

 12  C    Isotropic =    67.0869   Anisotropy =   142.4862

 13  C    Isotropic =    65.7248   Anisotropy =   196.7464

 14  C    Isotropic =    62.9397   Anisotropy =   195.2815

 15  C    Isotropic =    77.0425   Anisotropy =   121.7290

 16  C    Isotropic =    67.9228   Anisotropy =   145.8452

 17  C    Isotropic =    69.9887   Anisotropy =   162.5494

 18  C    Isotropic =    70.8849   Anisotropy =   161.0832

 19  C    Isotropic =    67.6621   Anisotropy =   146.6164

 20  H    Isotropic =    23.9481   Anisotropy =     8.5068

 21  H    Isotropic =    24.5750   Anisotropy =     5.0119

 22  H    Isotropic =    24.9943   Anisotropy =     4.7882

 23  H    Isotropic =    23.3755   Anisotropy =     5.8995

 24  H    Isotropic =    24.5381   Anisotropy =     8.6009

 25  H    Isotropic =    24.5263   Anisotropy =     6.8134

 26  H    Isotropic =    24.8027   Anisotropy =     8.6472

 27  H    Isotropic =    24.5325   Anisotropy =     7.5291

 28  H    Isotropic =    24.7765   Anisotropy =     5.1944

 29  H    Isotropic =    24.8088   Anisotropy =     4.9922

 30  H    Isotropic =    24.5266   Anisotropy =     6.9145

  Exact polarizability: 301.792   4.708 164.883   5.533   2.013  80.750
 Approx polarizability: 424.378  10.006 307.228  10.459   0.166 138.106

                     1                      2                      3
                     A                      A                      A
 Frequencies --    18.9992                30.5553                46.4681
 Red. masses --     5.0235                 5.8927                 5.8252
 Frc consts  --     0.0011                 0.0032                 0.0074
 IR Inten    --     0.1258                 2.0128                 1.6864

                     4                      5                      6
                     A                      A                      A
 Frequencies --    72.8535               125.1097               162.3957
 Red. masses --     6.9185                 5.9334                 5.5752
 Frc consts  --     0.0216                 0.0547                 0.0866
 IR Inten    --     1.4439                 0.4760                 0.7689

                     7                      8                      9
                     A                      A                      A
 Frequencies --   176.6020               196.1160               257.0016
 Red. masses --     5.4306                 4.4043                 5.9746
 Frc consts  --     0.0998                 0.0998                 0.2325
 IR Inten    --     1.8090                 2.0365                 0.3366

                    10                     11                     12
                     A                      A                      A
 Frequencies --   307.4300               330.7765               408.2694
 Red. masses --     5.9922                 6.1858                 3.7680
 Frc consts  --     0.3337                 0.3988                 0.3700
 IR Inten    --     4.1153                10.3097                 0.3958

                    13                     14                     15
                     A                      A                      A
 Frequencies --   413.0046               421.4820               451.3435
 Red. masses --     3.3870                 4.7773                 4.5071
 Frc consts  --     0.3404                 0.5000                 0.5410
 IR Inten    --     2.5844                 0.4450                 1.1540

                    16                     17                     18
                     A                      A                      A
 Frequencies --   480.4789               490.3685               525.1456
 Red. masses --     5.4232                 2.7387                 7.2811
 Frc consts  --     0.7377                 0.3880                 1.1831
 IR Inten    --     2.1264                 9.8294                 3.5147

                    19                     20                     21
                     A                      A                      A
 Frequencies --   529.7868               541.0319               630.0602
 Red. masses --     7.1359                 3.9049                 7.3671
 Frc consts  --     1.1801                 0.6734                 1.7231
 IR Inten    --     2.4874                 2.9110                 8.5553

                    22                     23                     24
                     A                      A                      A
 Frequencies --   636.5961               648.9689               700.6482
 Red. masses --     5.8156                 3.6783                 6.6510
 Frc consts  --     1.3886                 0.9127                 1.9237
 IR Inten    --     3.0994                 1.2109                11.4763

                    25                     26                     27
                     A                      A                      A
 Frequencies --   705.9815               754.3604               760.0152
 Red. masses --     4.4204                 2.4635                 1.7756
 Frc consts  --     1.2981                 0.8260                 0.6043
 IR Inten    --    30.4927                 9.0494                17.4675

                    28                     29                     30
                     A                      A                      A
 Frequencies --   767.2421               770.9245               783.1945
 Red. masses --     1.8844                 3.2462                 4.6477
 Frc consts  --     0.6536                 1.1367                 1.6797
 IR Inten    --    19.4786                 2.5698                 1.4429

                    31                     32                     33
                     A                      A                      A
 Frequencies --   821.5116               828.6589               856.7736
 Red. masses --     1.5177                 2.5857                 2.4159
 Frc consts  --     0.6035                 1.0461                 1.0449
 IR Inten    --    30.2837                 5.3560                 7.4954

                    34                     35                     36
                     A                      A                      A
 Frequencies --   883.0629               905.2085               921.4393
 Red. masses --     2.0931                 1.9127                 4.0653
 Frc consts  --     0.9616                 0.9234                 2.0336
 IR Inten    --    12.0633                16.8238                 5.5739

                    37                     38                     39
                     A                      A                      A
 Frequencies --   931.3528               951.2189               961.7224
 Red. masses --     1.3020                 1.3188                 1.3471
 Frc consts  --     0.6654                 0.7031                 0.7341
 IR Inten    --     0.6270                 2.0562                 3.1302

                    40                     41                     42
                     A                      A                      A
 Frequencies --   980.6828               987.4616               989.7010
 Red. masses --     4.0425                 1.4252                 1.2726
 Frc consts  --     2.2906                 0.8188                 0.7344
 IR Inten    --    12.0067                 0.2273                 0.0063

                    43                     44                     45
                     A                      A                      A
 Frequencies --  1013.4103              1018.8351              1050.8103
 Red. masses --     7.2343                 1.3013                 2.3119
 Frc consts  --     4.3774                 0.7958                 1.5041
 IR Inten    --    13.4819                 0.0319                 2.4231

                    46                     47                     48
                     A                      A                      A
 Frequencies --  1070.8245              1120.5746              1122.4914
 Red. masses --     2.5258                 2.3909                 1.6756
 Frc consts  --     1.7064                 1.7689                 1.2439
 IR Inten    --    25.9681                69.3905                74.2598

                    49                     50                     51
                     A                      A                      A
 Frequencies --  1160.4923              1182.5062              1184.0313
 Red. masses --     1.8147                 1.1300                 1.2604
 Frc consts  --     1.4399                 0.9309                 1.0411
 IR Inten    --    60.3663                 5.4753                 3.1695

                    52                     53                     54
                     A                      A                      A
 Frequencies --  1187.9250              1196.2573              1252.4598
 Red. masses --     1.2123                 1.6994                 3.2160
 Frc consts  --     1.0080                 1.4329                 2.9724
 IR Inten    --    20.3140               224.8951               105.6699

                    55                     56                     57
                     A                      A                      A
 Frequencies --  1278.9474              1293.1594              1299.1468
 Red. masses --     1.7283                 2.1133                 3.7083
 Frc consts  --     1.6656                 2.0822                 3.6876
 IR Inten    --   146.7610               128.6168               394.1287

                    58                     59                     60
                     A                      A                      A
 Frequencies --  1333.2615              1341.0576              1399.4140
 Red. masses --     1.6746                 5.0100                 1.9400
 Frc consts  --     1.7538                 5.3086                 2.2385
 IR Inten    --    86.0884               139.9880                 5.3103

                    61                     62                     63
                     A                      A                      A
 Frequencies --  1411.8258              1422.7180              1479.0502
 Red. masses --     4.8437                 5.5392                 2.1803
 Frc consts  --     5.6884                 6.6059                 2.8102
 IR Inten    --     5.4761                 1.2930                14.8624

                    64                     65                     66
                     A                      A                      A
 Frequencies --  1488.9500              1514.7796              1517.3351
 Red. masses --     2.4962                 2.2408                 2.2978
 Frc consts  --     3.2605                 3.0293                 3.1169
 IR Inten    --     2.1471                 5.3180                25.1415

                    67                     68                     69
                     A                      A                      A
 Frequencies --  1563.7774              1629.8098              1631.9940
 Red. masses --     3.4018                 6.9869                 5.9850
 Frc consts  --     4.9013                10.9348                 9.3919
 IR Inten    --    35.4361                 4.6521                13.5603

                    70                     71                     72
                     A                      A                      A
 Frequencies --  1640.1665              1662.5033              1689.8681
 Red. masses --     5.3738                 5.3889                 6.3799
 Frc consts  --     8.5174                 8.7755                10.7342
 IR Inten    --     8.6591                25.3812                22.7307

                    73                     74                     75
                     A                      A                      A
 Frequencies --  1805.9340              3177.0825              3178.5502
 Red. masses --    12.9802                 1.0892                 1.0857
 Frc consts  --    24.9422                 6.4777                 6.4626
 IR Inten    --   183.7676                20.3620                 3.0857

                    76                     77                     78
                     A                      A                      A
 Frequencies --  3183.2186              3189.4364              3196.6950
 Red. masses --     1.0882                 1.0896                 1.0933
 Frc consts  --     6.4968                 6.5303                 6.5828
 IR Inten    --     0.5278                 9.8002                34.2863

                    79                     80                     81
                     A                      A                      A
 Frequencies --  3200.2203              3209.1807              3210.7012
 Red. masses --     1.0891                 1.0958                 1.0927
 Frc consts  --     6.5718                 6.6490                 6.6367
 IR Inten    --    10.7390                33.4418                 6.3553

                    82                     83                     84
                     A                      A                      A
 Frequencies --  3216.7864              3240.5943              3246.6694
 Red. masses --     1.0961                 1.0935                 1.0932
 Frc consts  --     6.6828                 6.7660                 6.7894
 IR Inten    --    21.7684                 1.6090                 3.3001

 - Thermochemistry -
 -------------------
 Temperature   298.150 Kelvin.  Pressure   1.00000 Atm.
 Atom     1 has atomic number  8 and mass  15.99491

 Molecular mass:   249.07898 amu.
 Principal axes and moments of inertia in atomic units:
                           1         2         3
     Eigenvalues --  1256.14959********************
           X            1.00000  -0.00027   0.00003
           Y            0.00027   0.99986   0.01665
           Z           -0.00004  -0.01665   0.99986
 This molecule is an asymmetric top.
 Rotational symmetry number  1.
 Warning -- assumption of classical behavior for rotation
           may cause significant error
 Rotational temperatures (Kelvin)      0.06895     0.00731     0.00683
 Rotational constants (GHZ):           1.43672     0.15224     0.14241
 Zero-point vibrational energy     606359.9 (Joules/Mol)
                                  144.92349 (Kcal/Mol)
 Warning -- explicit consideration of  20 degrees of freedom as
           vibrations may cause significant error
 Vibrational temperatures:     27.34    43.96    66.86   104.82   180.00
          (Kelvin)            233.65   254.09   282.17   369.77   442.32
                              475.91   587.41   594.22   606.42   649.38
                              691.30   705.53   755.57   762.24   778.42
                              906.52   915.92   933.72  1008.08  1015.75
                             1085.36  1093.49  1103.89  1109.19  1126.84
                             1181.97  1192.25  1232.70  1270.53  1302.39
                             1325.74  1340.01  1368.59  1383.70  1410.98
                             1420.74  1423.96  1458.07  1465.87  1511.88
                             1540.68  1612.25  1615.01  1669.69  1701.36
                             1703.55  1709.16  1721.15  1802.01  1840.12
                             1860.57  1869.18  1918.26  1929.48  2013.44
                             2031.30  2046.97  2128.02  2142.26  2179.43
                             2183.10  2249.92  2344.93  2348.07  2359.83
                             2391.97  2431.34  2598.33  4571.11  4573.22
                             4579.94  4588.88  4599.33  4604.40  4617.29
                             4619.48  4628.23  4662.49  4671.23

 Zero-point correction=                           0.230950 (Hartree/Particle)
 Thermal correction to Energy=                    0.245255
 Thermal correction to Enthalpy=                  0.246200
 Thermal correction to Gibbs Free Energy=         0.187200
 Sum of electronic and zero-point Energies=           -821.310586
 Sum of electronic and thermal Energies=              -821.296281
 Sum of electronic and thermal Enthalpies=            -821.295337
 Sum of electronic and thermal Free Energies=         -821.354336

                     E (Thermal)             CV                S
                      KCal/Mol        Cal/Mol-Kelvin    Cal/Mol-Kelvin
 Total                  153.900             56.771            124.175
 Electronic               0.000              0.000              0.000
 Translational            0.889              2.981             42.438
 Rotational               0.889              2.981             33.600
 Vibrational            152.123             50.809             48.136
 Vibration     1          0.593              1.986              6.736
 Vibration     2          0.594              1.984              5.793
 Vibration     3          0.595              1.979              4.962
 Vibration     4          0.599              1.967              4.075
 Vibration     5          0.610              1.928              3.020
 Vibration     6          0.623              1.889              2.522
 Vibration     7          0.628              1.871              2.364
 Vibration     8          0.636              1.845              2.169
 Vibration     9          0.667              1.751              1.682
 Vibration    10          0.697              1.660              1.376
 Vibration    11          0.713              1.614              1.256
 Vibration    12          0.773              1.452              0.933
 Vibration    13          0.777              1.442              0.916
 Vibration    14          0.784              1.424              0.887
 Vibration    15          0.810              1.358              0.792
 Vibration    16          0.837              1.293              0.709
 Vibration    17          0.846              1.271              0.683
 Vibration    18          0.880              1.194              0.598
 Vibration    19          0.885              1.184              0.588
 Vibration    20          0.896              1.159              0.563

 Optimization completed.
    -- Stationary point found.
 Normal termination of Gaussian 09 at Wed Sep 29 04:33:16 2021.
 Gaussian 09:  AM64L-G09RevA.02 11-Jun-2009

 ----------------------------------------------------------------------
 #p TD(NStates=10, Root=1) b3lyp/6-31G* volume pop=NPA density=current
 Geom=AllCheck Guess=Read
 ----------------------------------------------------------------------

 O=C(c1ccccn1)Oc1ccc2c(c1)cccc2_conf_0
 -------------------------------------
 Redundant internal coordinates taken from checkpoint file:
 C16H11NO2_c6f3_conf_0.chk
 Charge =  0 Multiplicity = 1

                         Standard orientation:
 ---------------------------------------------------------------------
 Center     Atomic      Atomic             Coordinates (Angstroms)
 Number     Number       Type             X           Y           Z
 ---------------------------------------------------------------------
      1          8           0       -1.455685   -1.644846    0.860449
      2          6           0       -1.707764   -0.614664    0.273672
      3          6           0       -3.104875   -0.089368    0.097057
      4          6           0       -4.148889   -0.830722    0.661994
      5          6           0       -5.451170   -0.361206    0.509006
      6          6           0       -5.655687    0.821839   -0.198920
      7          6           0       -4.542339    1.485252   -0.723890
      8          7           0       -3.288129    1.049812   -0.585289
      9          8           0       -0.784240    0.200667   -0.292303
     10          6           0        0.572265   -0.127127   -0.238289
     11          6           0        1.046434   -1.396288   -0.648007
     12          6           0        2.401298   -1.630796   -0.658582
     13          6           0        3.331535   -0.628215   -0.272474
     14          6           0        2.833353    0.653688    0.131109
     15          6           0        1.431723    0.876172    0.137052
     16          6           0        3.760347    1.661024    0.512310
     17          6           0        5.114512    1.413550    0.497203
     18          6           0        5.607279    0.146486    0.098784
     19          6           0        4.734356   -0.849688   -0.277048
     20          1           0       -3.922214   -1.744022    1.200028
     21          1           0       -6.288456   -0.908052    0.933512
     22          1           0       -6.652662    1.226975   -0.344637
     23          1           0       -4.666413    2.411656   -1.282123
     24          1           0        0.343703   -2.166646   -0.939713
     25          1           0        2.777562   -2.602193   -0.969745
     26          1           0        1.030144    1.841113    0.431466
     27          1           0        3.380748    2.633056    0.817993
     28          1           0        5.812589    2.192432    0.792007
     29          1           0        6.678472   -0.035564    0.091185
     30          1           0        5.108574   -1.823636   -0.583984
 ---------------------------------------------------------------------

 SCF Done:  E(RB3LYP) =  -821.541536097     A.U. after    1 cycles

 Excitation energies and oscillator strengths:

 Excited State   1:      Singlet-A      3.5835 eV  345.98 nm  f=0.0447  <S**2>=0.000
      65 -> 66         0.69588
 This state for optimization and/or second-order correction.
 Total Energy, E(TD-HF/TD-KS) =  -821.409843412
 Copying the excited state density for this state as the 1-particle RhoCI density.

 Excited State   2:      Singlet-A      4.1569 eV  298.26 nm  f=0.0099  <S**2>=0.000
      63 -> 66         0.54135
      64 -> 66         0.42024

 Excited State   3:      Singlet-A      4.2269 eV  293.32 nm  f=0.0444  <S**2>=0.000
      63 -> 66        -0.42929
      64 -> 66         0.50846
      65 -> 67        -0.15646
      65 -> 69         0.10644

 Excited State   4:      Singlet-A      4.4134 eV  280.93 nm  f=0.0540  <S**2>=0.000
      64 -> 66         0.21590
      64 -> 67        -0.15820
      64 -> 69        -0.14813
      65 -> 67         0.61148
      65 -> 69        -0.13950

 Excited State   5:      Singlet-A      4.5140 eV  274.67 nm  f=0.0035  <S**2>=0.000
      64 -> 67        -0.31746
      65 -> 67        -0.21025
      65 -> 68         0.50687
      65 -> 69        -0.27504

 Excited State   6:      Singlet-A      4.5953 eV  269.81 nm  f=0.0129  <S**2>=0.000
      64 -> 67         0.35366
      65 -> 67         0.14664
      65 -> 68         0.47156
      65 -> 69         0.33878

 Excited State   7:      Singlet-A      4.8397 eV  256.18 nm  f=0.0004  <S**2>=0.000
      60 -> 66         0.60734
      61 -> 66        -0.28144
      63 -> 68         0.12921

 Excited State   8:      Singlet-A      5.0323 eV  246.38 nm  f=0.0019  <S**2>=0.000
      60 -> 66        -0.12238
      60 -> 68         0.12640
      61 -> 68        -0.10867
      63 -> 67        -0.14555
      63 -> 68         0.61417
      64 -> 68         0.19446

 Excited State   9:      Singlet-A      5.1848 eV  239.13 nm  f=0.1131  <S**2>=0.000
      59 -> 66         0.20942
      59 -> 68        -0.16480
      62 -> 66         0.47252
      62 -> 68         0.16639
      63 -> 68         0.11519
      64 -> 68        -0.38899

 Excited State  10:      Singlet-A      5.2433 eV  236.46 nm  f=0.1633  <S**2>=0.000
      59 -> 66         0.11937
      59 -> 68        -0.10692
      62 -> 66         0.33499
      62 -> 68         0.12597
      63 -> 68        -0.15446
      64 -> 67        -0.14792
      64 -> 68         0.53236

 The electronic state is 1-A.
 Alpha  occ. eigenvalues --  -19.20192 -19.14273 -14.34389 -10.32454 -10.25166
 Alpha  occ. eigenvalues --  -10.24349 -10.23545 -10.22138 -10.21539 -10.21239
 Alpha  occ. eigenvalues --  -10.19966 -10.19690 -10.19363 -10.19292 -10.19053
 Alpha  occ. eigenvalues --  -10.19048 -10.19019 -10.18956 -10.18937  -1.11176
 Alpha  occ. eigenvalues --   -1.02628  -0.95579  -0.87241  -0.82256  -0.81596
 Alpha  occ. eigenvalues --   -0.78603  -0.77292  -0.74319  -0.72459  -0.67761
 Alpha  occ. eigenvalues --   -0.64433  -0.62866  -0.62633  -0.59700  -0.57889
 Alpha  occ. eigenvalues --   -0.54638  -0.51480  -0.50930  -0.50393  -0.48713
 Alpha  occ. eigenvalues --   -0.48302  -0.46276  -0.45476  -0.45287  -0.44596
 Alpha  occ. eigenvalues --   -0.43007  -0.42217  -0.41686  -0.41333  -0.40477
 Alpha  occ. eigenvalues --   -0.39403  -0.38628  -0.38256  -0.36905  -0.34809
 Alpha  occ. eigenvalues --   -0.33838  -0.32761  -0.30812  -0.29924  -0.29033
 Alpha  occ. eigenvalues --   -0.28167  -0.27385  -0.26123  -0.23711  -0.21267
 Alpha virt. eigenvalues --   -0.06234  -0.03615  -0.02965  -0.00546   0.03352
 Alpha virt. eigenvalues --    0.04808   0.08878   0.09548   0.10406   0.11604
 Alpha virt. eigenvalues --    0.12265   0.13648   0.15346   0.16101   0.16801

 Mulliken atomic charges:
              1
     1  O   -0.550698
     2  C    0.496985
     3  C    0.161144
     4  C   -0.158762
     5  C   -0.128313
     6  C   -0.188426
     7  C    0.029444
     8  N   -0.532149
     9  O   -0.511451
    10  C    0.416148
    11  C   -0.108823
    12  C   -0.176684
    13  C    0.143340
    14  C    0.122307
    15  C   -0.200102
    16  C   -0.149840
    17  C   -0.124276
    18  C   -0.116006
    19  C   -0.160649
    20  H    0.117469
    21  H    0.095246
    22  H    0.083167
    23  H    0.090735
    24  H    0.221789
    25  H    0.184489
    26  H    0.211642
    27  H    0.190632
    28  H    0.179187
    29  H    0.179889
    30  H    0.182564
 Sum of Mulliken atomic charges =  -0.00000

 Dipole moment (field-independent basis, Debye):
    X=             19.3634    Y=              0.4562    Z=             -0.7229  Tot=             19.3823
 Quadrupole moment (field-independent basis, Debye-Ang):
   XX=            -87.2655   YY=            -99.0335   ZZ=           -110.6000
   XY=              3.2808   XZ=              0.0893   YZ=              8.8235

 Summary of Natural Population Analysis:

                                       Natural Population
                Natural  -----------------------------------------------
    Atom  No    Charge         Core      Valence    Rydberg      Total
 -----------------------------------------------------------------------
      O    1   -0.66922      1.99979     6.65050    0.01894     8.66922
      C    2    0.69439      1.99934     3.26149    0.04479     5.30561
      C    3   -0.02188      1.99897     3.99766    0.02524     6.02188
      C    4   -0.25183      1.99904     4.23909    0.01371     6.25183
      C    5   -0.24640      1.99910     4.23250    0.01480     6.24640
      C    6   -0.37155      1.99909     4.35754    0.01492     6.37155
      C    7    0.02050      1.99921     3.95724    0.02305     5.97950
      N    8   -0.51191      1.99939     5.49103    0.02148     7.51191
      O    9   -0.53032      1.99968     6.51903    0.01160     8.53032
      C   10    0.41086      1.99876     3.56788    0.02250     5.58914
      C   11   -0.22255      1.99901     4.20867    0.01486     6.22255
      C   12   -0.09850      1.99907     4.08643    0.01300     6.09850
      C   13   -0.09411      1.99902     4.08143    0.01366     6.09411
      C   14   -0.07863      1.99903     4.06562    0.01398     6.07863
      C   15   -0.12921      1.99895     4.11642    0.01383     6.12921
      C   16   -0.10488      1.99906     4.09272    0.01311     6.10488
      C   17   -0.21339      1.99912     4.20017    0.01410     6.21339
      C   18   -0.19253      1.99911     4.17934    0.01408     6.19253
      C   19   -0.11507      1.99906     4.10293    0.01307     6.11507
      H   20    0.23631      0.00000     0.76241    0.00128     0.76369
      H   21    0.21877      0.00000     0.78053    0.00071     0.78123
      H   22    0.21513      0.00000     0.78408    0.00079     0.78487
      H   23    0.19667      0.00000     0.80231    0.00102     0.80333
      H   24    0.29513      0.00000     0.70396    0.00092     0.70487
      H   25    0.25478      0.00000     0.74441    0.00081     0.74522
      H   26    0.27591      0.00000     0.72312    0.00097     0.72409
      H   27    0.25866      0.00000     0.74065    0.00069     0.74134
      H   28    0.26053      0.00000     0.73896    0.00051     0.73947
      H   29    0.25932      0.00000     0.74016    0.00052     0.74068
      H   30    0.25500      0.00000     0.74420    0.00080     0.74500
 =======================================================================
   * Total *   -0.00000     37.98382    91.67247    0.34372   130.00000

 Normal termination of Gaussian 09 at Wed Sep 29 10:09:55 2021.
