 Gaussian 09, Revision A.02,

 -----------------------------------
 #p opt b3lyp/6-31G* scf=(xqc,tight)
 -----------------------------------

 -----------------------------------------
 COc1ccc2c(c1)cc(cc2)OC(=O)C(C)(C)C_conf_0
 -----------------------------------------
 Symbolic Z-matrix:
 Charge =  0 Multiplicity = 1

 SCF Done:  E(RB3LYP) =  -846.225821248     A.U. after   15 cycles
 SCF Done:  E(RB3LYP) =  -846.232581922     A.U. after   12 cycles
 SCF Done:  E(RB3LYP) =  -846.232107402     A.U. after   13 cycles
 SCF Done:  E(RB3LYP) =  -846.233483155     A.U. after   12 cycles
 SCF Done:  E(RB3LYP) =  -846.234039369     A.U. after   12 cycles
 SCF Done:  E(RB3LYP) =  -846.234511339     A.U. after   12 cycles
 SCF Done:  E(RB3LYP) =  -846.234798493     A.U. after   11 cycles
 SCF Done:  E(RB3LYP) =  -846.234918002     A.U. after   10 cycles
 SCF Done:  E(RB3LYP) =  -846.234937868     A.U. after   10 cycles
 SCF Done:  E(RB3LYP) =  -846.234941826     A.U. after    9 cycles
 SCF Done:  E(RB3LYP) =  -846.235004605     A.U. after   11 cycles
 SCF Done:  E(RB3LYP) =  -846.235005323     A.U. after   10 cycles
 SCF Done:  E(RB3LYP) =  -846.235005149     A.U. after   10 cycles
 SCF Done:  E(RB3LYP) =  -846.235005043     A.U. after    8 cycles
 SCF Done:  E(RB3LYP) =  -846.235004775     A.U. after    9 cycles
 SCF Done:  E(RB3LYP) =  -846.235004651     A.U. after    7 cycles
 SCF Done:  E(RB3LYP) =  -846.235004519     A.U. after    7 cycles
 SCF Done:  E(RB3LYP) =  -846.235004476     A.U. after    7 cycles
 Optimization completed.
    -- Stationary point found.
 Normal termination of Gaussian 09 at Wed Sep 29 15:42:48 2021.

 ----------------------------------------------------------------------
 #p freq b3lyp/6-31G* volume NMR pop=NPA density=current Geom=AllCheck
 Guess=Read
 ----------------------------------------------------------------------

 COc1ccc2c(c1)cc(cc2)OC(=O)C(C)(C)C_conf_0
 -----------------------------------------
 Redundant internal coordinates taken from checkpoint file:
 C16H18O3_4be8_conf_0.chk
 Charge =  0 Multiplicity = 1

 SCF Done:  E(RB3LYP) =  -846.235004476     A.U. after    1 cycles

  1  C    Isotropic =   137.0994   Anisotropy =    65.6057

  2  O    Isotropic =   233.8242   Anisotropy =    82.8666

  3  C    Isotropic =    39.6615   Anisotropy =   123.7615

  4  C    Isotropic =    77.1085   Anisotropy =   134.0451

  5  C    Isotropic =    66.8394   Anisotropy =   142.8220

  6  C    Isotropic =    70.6392   Anisotropy =   187.4367

  7  C    Isotropic =    60.6384   Anisotropy =   190.8684

  8  C    Isotropic =    88.8434   Anisotropy =   118.8057

  9  C    Isotropic =    79.3709   Anisotropy =   127.3137

 10  C    Isotropic =    44.0832   Anisotropy =   104.7129

 11  C    Isotropic =    79.7404   Anisotropy =   129.8743

 12  C    Isotropic =    67.3078   Anisotropy =   143.5278

 13  O    Isotropic =   112.9380   Anisotropy =   190.6469

 14  C    Isotropic =    21.4855   Anisotropy =    70.6718

 15  O    Isotropic =   -75.6122   Anisotropy =   564.0365

 16  C    Isotropic =   147.8811   Anisotropy =    25.6091

 17  C    Isotropic =   162.2359   Anisotropy =    37.2249

 18  C    Isotropic =   162.9746   Anisotropy =    30.9953

 19  C    Isotropic =   162.2399   Anisotropy =    37.2546

 20  H    Isotropic =    28.2195   Anisotropy =     8.2075

 21  H    Isotropic =    28.4907   Anisotropy =     7.7552

 22  H    Isotropic =    28.4945   Anisotropy =     7.7552

 23  H    Isotropic =    25.2777   Anisotropy =     6.0450

 24  H    Isotropic =    24.7398   Anisotropy =     6.6020

 25  H    Isotropic =    25.5805   Anisotropy =    10.3749

 26  H    Isotropic =    23.3537   Anisotropy =    12.9771

 27  H    Isotropic =    25.3815   Anisotropy =     7.2486

 28  H    Isotropic =    24.7322   Anisotropy =     6.7265

 29  H    Isotropic =    30.8418   Anisotropy =     7.5280

 30  H    Isotropic =    30.3992   Anisotropy =     7.1026

 31  H    Isotropic =    31.1071   Anisotropy =     8.0291

 32  H    Isotropic =    30.6198   Anisotropy =     7.9242

 33  H    Isotropic =    31.4716   Anisotropy =     7.8610

 34  H    Isotropic =    30.6071   Anisotropy =     7.9509

 35  H    Isotropic =    30.4087   Anisotropy =     6.9728

 36  H    Isotropic =    30.8340   Anisotropy =     7.5595

 37  H    Isotropic =    31.1045   Anisotropy =     8.0382

  Exact polarizability: 275.388 -11.563 187.962  -0.199  -0.204  92.219
 Approx polarizability: 392.827 -25.860 313.084  -0.713   0.009 136.274

                     1                      2                      3
                     A                      A                      A
 Frequencies --     7.1638                38.1399                42.5446
 Red. masses --     3.6692                 4.1929                 5.7140
 Frc consts  --     0.0001                 0.0036                 0.0061
 IR Inten    --     0.9832                 0.3199                 0.5394

                     4                      5                      6
                     A                      A                      A
 Frequencies --    78.7794                82.4450               120.0485
 Red. masses --     4.4494                 3.2746                 4.9667
 Frc consts  --     0.0163                 0.0131                 0.0422
 IR Inten    --     1.1357                 2.5587                 0.4094

                     7                      8                      9
                     A                      A                      A
 Frequencies --   155.8907               159.0478               208.8505
 Red. masses --     3.8197                 4.0899                 1.1671
 Frc consts  --     0.0547                 0.0610                 0.0300
 IR Inten    --     0.6587                 1.9168                 0.0794

                    10                     11                     12
                     A                      A                      A
 Frequencies --   215.0791               235.0637               243.8043
 Red. masses --     4.2639                 1.3019                 1.4008
 Frc consts  --     0.1162                 0.0424                 0.0491
 IR Inten    --     0.4905                 0.1830                 0.1188

                    13                     14                     15
                     A                      A                      A
 Frequencies --   264.2140               278.5966               281.9807
 Red. masses --     1.4254                 1.8119                 1.3724
 Frc consts  --     0.0586                 0.0829                 0.0643
 IR Inten    --     0.6351                 0.5435                 0.2291

                    16                     17                     18
                     A                      A                      A
 Frequencies --   321.4131               324.7879               329.3487
 Red. masses --     3.7173                 3.2723                 4.4221
 Frc consts  --     0.2263                 0.2034                 0.2826
 IR Inten    --     1.5888                 4.1551                 1.3754

                    19                     20                     21
                     A                      A                      A
 Frequencies --   362.9972               379.3237               400.1312
 Red. masses --     3.6326                 2.3946                 4.6047
 Frc consts  --     0.2820                 0.2030                 0.4344
 IR Inten    --     9.8215                 0.8014                 3.9491

                    22                     23                     24
                     A                      A                      A
 Frequencies --   418.3580               441.8363               455.3972
 Red. masses --     3.7281                 3.5701                 4.8519
 Frc consts  --     0.3844                 0.4106                 0.5928
 IR Inten    --     2.5518                 0.1063                 3.4765

                    25                     26                     27
                     A                      A                      A
 Frequencies --   483.9753               524.5456               537.6371
 Red. masses --     2.6008                 3.9276                 6.0985
 Frc consts  --     0.3589                 0.6367                 1.0386
 IR Inten    --     7.8309                 3.9729                 0.1391

                    28                     29                     30
                     A                      A                      A
 Frequencies --   597.6401               618.9643               647.9822
 Red. masses --     3.5935                 4.8933                 7.0072
 Frc consts  --     0.7562                 1.1045                 1.7335
 IR Inten    --     1.0136                 0.4882                12.2741

                    31                     32                     33
                     A                      A                      A
 Frequencies --   653.3704               699.6934               754.5223
 Red. masses --     2.7324                 6.3836                 5.4748
 Frc consts  --     0.6873                 1.8413                 1.8364
 IR Inten    --     0.0075                 6.2265                 4.5114

                    34                     35                     36
                     A                      A                      A
 Frequencies --   758.4003               790.6444               801.0928
 Red. masses --     3.7742                 4.8622                 5.0059
 Frc consts  --     1.2790                 1.7908                 1.8928
 IR Inten    --     0.0040                 0.9861                13.7256

                    37                     38                     39
                     A                      A                      A
 Frequencies --   807.7115               820.2724               851.9233
 Red. masses --     1.4131                 4.8722                 1.4820
 Frc consts  --     0.5432                 1.9315                 0.6337
 IR Inten    --     0.2629                11.7132                29.5211

                    40                     41                     42
                     A                      A                      A
 Frequencies --   852.8905               903.9676               920.3719
 Red. masses --     1.6295                 3.8745                 1.4749
 Frc consts  --     0.6984                 1.8654                 0.7361
 IR Inten    --    26.4604                10.1575                33.6619

                    43                     44                     45
                     A                      A                      A
 Frequencies --   949.4182               953.2982               957.5116
 Red. masses --     1.7618                 1.2531                 1.6608
 Frc consts  --     0.9356                 0.6710                 0.8971
 IR Inten    --     1.3973                 0.0340                 3.8626

                    46                     47                     48
                     A                      A                      A
 Frequencies --   965.5407               974.1838               980.1013
 Red. masses --     1.2903                 4.1858                 1.1991
 Frc consts  --     0.7087                 2.3405                 0.6787
 IR Inten    --     0.1692                12.3846                 0.0230

                    49                     50                     51
                     A                      A                      A
 Frequencies --   994.9925              1059.4604              1061.7307
 Red. masses --     3.0786                 1.4242                 1.4415
 Frc consts  --     1.7957                 0.9419                 0.9574
 IR Inten    --     0.3471                 1.0900                28.1030

                    52                     53                     54
                     A                      A                      A
 Frequencies --  1073.5094              1141.1654              1163.2198
 Red. masses --     4.5180                 1.9424                 1.8630
 Frc consts  --     3.0677                 1.4903                 1.4852
 IR Inten    --    41.4835                95.2309               106.6382

                    55                     56                     57
                     A                      A                      A
 Frequencies --  1174.2114              1186.0505              1186.5257
 Red. masses --     1.2577                 1.2738                 1.9962
 Frc consts  --     1.0217                 1.0557                 1.6558
 IR Inten    --   170.7149                 2.0375               426.3599

                    58                     59                     60
                     A                      A                      A
 Frequencies --  1214.9429              1241.6842              1242.1628
 Red. masses --     1.5360                 2.6732                 2.7554
 Frc consts  --     1.3358                 2.4283                 2.5049
 IR Inten    --    91.3715                 8.4282               111.4317

                    61                     62                     63
                     A                      A                      A
 Frequencies --  1260.0703              1265.1868              1294.7302
 Red. masses --     2.4301                 2.8061                 2.1491
 Frc consts  --     2.2734                 2.6465                 2.1226
 IR Inten    --    79.2083                56.7896               137.2000

                    64                     65                     66
                     A                      A                      A
 Frequencies --  1299.0969              1310.0911              1375.5746
 Red. masses --     2.0323                 3.1202                 1.8935
 Frc consts  --     2.0208                 3.1553                 2.1110
 IR Inten    --    55.5282                86.8550                11.2723

                    67                     68                     69
                     A                      A                      A
 Frequencies --  1422.5810              1423.0925              1430.2342
 Red. masses --     1.2082                 6.8364                 1.2320
 Frc consts  --     1.4406                 8.1573                 1.4848
 IR Inten    --     3.5910                14.9760                 4.0888

                    70                     71                     72
                     A                      A                      A
 Frequencies --  1437.4076              1459.1159              1471.2697
 Red. masses --     4.1883                 1.2251                 3.0617
 Frc consts  --     5.0986                 1.5368                 3.9048
 IR Inten    --   168.5340                23.5301                20.8711

                    73                     74                     75
                     A                      A                      A
 Frequencies --  1498.0676              1507.7552              1515.9683
 Red. masses --     1.5568                 1.0486                 1.0449
 Frc consts  --     2.0585                 1.4045                 1.4149
 IR Inten    --    24.5034                 0.0371                 0.1558

                    76                     77                     78
                     A                      A                      A
 Frequencies --  1518.9662              1519.8042              1521.0924
 Red. masses --     1.0480                 1.9564                 1.0458
 Frc consts  --     1.4246                 2.6624                 1.4256
 IR Inten    --     5.8408                35.7560                 0.1116

                    79                     80                     81
                     A                      A                      A
 Frequencies --  1529.5740              1533.1824              1535.2546
 Red. masses --     1.0488                 1.0564                 1.0824
 Frc consts  --     1.4458                 1.4631                 1.5031
 IR Inten    --     5.6507                21.0184                28.0414

                    82                     83                     84
                     A                      A                      A
 Frequencies --  1550.6143              1567.4135              1632.0171
 Red. masses --     1.0652                 3.4028                 7.7936
 Frc consts  --     1.5090                 4.9255                12.2303
 IR Inten    --    31.5722                66.7850                 0.0518

                    85                     86                     87
                     A                      A                      A
 Frequencies --  1663.5176              1682.4079              1814.7845
 Red. masses --     5.8508                 6.1246                12.4431
 Frc consts  --     9.5394                10.2138                24.1450
 IR Inten    --    45.8216               190.5306               160.1813

                    88                     89                     90
                     A                      A                      A
 Frequencies --  3027.6089              3050.7785              3052.6559
 Red. masses --     1.0345                 1.0355                 1.0361
 Frc consts  --     5.5869                 5.6785                 5.6886
 IR Inten    --    47.2776                28.2062                12.5075

                    91                     92                     93
                     A                      A                      A
 Frequencies --  3061.4872              3087.1078              3114.4419
 Red. masses --     1.0365                 1.1067                 1.1031
 Frc consts  --     5.7237                 6.2142                 6.3041
 IR Inten    --    30.4917                40.8109                12.0504

                    94                     95                     96
                     A                      A                      A
 Frequencies --  3115.8915              3129.0632              3138.4782
 Red. masses --     1.1024                 1.1018                 1.1028
 Frc consts  --     6.3059                 6.3561                 6.3999
 IR Inten    --    25.4976                42.5028                14.0134

                    97                     98                     99
                     A                      A                      A
 Frequencies --  3140.0305              3143.6721              3159.0875
 Red. masses --     1.1018                 1.1009                 1.1001
 Frc consts  --     6.4007                 6.4101                 6.4684
 IR Inten    --    11.1906                45.3406                30.3609

                   100                    101                    102
                     A                      A                      A
 Frequencies --  3183.2090              3187.1162              3217.4823
 Red. masses --     1.0888                 1.0886                 1.0937
 Frc consts  --     6.5002                 6.5152                 6.6707
 IR Inten    --     1.9637                22.8629                10.7091

                   103                    104                    105
                     A                      A                      A
 Frequencies --  3219.7316              3220.4327              3280.8298
 Red. masses --     1.0936                 1.0895                 1.0909
 Frc consts  --     6.6798                 6.6571                 6.9186
 IR Inten    --    10.4360                 7.0896                 2.5572

 - Thermochemistry -
 -------------------
 Temperature   298.150 Kelvin.  Pressure   1.00000 Atm.
 Atom     1 has atomic number  6 and mass  12.00000

 Molecular mass:   258.12559 amu.
 Principal axes and moments of inertia in atomic units:
                           1         2         3
     Eigenvalues --  2107.51366********************
           X            0.99999  -0.00492  -0.00010
           Y            0.00492   0.99999  -0.00080
           Z            0.00011   0.00080   1.00000
 This molecule is an asymmetric top.
 Rotational symmetry number  1.
 Warning -- assumption of classical behavior for rotation
           may cause significant error
 Rotational temperatures (Kelvin)      0.04110     0.00789     0.00684
 Rotational constants (GHZ):           0.85634     0.16444     0.14245
 Zero-point vibrational energy     807231.3 (Joules/Mol)
                                  192.93291 (Kcal/Mol)
 Warning -- explicit consideration of  29 degrees of freedom as
           vibrations may cause significant error
 Vibrational temperatures:     10.31    54.87    61.21   113.35   118.62
          (Kelvin)            172.72   224.29   228.83   300.49   309.45
                              338.20   350.78   380.14   400.84   405.71
                              462.44   467.30   473.86   522.27   545.76
                              575.70   601.92   635.70   655.21   696.33
                              754.70   773.54   859.87   890.55   932.30
                              940.05  1006.70  1085.59  1091.17  1137.56
                             1152.59  1162.12  1180.19  1225.73  1227.12
                             1300.61  1324.21  1366.00  1371.58  1377.64
                             1389.20  1401.63  1410.15  1431.57  1524.33
                             1527.59  1544.54  1641.88  1673.61  1689.43
                             1706.46  1707.14  1748.03  1786.50  1787.19
                             1812.96  1820.32  1862.83  1869.11  1884.93
                             1979.14  2046.77  2047.51  2057.79  2068.11
                             2099.34  2116.83  2155.38  2169.32  2181.14
                             2185.45  2186.66  2188.51  2200.71  2205.90
                             2208.89  2230.99  2255.16  2348.11  2393.43
                             2420.61  2611.07  4356.05  4389.38  4392.09
                             4404.79  4441.65  4480.98  4483.07  4502.02
                             4515.56  4517.80  4523.04  4545.22  4579.92
                             4585.54  4629.23  4632.47  4633.48  4720.38

 Zero-point correction=                           0.307458 (Hartree/Particle)
 Thermal correction to Energy=                    0.325591
 Thermal correction to Enthalpy=                  0.326535
 Thermal correction to Gibbs Free Energy=         0.259549
 Sum of electronic and zero-point Energies=           -845.927546
 Sum of electronic and thermal Energies=              -845.909413
 Sum of electronic and thermal Enthalpies=            -845.908469
 Sum of electronic and thermal Free Energies=         -845.975455

                     E (Thermal)             CV                S
                      KCal/Mol        Cal/Mol-Kelvin    Cal/Mol-Kelvin
 Total                  204.312             69.835            140.984
 Electronic               0.000              0.000              0.000
 Translational            0.889              2.981             42.545
 Rotational               0.889              2.981             34.038
 Vibrational            202.534             63.873             64.402
 Vibration     1          0.593              1.987              8.674
 Vibration     2          0.594              1.982              5.353
 Vibration     3          0.595              1.980              5.137
 Vibration     4          0.600              1.963              3.921
 Vibration     5          0.600              1.961              3.832
 Vibration     6          0.609              1.933              3.100
 Vibration     7          0.620              1.896              2.599
 Vibration     8          0.621              1.892              2.561
 Vibration     9          0.642              1.827              2.054
 Vibration    10          0.645              1.818              2.000
 Vibration    11          0.655              1.787              1.840
 Vibration    12          0.659              1.773              1.775
 Vibration    13          0.671              1.739              1.634
 Vibration    14          0.679              1.713              1.542
 Vibration    15          0.681              1.707              1.522
 Vibration    16          0.707              1.633              1.303
 Vibration    17          0.709              1.626              1.286
 Vibration    18          0.712              1.617              1.263
 Vibration    19          0.737              1.548              1.109
 Vibration    20          0.749              1.514              1.042
 Vibration    21          0.766              1.470              0.962
 Vibration    22          0.781              1.430              0.898
 Vibration    23          0.802              1.379              0.821
 Vibration    24          0.814              1.349              0.780
 Vibration    25          0.840              1.286              0.699
 Vibration    26          0.880              1.196              0.600
 Vibration    27          0.893              1.167              0.570
 Vibration    28          0.956              1.037              0.454
 Vibration    29          0.979              0.992              0.418

 Optimization completed.
    -- Stationary point found.
 Normal termination of Gaussian 09 at Wed Sep 29 17:19:16 2021.
 Gaussian 09:  AM64L-G09RevA.02 11-Jun-2009

 ----------------------------------------------------------------------
 #p TD(NStates=10, Root=1) b3lyp/6-31G* volume pop=NPA density=current
 Geom=AllCheck Guess=Read
 ----------------------------------------------------------------------

 COc1ccc2c(c1)cc(cc2)OC(=O)C(C)(C)C_conf_0
 -----------------------------------------
 Redundant internal coordinates taken from checkpoint file:
 C16H18O3_4be8_conf_0.chk
 Charge =  0 Multiplicity = 1

                         Standard orientation:
 ---------------------------------------------------------------------
 Center     Atomic      Atomic             Coordinates (Angstroms)
 Number     Number       Type             X           Y           Z
 ---------------------------------------------------------------------
      1          6           0        4.789167   -2.671413    0.012395
      2          8           0        5.058523   -1.278237    0.002053
      3          6           0        3.998088   -0.420618    0.000406
      4          6           0        4.353566    0.956751   -0.009990
      5          6           0        3.378417    1.920625   -0.012590
      6          6           0        1.999714    1.572437   -0.004983
      7          6           0        1.643451    0.187459    0.005301
      8          6           0        2.669574   -0.798048    0.007870
      9          6           0        0.271470   -0.188108    0.013087
     10          6           0       -0.698254    0.792030    0.009679
     11          6           0       -0.356723    2.167165    0.000062
     12          6           0        0.964787    2.542517   -0.007191
     13          8           0       -2.078602    0.588819    0.022226
     14          6           0       -2.709624   -0.620724   -0.019006
     15          8           0       -2.146080   -1.689891   -0.066791
     16          6           0       -4.231458   -0.423770    0.003718
     17          6           0       -4.652482    0.414376   -1.224363
     18          6           0       -4.903357   -1.805217   -0.044106
     19          6           0       -4.627266    0.314632    1.302180
     20          1           0        5.762492   -3.165370    0.011891
     21          1           0        4.224195   -2.977804   -0.877820
     22          1           0        4.231212   -2.965846    0.911048
     23          1           0        5.408558    1.211909   -0.015782
     24          1           0        3.654454    2.972462   -0.020665
     25          1           0        2.379393   -1.842690    0.015541
     26          1           0        0.000254   -1.233283    0.019080
     27          1           0       -1.156589    2.900455   -0.001239
     28          1           0        1.230172    3.596942   -0.014760
     29          1           0       -4.370081   -0.082311   -2.159864
     30          1           0       -4.190701    1.405451   -1.209222
     31          1           0       -5.741230    0.540989   -1.227280
     32          1           0       -4.626632   -2.350517   -0.951431
     33          1           0       -5.992624   -1.686680   -0.029462
     34          1           0       -4.610595   -2.419472    0.812718
     35          1           0       -4.163652    1.303428    1.357031
     36          1           0       -4.328306   -0.255256    2.189551
     37          1           0       -5.715477    0.441510    1.335950
 ---------------------------------------------------------------------

 SCF Done:  E(RB3LYP) =  -846.235004476     A.U. after    1 cycles

 Excitation energies and oscillator strengths:

 Excited State   1:      Singlet-A      4.1589 eV  298.12 nm  f=0.0240  <S**2>=0.000
      68 -> 70         0.25158
      68 -> 71        -0.18526
      69 -> 70         0.58686
      69 -> 71         0.21809
 This state for optimization and/or second-order correction.
 Total Energy, E(TD-HF/TD-KS) =  -846.082167700
 Copying the excited state density for this state as the 1-particle RhoCI density.

 Excited State   2:      Singlet-A      4.4355 eV  279.53 nm  f=0.0260  <S**2>=0.000
      68 -> 70         0.50849
      69 -> 70        -0.34108
      69 -> 71         0.32498
      69 -> 72        -0.10884

 Excited State   3:      Singlet-A      5.1636 eV  240.11 nm  f=0.5203  <S**2>=0.000
      68 -> 70        -0.28451
      68 -> 72        -0.14570
      69 -> 71         0.51009
      69 -> 72         0.34031

 Excited State   4:      Singlet-A      5.2731 eV  235.13 nm  f=0.0042  <S**2>=0.000
      67 -> 70         0.56535
      67 -> 71         0.30807
      67 -> 72         0.27551

 Excited State   5:      Singlet-A      5.3476 eV  231.85 nm  f=0.2495  <S**2>=0.000
      66 -> 70         0.13508
      68 -> 70         0.15340
      68 -> 71         0.54542
      68 -> 72         0.12769
      69 -> 70         0.12875
      69 -> 72         0.34755

 Excited State   6:      Singlet-A      5.6286 eV  220.28 nm  f=0.3308  <S**2>=0.000
      65 -> 70         0.14143
      66 -> 70         0.16553
      66 -> 71        -0.13009
      68 -> 70         0.17772
      68 -> 71        -0.34263
      69 -> 71        -0.20343
      69 -> 72         0.42290
      69 -> 73        -0.22096

 Excited State   7:      Singlet-A      5.7844 eV  214.34 nm  f=0.0084  <S**2>=0.000
      66 -> 70        -0.38556
      66 -> 71        -0.11234
      68 -> 72         0.48708
      68 -> 73        -0.18263
      69 -> 73         0.21817

 Excited State   8:      Singlet-A      6.0109 eV  206.27 nm  f=0.0023  <S**2>=0.000
      67 -> 70        -0.40910
      67 -> 71         0.49684
      67 -> 72         0.25518
      67 -> 73         0.11080

 Excited State   9:      Singlet-A      6.0859 eV  203.72 nm  f=0.4701  <S**2>=0.000
      65 -> 71         0.11800
      66 -> 70        -0.15478
      66 -> 71         0.12223
      68 -> 70         0.16321
      68 -> 72        -0.28124
      68 -> 73         0.14143
      69 -> 71        -0.16798
      69 -> 72         0.18638
      69 -> 73         0.48702

 Excited State  10:      Singlet-A      6.2938 eV  197.00 nm  f=0.1007  <S**2>=0.000
      65 -> 70         0.62545
      66 -> 70        -0.14027
      68 -> 71         0.10783
      68 -> 73         0.18943

 The electronic state is 1-A.
 Alpha  occ. eigenvalues --  -19.20470 -19.17904 -19.14262 -10.31898 -10.25359
 Alpha  occ. eigenvalues --  -10.24764 -10.24058 -10.21431 -10.19975 -10.19292
 Alpha  occ. eigenvalues --  -10.19226 -10.19183 -10.18950 -10.18696 -10.18338
 Alpha  occ. eigenvalues --  -10.18325 -10.18274 -10.18274 -10.17475  -1.10885
 Alpha  occ. eigenvalues --   -1.06474  -1.02685  -0.87066  -0.83008  -0.81426
 Alpha  occ. eigenvalues --   -0.77109  -0.75431  -0.72372  -0.70298  -0.69232
 Alpha  occ. eigenvalues --   -0.68734  -0.66524  -0.61385  -0.60175  -0.59422
 Alpha  occ. eigenvalues --   -0.55813  -0.53209  -0.51395  -0.48919  -0.48571
 Alpha  occ. eigenvalues --   -0.47564  -0.46997  -0.46812  -0.45401  -0.44919
 Alpha  occ. eigenvalues --   -0.43686  -0.43355  -0.43008  -0.42690  -0.41187
 Alpha  occ. eigenvalues --   -0.39510  -0.39436  -0.38875  -0.38476  -0.38313
 Alpha  occ. eigenvalues --   -0.36915  -0.36355  -0.36110  -0.35220  -0.34090
 Alpha  occ. eigenvalues --   -0.33752  -0.33369  -0.33276  -0.32709  -0.28659
 Alpha  occ. eigenvalues --   -0.27935  -0.26749  -0.22040  -0.20650
 Alpha virt. eigenvalues --   -0.03375  -0.00764   0.01523   0.04020   0.08231
 Alpha virt. eigenvalues --    0.09289   0.10280   0.11243   0.11887   0.12459
 Alpha virt. eigenvalues --    0.12686   0.14237   0.14696   0.15167   0.15550

 Mulliken atomic charges:
              1
     1  C   -0.232146
     2  O   -0.461135
     3  C    0.380915
     4  C   -0.192661
     5  C   -0.200465
     6  C    0.157213
     7  C    0.123864
     8  C   -0.254637
     9  C   -0.253877
    10  C    0.314390
    11  C   -0.154847
    12  C   -0.220641
    13  O   -0.528582
    14  C    0.609290
    15  O   -0.494012
    16  C    0.000962
    17  C   -0.447593
    18  C   -0.431311
    19  C   -0.447576
    20  H    0.183854
    21  H    0.173775
    22  H    0.173545
    23  H    0.133843
    24  H    0.133440
    25  H    0.150606
    26  H    0.181781
    27  H    0.148083
    28  H    0.131263
    29  H    0.147681
    30  H    0.155750
    31  H    0.140330
    32  H    0.152208
    33  H    0.130884
    34  H    0.151948
    35  H    0.156186
    36  H    0.147443
    37  H    0.140229
 Sum of Mulliken atomic charges =  -0.00000

 Dipole moment (field-independent basis, Debye):
    X=              2.5797    Y=             -0.3689    Z=              0.0875  Tot=              2.6074
 Quadrupole moment (field-independent basis, Debye-Ang):
   XX=            -97.7752   YY=           -101.2589   ZZ=           -113.9970
   XY=            -13.7075   XZ=             -0.0935   YZ=             -0.3578

 Summary of Natural Population Analysis:

                                       Natural Population
                Natural  -----------------------------------------------
    Atom  No    Charge         Core      Valence    Rydberg      Total
 -----------------------------------------------------------------------
      C    1   -0.32725      1.99942     4.31362    0.01421     6.32725
      O    2   -0.45017      1.99975     6.43867    0.01175     8.45017
      C    3    0.36775      1.99880     3.61098    0.02247     5.63225
      C    4   -0.33532      1.99905     4.31915    0.01711     6.33532
      C    5   -0.19755      1.99907     4.18371    0.01476     6.19755
      C    6   -0.05574      1.99902     4.04196    0.01476     6.05574
      C    7   -0.04253      1.99905     4.02762    0.01586     6.04253
      C    8   -0.25381      1.99899     4.24206    0.01276     6.25381
      C    9   -0.28160      1.99899     4.26762    0.01500     6.28160
      C   10    0.25631      1.99875     3.72256    0.02239     5.74369
      C   11   -0.18944      1.99905     4.17545    0.01494     6.18944
      C   12   -0.24134      1.99908     4.22710    0.01517     6.24134
      O   13   -0.53641      1.99969     6.52565    0.01107     8.53641
      C   14    0.80340      1.99929     3.14861    0.04870     5.19660
      O   15   -0.61923      1.99977     6.59955    0.01991     8.61923
      C   16   -0.14672      1.99906     4.13504    0.01262     6.14672
      C   17   -0.66795      1.99938     4.65889    0.00968     6.66795
      C   18   -0.66824      1.99939     4.65784    0.01101     6.66824
      C   19   -0.66800      1.99938     4.65894    0.00968     6.66800
      H   20    0.23576      0.00000     0.76377    0.00048     0.76424
      H   21    0.21666      0.00000     0.78175    0.00160     0.78334
      H   22    0.21654      0.00000     0.78186    0.00160     0.78346
      H   23    0.24545      0.00000     0.75352    0.00103     0.75455
      H   24    0.23627      0.00000     0.76269    0.00104     0.76373
      H   25    0.24056      0.00000     0.75831    0.00113     0.75944
      H   26    0.26787      0.00000     0.73037    0.00176     0.73213
      H   27    0.24606      0.00000     0.75274    0.00121     0.75394
      H   28    0.23485      0.00000     0.76412    0.00103     0.76515
      H   29    0.23425      0.00000     0.76480    0.00095     0.76575
      H   30    0.23957      0.00000     0.75926    0.00117     0.76043
      H   31    0.22912      0.00000     0.76963    0.00125     0.77088
      H   32    0.24107      0.00000     0.75785    0.00109     0.75893
      H   33    0.22589      0.00000     0.77315    0.00096     0.77411
      H   34    0.24091      0.00000     0.75800    0.00109     0.75909
      H   35    0.23985      0.00000     0.75899    0.00116     0.76015
      H   36    0.23413      0.00000     0.76492    0.00095     0.76587
      H   37    0.22906      0.00000     0.76968    0.00126     0.77094
 =======================================================================
   * Total *    0.00000     37.98498    99.68043    0.33459   138.00000

 Normal termination of Gaussian 09 at Thu Sep 30 00:24:03 2021.
