 Gaussian 09, Revision A.02,

 -----------------------------------
 #p opt b3lyp/6-31G* scf=(xqc,tight)
 -----------------------------------

 -----------------------------------------
 COc1ccc2c(c1)ccc(c2)OC(=O)C(C)(C)C_conf_0
 -----------------------------------------
 Symbolic Z-matrix:
 Charge =  0 Multiplicity = 1

 SCF Done:  E(RB3LYP) =  -846.224395573     A.U. after   15 cycles
 SCF Done:  E(RB3LYP) =  -846.231538507     A.U. after   12 cycles
 SCF Done:  E(RB3LYP) =  -846.230467546     A.U. after   12 cycles
 SCF Done:  E(RB3LYP) =  -846.232404870     A.U. after   12 cycles
 SCF Done:  E(RB3LYP) =  -846.233524018     A.U. after   12 cycles
 SCF Done:  E(RB3LYP) =  -846.234166471     A.U. after   12 cycles
 SCF Done:  E(RB3LYP) =  -846.234362957     A.U. after   11 cycles
 SCF Done:  E(RB3LYP) =  -846.234505048     A.U. after   12 cycles
 SCF Done:  E(RB3LYP) =  -846.234557437     A.U. after   11 cycles
 SCF Done:  E(RB3LYP) =  -846.234574586     A.U. after   10 cycles
 SCF Done:  E(RB3LYP) =  -846.234586086     A.U. after   11 cycles
 SCF Done:  E(RB3LYP) =  -846.234589517     A.U. after    9 cycles
 SCF Done:  E(RB3LYP) =  -846.234590297     A.U. after    9 cycles
 SCF Done:  E(RB3LYP) =  -846.234590395     A.U. after    7 cycles
 SCF Done:  E(RB3LYP) =  -846.234590401     A.U. after    7 cycles
 SCF Done:  E(RB3LYP) =  -846.234590382     A.U. after    6 cycles
 Optimization completed.
    -- Stationary point found.
 Normal termination of Gaussian 09 at Fri Oct  1 02:47:52 2021.

 ----------------------------------------------------------------------
 #p freq b3lyp/6-31G* volume NMR pop=NPA density=current Geom=AllCheck
 Guess=Read
 ----------------------------------------------------------------------

 COc1ccc2c(c1)ccc(c2)OC(=O)C(C)(C)C_conf_0
 -----------------------------------------
 Redundant internal coordinates taken from checkpoint file:
 C16H18O3_e414_conf_0.chk
 Charge =  0 Multiplicity = 1

 SCF Done:  E(RB3LYP) =  -846.234590382     A.U. after    1 cycles

  1  C    Isotropic =   137.3542   Anisotropy =    65.5564

  2  O    Isotropic =   234.9534   Anisotropy =    81.1082

  3  C    Isotropic =    40.4135   Anisotropy =   122.7564

  4  C    Isotropic =    75.9602   Anisotropy =   135.7149

  5  C    Isotropic =    66.7585   Anisotropy =   142.6942

  6  C    Isotropic =    67.5442   Anisotropy =   186.6993

  7  C    Isotropic =    64.2169   Anisotropy =   192.2907

  8  C    Isotropic =    89.7380   Anisotropy =   119.2107

  9  C    Isotropic =    68.6922   Anisotropy =   138.5541

 10  C    Isotropic =    72.8939   Anisotropy =   148.9362

 11  C    Isotropic =    48.2348   Anisotropy =   103.4434

 12  C    Isotropic =    77.6664   Anisotropy =   120.9827

 13  O    Isotropic =   108.9676   Anisotropy =   153.9056

 14  C    Isotropic =    22.1745   Anisotropy =    78.3675

 15  O    Isotropic =   -64.2428   Anisotropy =   573.3575

 16  C    Isotropic =   149.0370   Anisotropy =    24.1698

 17  C    Isotropic =   161.9407   Anisotropy =    37.2894

 18  C    Isotropic =   162.7965   Anisotropy =    31.3308

 19  C    Isotropic =   162.1388   Anisotropy =    37.8695

 20  H    Isotropic =    28.1921   Anisotropy =     8.3121

 21  H    Isotropic =    28.5122   Anisotropy =     7.9653

 22  H    Isotropic =    28.5058   Anisotropy =     7.9782

 23  H    Isotropic =    25.2185   Anisotropy =     6.2534

 24  H    Isotropic =    24.7055   Anisotropy =     7.4459

 25  H    Isotropic =    25.6221   Anisotropy =     9.4595

 26  H    Isotropic =    24.7392   Anisotropy =     7.6588

 27  H    Isotropic =    24.8648   Anisotropy =     9.1000

 28  H    Isotropic =    25.1395   Anisotropy =     9.0819

 29  H    Isotropic =    30.8198   Anisotropy =     8.1538

 30  H    Isotropic =    30.4014   Anisotropy =     5.8655

 31  H    Isotropic =    31.0803   Anisotropy =     7.9072

 32  H    Isotropic =    30.6269   Anisotropy =     8.1893

 33  H    Isotropic =    31.4720   Anisotropy =     7.9087

 34  H    Isotropic =    30.6666   Anisotropy =     7.8346

 35  H    Isotropic =    30.2988   Anisotropy =     7.3020

 36  H    Isotropic =    30.8228   Anisotropy =     8.0155

 37  H    Isotropic =    31.0825   Anisotropy =     7.9751

  Exact polarizability: 287.175  -6.336 169.839   5.849  -4.058  97.622
 Approx polarizability: 389.369 -20.712 296.478  15.171  -4.484 150.870

                     1                      2                      3
                     A                      A                      A
 Frequencies --    19.5479                31.6039                43.2904
 Red. masses --     3.4416                 4.3263                 4.5869
 Frc consts  --     0.0008                 0.0025                 0.0051
 IR Inten    --     0.2298                 0.7675                 0.8449

                     4                      5                      6
                     A                      A                      A
 Frequencies --    57.8638                91.0482               124.4322
 Red. masses --     5.7674                 3.8085                 4.8439
 Frc consts  --     0.0114                 0.0186                 0.0442
 IR Inten    --     1.2722                 1.0682                 2.7546

                     7                      8                      9
                     A                      A                      A
 Frequencies --   163.1117               185.9871               197.7032
 Red. masses --     3.7847                 3.1252                 2.8102
 Frc consts  --     0.0593                 0.0637                 0.0647
 IR Inten    --     0.6709                 0.6434                 2.2585

                    10                     11                     12
                     A                      A                      A
 Frequencies --   212.1550               219.3046               235.4712
 Red. masses --     1.3862                 2.2002                 1.8319
 Frc consts  --     0.0368                 0.0623                 0.0598
 IR Inten    --     0.0760                 0.5294                 0.1966

                    13                     14                     15
                     A                      A                      A
 Frequencies --   257.3225               268.2389               279.3233
 Red. masses --     1.5576                 1.1236                 1.2690
 Frc consts  --     0.0608                 0.0476                 0.0583
 IR Inten    --     0.4592                 0.0777                 0.1193

                    16                     17                     18
                     A                      A                      A
 Frequencies --   299.4114               321.5732               354.2143
 Red. masses --     2.8618                 3.2162                 3.0625
 Frc consts  --     0.1512                 0.1960                 0.2264
 IR Inten    --     0.8055                 7.4211                 6.4760

                    19                     20                     21
                     A                      A                      A
 Frequencies --   374.1537               393.1412               412.0880
 Red. masses --     2.3595                 4.6273                 3.5205
 Frc consts  --     0.1946                 0.4214                 0.3522
 IR Inten    --     0.3397                 0.0712                 0.5105

                    22                     23                     24
                     A                      A                      A
 Frequencies --   421.4415               434.3954               481.9080
 Red. masses --     4.2453                 5.4531                 3.9443
 Frc consts  --     0.4443                 0.6063                 0.5397
 IR Inten    --     9.0854                 3.2944                 3.6643

                    25                     26                     27
                     A                      A                      A
 Frequencies --   490.4767               525.3895               531.7490
 Red. masses --     2.7053                 4.3783                 6.0982
 Frc consts  --     0.3834                 0.7121                 1.0159
 IR Inten    --     7.2896                 5.7925                 0.1441

                    28                     29                     30
                     A                      A                      A
 Frequencies --   573.5660               588.2016               632.5225
 Red. masses --     3.3037                 3.7113                 5.2764
 Frc consts  --     0.6404                 0.7565                 1.2438
 IR Inten    --     2.8412                 1.0384                 8.7622

                    31                     32                     33
                     A                      A                      A
 Frequencies --   668.8983               697.4213               755.5390
 Red. masses --     4.0689                 6.3247                 3.2345
 Frc consts  --     1.0726                 1.8125                 1.0878
 IR Inten    --     2.0130                 4.0522                 0.0868

                    34                     35                     36
                     A                      A                      A
 Frequencies --   759.7522               771.2460               800.5839
 Red. masses --     6.5157                 5.9637                 1.9193
 Frc consts  --     2.2159                 2.0900                 0.7248
 IR Inten    --     4.1634                 0.2540                 4.3718

                    37                     38                     39
                     A                      A                      A
 Frequencies --   820.6052               832.9720               850.8364
 Red. masses --     1.6562                 1.9480                 3.6014
 Frc consts  --     0.6571                 0.7963                 1.5361
 IR Inten    --     9.3657                 9.8759                 3.9424

                    40                     41                     42
                     A                      A                      A
 Frequencies --   866.9809               890.1678               915.1223
 Red. masses --     1.6944                 1.9555                 2.6017
 Frc consts  --     0.7504                 0.9129                 1.2837
 IR Inten    --    25.9484                12.1229                36.4799

                    43                     44                     45
                     A                      A                      A
 Frequencies --   949.4715               953.2100               956.6856
 Red. masses --     1.7648                 1.3795                 1.6289
 Frc consts  --     0.9374                 0.7385                 0.8784
 IR Inten    --     1.5242                 7.0258                 4.5984

                    46                     47                     48
                     A                      A                      A
 Frequencies --   964.9853               966.0370               980.4392
 Red. masses --     1.5066                 2.6605                 1.1985
 Frc consts  --     0.8266                 1.4628                 0.6788
 IR Inten    --     3.7416                10.4732                 0.0278

                    49                     50                     51
                     A                      A                      A
 Frequencies --   989.8101              1058.3996              1061.0868
 Red. masses --     3.3346                 1.4664                 1.4332
 Frc consts  --     1.9249                 0.9678                 0.9508
 IR Inten    --     4.5443                38.1653                13.4567

                    52                     53                     54
                     A                      A                      A
 Frequencies --  1074.7221              1139.2338              1158.1076
 Red. masses --     4.4841                 2.1948                 2.0786
 Frc consts  --     3.0515                 1.6783                 1.6426
 IR Inten    --    52.2830               151.0452               517.0818

                    55                     56                     57
                     A                      A                      A
 Frequencies --  1180.8464              1184.5502              1187.5333
 Red. masses --     1.2279                 1.2731                 1.7479
 Frc consts  --     1.0088                 1.0525                 1.4523
 IR Inten    --     0.0894                 0.7847               212.5386

                    58                     59                     60
                     A                      A                      A
 Frequencies --  1212.6197              1235.5542              1242.7607
 Red. masses --     1.5418                 1.8514                 2.6738
 Frc consts  --     1.3358                 1.6652                 2.4331
 IR Inten    --    21.7630                 7.3956                 1.8857

                    61                     62                     63
                     A                      A                      A
 Frequencies --  1260.7661              1270.2637              1296.0217
 Red. masses --     2.7199                 3.3118                 1.9439
 Frc consts  --     2.5473                 3.1485                 1.9237
 IR Inten    --   116.5984               283.1350                15.3625

                    64                     65                     66
                     A                      A                      A
 Frequencies --  1303.3580              1310.8404              1379.8138
 Red. masses --     2.4633                 3.0523                 1.9075
 Frc consts  --     2.4654                 3.0902                 2.1397
 IR Inten    --    90.5894                66.7911                 9.0023

                    67                     68                     69
                     A                      A                      A
 Frequencies --  1418.0644              1421.4903              1429.8291
 Red. masses --     6.0487                 1.2097                 1.2599
 Frc consts  --     7.1665                 1.4402                 1.5176
 IR Inten    --     0.0940                 3.9123                11.8234

                    70                     71                     72
                     A                      A                      A
 Frequencies --  1434.7258              1458.2714              1464.5810
 Red. masses --     3.7149                 1.2255                 4.2083
 Frc consts  --     4.5054                 1.5355                 5.3184
 IR Inten    --   100.5360                14.3796                15.0819

                    73                     74                     75
                     A                      A                      A
 Frequencies --  1494.6786              1508.5822              1515.5131
 Red. masses --     1.2572                 1.0485                 1.0450
 Frc consts  --     1.6549                 1.4059                 1.4142
 IR Inten    --     4.5048                 0.0626                 0.2046

                    76                     77                     78
                     A                      A                      A
 Frequencies --  1518.2536              1520.9512              1530.2220
 Red. masses --     1.0484                 1.0458                 1.0491
 Frc consts  --     1.4239                 1.4254                 1.4473
 IR Inten    --     5.7378                 0.0855                 5.5814

                    79                     80                     81
                     A                      A                      A
 Frequencies --  1532.9199              1533.4923              1536.0937
 Red. masses --     1.1299                 1.1594                 1.7861
 Frc consts  --     1.5643                 1.6064                 2.4830
 IR Inten    --     5.4241                40.9341                 9.3986

                    82                     83                     84
                     A                      A                      A
 Frequencies --  1550.9128              1561.2252              1631.1853
 Red. masses --     1.0705                 3.4866                 7.3107
 Frc consts  --     1.5171                 5.0071                11.4608
 IR Inten    --    33.1888                51.0947                17.3445

                    85                     86                     87
                     A                      A                      A
 Frequencies --  1668.0351              1689.5871              1829.2723
 Red. masses --     5.8723                 6.2648                12.6902
 Frc consts  --     9.6265                10.5370                25.0192
 IR Inten    --   155.6200                28.8724               186.8628

                    88                     89                     90
                     A                      A                      A
 Frequencies --  3025.6455              3050.1027              3051.9279
 Red. masses --     1.0346                 1.0356                 1.0361
 Frc consts  --     5.5805                 5.6762                 5.6860
 IR Inten    --    53.0687                27.8250                11.3189

                    91                     92                     93
                     A                      A                      A
 Frequencies --  3060.9749              3084.5455              3113.3274
 Red. masses --     1.0366                 1.1066                 1.1030
 Frc consts  --     5.7224                 6.2034                 6.2988
 IR Inten    --    30.6857                42.3326                13.3267

                    94                     95                     96
                     A                      A                      A
 Frequencies --  3115.2511              3128.6874              3138.6154
 Red. masses --     1.1025                 1.1017                 1.1027
 Frc consts  --     6.3039                 6.3540                 6.4003
 IR Inten    --    24.5855                42.3741                12.3556

                    97                     98                     99
                     A                      A                      A
 Frequencies --  3140.0604              3143.4862              3158.8067
 Red. masses --     1.1019                 1.1009                 1.0999
 Frc consts  --     6.4011                 6.4095                 6.4661
 IR Inten    --    11.9497                46.1688                30.1262

                   100                    101                    102
                     A                      A                      A
 Frequencies --  3186.9696              3187.1321              3205.3958
 Red. masses --     1.0891                 1.0891                 1.0912
 Frc consts  --     6.5176                 6.5180                 6.6054
 IR Inten    --    18.9723                 1.3867                 8.4566

                   103                    104                    105
                     A                      A                      A
 Frequencies --  3217.2380              3217.5428              3239.9868
 Red. masses --     1.0895                 1.0938                 1.0932
 Frc consts  --     6.6444                 6.6719                 6.7613
 IR Inten    --    12.9848                10.2161                 5.1347

 - Thermochemistry -
 -------------------
 Temperature   298.150 Kelvin.  Pressure   1.00000 Atm.
 Atom     1 has atomic number  6 and mass  12.00000

 Molecular mass:   258.12559 amu.
 Principal axes and moments of inertia in atomic units:
                           1         2         3
     Eigenvalues --  1364.73633********************
           X            0.99996   0.00883   0.00162
           Y           -0.00880   0.99981  -0.01740
           Z           -0.00178   0.01738   0.99985
 This molecule is an asymmetric top.
 Rotational symmetry number  1.
 Warning -- assumption of classical behavior for rotation
           may cause significant error
 Rotational temperatures (Kelvin)      0.06347     0.00677     0.00640
 Rotational constants (GHZ):           1.32241     0.14103     0.13343
 Zero-point vibrational energy     806770.3 (Joules/Mol)
                                  192.82273 (Kcal/Mol)
 Warning -- explicit consideration of  29 degrees of freedom as
           vibrations may cause significant error
 Vibrational temperatures:     28.13    45.47    62.29    83.25   131.00
          (Kelvin)            179.03   234.68   267.59   284.45   305.24
                              315.53   338.79   370.23   385.94   401.88
                              430.79   462.67   509.63   538.32   565.64
                              592.90   606.36   625.00   693.36   705.69
                              755.92   765.07   825.23   846.29   910.06
                              962.39  1003.43  1087.05  1093.11  1109.65
                             1151.86  1180.67  1198.46  1224.16  1247.39
                             1280.75  1316.66  1366.08  1371.45  1376.46
                             1388.40  1389.91  1410.63  1424.11  1522.80
                             1526.67  1546.28  1639.10  1666.26  1698.97
                             1704.30  1708.59  1744.69  1777.68  1788.05
                             1813.96  1827.62  1864.68  1875.24  1886.00
                             1985.24  2040.28  2045.20  2057.20  2064.25
                             2098.12  2107.20  2150.51  2170.51  2180.48
                             2184.43  2188.31  2201.65  2205.53  2206.35
                             2210.09  2231.41  2246.25  2346.91  2399.93
                             2430.94  2631.91  4353.22  4388.41  4391.04
                             4404.05  4437.97  4479.38  4482.15  4501.48
                             4515.76  4517.84  4522.77  4544.81  4585.33
                             4585.57  4611.84  4628.88  4629.32  4661.61

 Zero-point correction=                           0.307283 (Hartree/Particle)
 Thermal correction to Energy=                    0.325424
 Thermal correction to Enthalpy=                  0.326368
 Thermal correction to Gibbs Free Energy=         0.260121
 Sum of electronic and zero-point Energies=           -845.927308
 Sum of electronic and thermal Energies=              -845.909166
 Sum of electronic and thermal Enthalpies=            -845.908222
 Sum of electronic and thermal Free Energies=         -845.974470

                     E (Thermal)             CV                S
                      KCal/Mol        Cal/Mol-Kelvin    Cal/Mol-Kelvin
 Total                  204.207             69.888            139.430
 Electronic               0.000              0.000              0.000
 Translational            0.889              2.981             42.545
 Rotational               0.889              2.981             33.823
 Vibrational            202.429             63.927             63.062
 Vibration     1          0.593              1.986              6.680
 Vibration     2          0.594              1.983              5.726
 Vibration     3          0.595              1.980              5.103
 Vibration     4          0.596              1.974              4.529
 Vibration     5          0.602              1.956              3.637
 Vibration     6          0.610              1.929              3.030
 Vibration     7          0.623              1.888              2.513
 Vibration     8          0.632              1.859              2.267
 Vibration     9          0.637              1.843              2.154
 Vibration    10          0.643              1.822              2.025
 Vibration    11          0.647              1.812              1.965
 Vibration    12          0.655              1.787              1.837
 Vibration    13          0.667              1.750              1.680
 Vibration    14          0.673              1.732              1.608
 Vibration    15          0.680              1.712              1.538
 Vibration    16          0.692              1.675              1.420
 Vibration    17          0.707              1.632              1.302
 Vibration    18          0.730              1.567              1.147
 Vibration    19          0.745              1.525              1.063
 Vibration    20          0.760              1.485              0.988
 Vibration    21          0.776              1.444              0.919
 Vibration    22          0.784              1.424              0.887
 Vibration    23          0.795              1.395              0.844
 Vibration    24          0.838              1.290              0.705
 Vibration    25          0.846              1.271              0.682
 Vibration    26          0.880              1.194              0.598
 Vibration    27          0.887              1.180              0.583
 Vibration    28          0.930              1.088              0.497
 Vibration    29          0.945              1.057              0.470

 Optimization completed.
    -- Stationary point found.
 Normal termination of Gaussian 09 at Fri Oct  1 03:47:53 2021.
 Gaussian 09:  AM64L-G09RevA.02 11-Jun-2009

 ----------------------------------------------------------------------
 #p TD(NStates=10, Root=1) b3lyp/6-31G* volume pop=NPA density=current
 Geom=AllCheck Guess=Read
 ----------------------------------------------------------------------

 COc1ccc2c(c1)ccc(c2)OC(=O)C(C)(C)C_conf_0
 -----------------------------------------
 Redundant internal coordinates taken from checkpoint file:
 C16H18O3_e414_conf_0.chk
 Charge =  0 Multiplicity = 1

                         Standard orientation:
 ---------------------------------------------------------------------
 Center     Atomic      Atomic             Coordinates (Angstroms)
 Number     Number       Type             X           Y           Z
 ---------------------------------------------------------------------
      1          6           0       -6.222606   -1.068846   -0.085987
      2          8           0       -5.641677    0.223087   -0.159999
      3          6           0       -4.283251    0.320381   -0.078558
      4          6           0       -3.781075    1.648515   -0.168563
      5          6           0       -2.432863    1.886969   -0.101406
      6          6           0       -1.504659    0.819846    0.058275
      7          6           0       -2.012268   -0.514929    0.149967
      8          6           0       -3.414799   -0.741277    0.078053
      9          6           0       -1.086104   -1.579536    0.315166
     10          6           0        0.269217   -1.349216    0.384587
     11          6           0        0.751961   -0.024927    0.283763
     12          6           0       -0.105743    1.037236    0.127051
     13          8           0        2.111190    0.267511    0.434107
     14          6           0        3.042553   -0.365081   -0.350737
     15          8           0        2.758610   -1.183293   -1.191950
     16          6           0        4.455651    0.115631   -0.003760
     17          6           0        4.744292   -0.199989    1.481277
     18          6           0        5.458021   -0.619590   -0.907157
     19          6           0        4.544056    1.640192   -0.240068
     20          1           0       -7.300271   -0.919339   -0.173342
     21          1           0       -5.999005   -1.555949    0.872513
     22          1           0       -5.876463   -1.712626   -0.905482
     23          1           0       -4.496149    2.455908   -0.291552
     24          1           0       -2.056906    2.904712   -0.171845
     25          1           0       -3.776707   -1.761194    0.148537
     26          1           0       -1.463306   -2.596611    0.388465
     27          1           0        0.967202   -2.168554    0.507110
     28          1           0        0.293776    2.045096    0.061285
     29          1           0        4.678160   -1.276419    1.678223
     30          1           0        4.041787    0.314232    2.142952
     31          1           0        5.759715    0.124896    1.735816
     32          1           0        5.402930   -1.702678   -0.761701
     33          1           0        6.476951   -0.289763   -0.675052
     34          1           0        5.260934   -0.418417   -1.964387
     35          1           0        3.842195    2.184259    0.397930
     36          1           0        4.327593    1.892919   -1.284526
     37          1           0        5.558292    1.988827   -0.013638
 ---------------------------------------------------------------------

 SCF Done:  E(RB3LYP) =  -846.234590381     A.U. after    1 cycles

 Excitation energies and oscillator strengths:

 Excited State   1:      Singlet-A      4.1203 eV  300.91 nm  f=0.0469  <S**2>=0.000
      68 -> 70         0.15015
      68 -> 71         0.17184
      69 -> 70         0.63704
      69 -> 71        -0.16893
 This state for optimization and/or second-order correction.
 Total Energy, E(TD-HF/TD-KS) =  -846.083173968
 Copying the excited state density for this state as the 1-particle RhoCI density.

 Excited State   2:      Singlet-A      4.5370 eV  273.28 nm  f=0.0162  <S**2>=0.000
      68 -> 70         0.46764
      69 -> 70        -0.24157
      69 -> 71        -0.46115

 Excited State   3:      Singlet-A      5.1468 eV  240.90 nm  f=0.3012  <S**2>=0.000
      67 -> 72         0.10126
      68 -> 70        -0.31094
      69 -> 71        -0.38724
      69 -> 72         0.47822

 Excited State   4:      Singlet-A      5.4691 eV  226.70 nm  f=0.1230  <S**2>=0.000
      66 -> 72         0.12991
      67 -> 70         0.30351
      67 -> 71         0.33000
      67 -> 72        -0.26434
      68 -> 70        -0.12098
      68 -> 71        -0.32665
      68 -> 72         0.15894
      69 -> 71        -0.16380

 Excited State   5:      Singlet-A      5.5947 eV  221.61 nm  f=0.0241  <S**2>=0.000
      66 -> 70         0.20803
      67 -> 70         0.45053
      68 -> 71         0.41689
      68 -> 72        -0.10871
      69 -> 73         0.20068

 Excited State   6:      Singlet-A      5.7087 eV  217.18 nm  f=0.1672  <S**2>=0.000
      66 -> 70         0.27088
      66 -> 71         0.13042
      67 -> 71        -0.20685
      67 -> 72         0.18794
      68 -> 70        -0.15842
      68 -> 71        -0.17322
      69 -> 71        -0.10856
      69 -> 72        -0.30008
      69 -> 73         0.39077

 Excited State   7:      Singlet-A      5.8113 eV  213.35 nm  f=0.3850  <S**2>=0.000
      66 -> 70         0.27502
      67 -> 70        -0.29319
      67 -> 71         0.24279
      67 -> 72        -0.13978
      68 -> 70         0.18873
      69 -> 71         0.14423
      69 -> 72         0.28078
      69 -> 73         0.30830

 Excited State   8:      Singlet-A      5.8907 eV  210.48 nm  f=0.5610  <S**2>=0.000
      66 -> 70        -0.22990
      66 -> 71         0.15296
      67 -> 70         0.28519
      67 -> 71        -0.12757
      67 -> 72         0.20715
      68 -> 70         0.25685
      68 -> 71        -0.23545
      69 -> 71         0.17534
      69 -> 72         0.26074
      69 -> 73         0.17914

 Excited State   9:      Singlet-A      6.0155 eV  206.11 nm  f=0.1061  <S**2>=0.000
      66 -> 70         0.35872
      66 -> 71        -0.14719
      67 -> 70         0.14243
      67 -> 71        -0.18019
      68 -> 71        -0.18332
      68 -> 72         0.27855
      68 -> 73        -0.23151
      69 -> 73        -0.27168

 Excited State  10:      Singlet-A      6.1743 eV  200.81 nm  f=0.1284  <S**2>=0.000
      66 -> 70        -0.13607
      68 -> 71         0.22139
      68 -> 72         0.58430
      68 -> 73         0.15456
      69 -> 70        -0.10770

 The electronic state is 1-A.
 Alpha  occ. eigenvalues --  -19.19714 -19.18056 -19.13829 -10.31429 -10.24898
 Alpha  occ. eigenvalues --  -10.24752 -10.24261 -10.21329 -10.19936 -10.19704
 Alpha  occ. eigenvalues --  -10.19351 -10.19229 -10.19132 -10.19056 -10.18962
 Alpha  occ. eigenvalues --  -10.18636 -10.18207 -10.18191 -10.17376  -1.10410
 Alpha  occ. eigenvalues --   -1.06631  -1.02097  -0.87213  -0.82896  -0.81470
 Alpha  occ. eigenvalues --   -0.77365  -0.75236  -0.72547  -0.70547  -0.69152
 Alpha  occ. eigenvalues --   -0.68591  -0.65145  -0.62824  -0.60056  -0.59145
 Alpha  occ. eigenvalues --   -0.55719  -0.53194  -0.51470  -0.49040  -0.48727
 Alpha  occ. eigenvalues --   -0.47452  -0.47009  -0.46845  -0.45789  -0.44900
 Alpha  occ. eigenvalues --   -0.44196  -0.43230  -0.42663  -0.42396  -0.41019
 Alpha  occ. eigenvalues --   -0.40294  -0.39220  -0.38856  -0.38498  -0.37866
 Alpha  occ. eigenvalues --   -0.37290  -0.36799  -0.35631  -0.35219  -0.34325
 Alpha  occ. eigenvalues --   -0.33505  -0.33366  -0.32878  -0.31595  -0.29513
 Alpha  occ. eigenvalues --   -0.27546  -0.26728  -0.22908  -0.20446
 Alpha virt. eigenvalues --   -0.03430  -0.00697   0.01561   0.03484   0.08340
 Alpha virt. eigenvalues --    0.09175   0.10127   0.10780   0.11775   0.12171
 Alpha virt. eigenvalues --    0.12797   0.14128   0.15016   0.15242   0.15438

 Mulliken atomic charges:
              1
     1  C   -0.227867
     2  O   -0.464235
     3  C    0.381734
     4  C   -0.198630
     5  C   -0.207577
     6  C    0.144166
     7  C    0.150493
     8  C   -0.269346
     9  C   -0.228932
    10  C   -0.161364
    11  C    0.369007
    12  C   -0.265333
    13  O   -0.528689
    14  C    0.634845
    15  O   -0.456780
    16  C   -0.009849
    17  C   -0.452297
    18  C   -0.433793
    19  C   -0.451520
    20  H    0.180691
    21  H    0.168791
    22  H    0.169754
    23  H    0.127407
    24  H    0.126282
    25  H    0.136103
    26  H    0.120716
    27  H    0.133809
    28  H    0.132972
    29  H    0.151027
    30  H    0.165877
    31  H    0.148794
    32  H    0.155590
    33  H    0.136875
    34  H    0.157231
    35  H    0.163345
    36  H    0.152567
    37  H    0.148138
 Sum of Mulliken atomic charges =  -0.00000

 Dipole moment (field-independent basis, Debye):
    X=             -1.6904    Y=             -0.4985    Z=              1.1802  Tot=              2.1211
 Quadrupole moment (field-independent basis, Debye-Ang):
   XX=            -81.6904   YY=           -106.5110   ZZ=           -116.8081
   XY=             14.6800   XZ=              3.5395   YZ=             -3.5239

 Summary of Natural Population Analysis:

                                       Natural Population
                Natural  -----------------------------------------------
    Atom  No    Charge         Core      Valence    Rydberg      Total
 -----------------------------------------------------------------------
      C    1   -0.32548      1.99943     4.31188    0.01417     6.32548
      O    2   -0.45482      1.99975     6.44330    0.01177     8.45482
      C    3    0.36959      1.99880     3.60904    0.02257     5.63041
      C    4   -0.34129      1.99905     4.32488    0.01736     6.34129
      C    5   -0.22061      1.99907     4.20626    0.01528     6.22061
      C    6   -0.04080      1.99903     4.02666    0.01511     6.04080
      C    7   -0.04773      1.99903     4.03318    0.01552     6.04773
      C    8   -0.28083      1.99899     4.26884    0.01301     6.28083
      C    9   -0.22761      1.99907     4.21311    0.01543     6.22761
      C   10   -0.32071      1.99902     4.30586    0.01583     6.32071
      C   11    0.35682      1.99870     3.62183    0.02265     5.64318
      C   12   -0.27890      1.99896     4.26438    0.01556     6.27890
      O   13   -0.53704      1.99969     6.52624    0.01111     8.53704
      C   14    0.84339      1.99928     3.10846    0.04888     5.15661
      O   15   -0.56960      1.99977     6.54994    0.01989     8.56960
      C   16   -0.15134      1.99905     4.13997    0.01232     6.15134
      C   17   -0.67001      1.99938     4.66089    0.00973     6.67001
      C   18   -0.66999      1.99940     4.65949    0.01110     6.66999
      C   19   -0.66943      1.99938     4.66027    0.00978     6.66943
      H   20    0.23385      0.00000     0.76565    0.00050     0.76615
      H   21    0.21380      0.00000     0.78453    0.00167     0.78620
      H   22    0.21438      0.00000     0.78395    0.00167     0.78562
      H   23    0.24248      0.00000     0.75649    0.00103     0.75752
      H   24    0.23338      0.00000     0.76559    0.00103     0.76662
      H   25    0.23418      0.00000     0.76463    0.00119     0.76582
      H   26    0.22909      0.00000     0.76983    0.00108     0.77091
      H   27    0.24726      0.00000     0.75185    0.00090     0.75274
      H   28    0.24128      0.00000     0.75728    0.00144     0.75872
      H   29    0.23588      0.00000     0.76320    0.00092     0.76412
      H   30    0.24495      0.00000     0.75400    0.00105     0.75505
      H   31    0.23514      0.00000     0.76381    0.00105     0.76486
      H   32    0.24260      0.00000     0.75636    0.00104     0.75740
      H   33    0.22980      0.00000     0.76929    0.00091     0.77020
      H   34    0.24351      0.00000     0.75544    0.00105     0.75649
      H   35    0.24358      0.00000     0.75530    0.00112     0.75642
      H   36    0.23666      0.00000     0.76243    0.00091     0.76334
      H   37    0.23460      0.00000     0.76436    0.00104     0.76540
 =======================================================================
   * Total *   -0.00000     37.98485    99.67846    0.33670   138.00000

 Normal termination of Gaussian 09 at Fri Oct  1 06:46:29 2021.
