 Gaussian 09, Revision A.02,

 -----------------------------------
 #p opt b3lyp/6-31G* scf=(xqc,tight)
 -----------------------------------

 ----------------------------------
 COc1ccc2c(c1)CCC=C2N1CCCCC1_conf_0
 ----------------------------------
 Symbolic Z-matrix:
 Charge =  0 Multiplicity = 1

 SCF Done:  E(RB3LYP) =  -752.299456038     A.U. after   14 cycles
 SCF Done:  E(RB3LYP) =  -752.304251152     A.U. after   12 cycles
 SCF Done:  E(RB3LYP) =  -752.306022000     A.U. after   12 cycles
 SCF Done:  E(RB3LYP) =  -752.307208534     A.U. after   12 cycles
 SCF Done:  E(RB3LYP) =  -752.307652830     A.U. after   13 cycles
 SCF Done:  E(RB3LYP) =  -752.308318099     A.U. after   12 cycles
 SCF Done:  E(RB3LYP) =  -752.308493391     A.U. after   12 cycles
 SCF Done:  E(RB3LYP) =  -752.308538317     A.U. after   11 cycles
 SCF Done:  E(RB3LYP) =  -752.308542388     A.U. after    8 cycles
 SCF Done:  E(RB3LYP) =  -752.308542753     A.U. after    7 cycles
 Optimization completed.
    -- Stationary point found.
 Normal termination of Gaussian 09 at Thu Sep 30 12:19:52 2021.

 ----------------------------------------------------------------------
 #p freq b3lyp/6-31G* volume NMR pop=NPA density=current Geom=AllCheck
 Guess=Read
 ----------------------------------------------------------------------

 COc1ccc2c(c1)CCC=C2N1CCCCC1_conf_0
 ----------------------------------
 Redundant internal coordinates taken from checkpoint file:
 C16H21NO_b1a9_conf_0.chk
 Charge =  0 Multiplicity = 1

 SCF Done:  E(RB3LYP) =  -752.308542753     A.U. after    1 cycles

  1  C    Isotropic =   137.5172   Anisotropy =    64.7451

  2  O    Isotropic =   238.3323   Anisotropy =    77.8491

  3  C    Isotropic =    40.1221   Anisotropy =   123.7419

  4  C    Isotropic =    80.7566   Anisotropy =   129.0479

  5  C    Isotropic =    69.8092   Anisotropy =   158.8255

  6  C    Isotropic =    69.9752   Anisotropy =   157.3326

  7  C    Isotropic =    55.8658   Anisotropy =   171.4509

  8  C    Isotropic =    85.8914   Anisotropy =   122.7468

  9  C    Isotropic =   158.0444   Anisotropy =     9.9292

 10  C    Isotropic =   164.4181   Anisotropy =     9.6120

 11  C    Isotropic =    89.8878   Anisotropy =   102.8741

 12  C    Isotropic =    48.9162   Anisotropy =   117.4676

 13  N    Isotropic =   194.6868   Anisotropy =    36.8636

 14  C    Isotropic =   139.9122   Anisotropy =    29.6697

 15  C    Isotropic =   164.8340   Anisotropy =     8.5306

 16  C    Isotropic =   162.3741   Anisotropy =     3.3673

 17  C    Isotropic =   165.2776   Anisotropy =    11.6737

 18  C    Isotropic =   139.5028   Anisotropy =    33.0515

 19  H    Isotropic =    28.3586   Anisotropy =     8.3027

 20  H    Isotropic =    28.6372   Anisotropy =     7.9008

 21  H    Isotropic =    28.6772   Anisotropy =     7.7990

 22  H    Isotropic =    25.7041   Anisotropy =     5.8161

 23  H    Isotropic =    25.0624   Anisotropy =     9.7428

 24  H    Isotropic =    26.0331   Anisotropy =     9.3023

 25  H    Isotropic =    29.3875   Anisotropy =     6.6314

 26  H    Isotropic =    29.9860   Anisotropy =     7.5956

 27  H    Isotropic =    30.3200   Anisotropy =     8.5289

 28  H    Isotropic =    29.8690   Anisotropy =     8.3289

 29  H    Isotropic =    27.1924   Anisotropy =     7.4054

 30  H    Isotropic =    29.2523   Anisotropy =     7.4854

 31  H    Isotropic =    28.8128   Anisotropy =     7.7334

 32  H    Isotropic =    31.1397   Anisotropy =     9.4681

 33  H    Isotropic =    30.5243   Anisotropy =     5.4270

 34  H    Isotropic =    30.5769   Anisotropy =     8.2626

 35  H    Isotropic =    30.3966   Anisotropy =     9.7262

 36  H    Isotropic =    31.0420   Anisotropy =     9.6304

 37  H    Isotropic =    30.1231   Anisotropy =     6.2025

 38  H    Isotropic =    28.9675   Anisotropy =     8.1899

 39  H    Isotropic =    28.7627   Anisotropy =     5.2602

  Exact polarizability: 240.086   7.996 180.173  -9.968  10.222 117.058
 Approx polarizability: 313.469  22.829 303.445 -18.420  29.682 180.904

                     1                      2                      3
                     A                      A                      A
 Frequencies --    36.7579                63.6476                73.2085
 Red. masses --     3.6122                 3.4740                 3.1406
 Frc consts  --     0.0029                 0.0083                 0.0099
 IR Inten    --     0.7922                 0.5811                 1.0674

                     4                      5                      6
                     A                      A                      A
 Frequencies --   104.1568               123.0428               154.9671
 Red. masses --     3.6221                 3.1868                 4.4968
 Frc consts  --     0.0232                 0.0284                 0.0636
 IR Inten    --     1.7417                 0.5042                 0.9471

                     7                      8                      9
                     A                      A                      A
 Frequencies --   182.4417               206.4077               214.8711
 Red. masses --     3.2107                 2.2259                 3.2211
 Frc consts  --     0.0630                 0.0559                 0.0876
 IR Inten    --     0.5490                 1.1454                 0.6281

                    10                     11                     12
                     A                      A                      A
 Frequencies --   232.5380               266.5052               292.1198
 Red. masses --     1.4819                 1.8966                 2.0050
 Frc consts  --     0.0472                 0.0794                 0.1008
 IR Inten    --     1.1541                 0.3757                 0.8529

                    13                     14                     15
                     A                      A                      A
 Frequencies --   312.0921               356.4353               370.5549
 Red. masses --     2.5339                 2.4742                 3.2718
 Frc consts  --     0.1454                 0.1852                 0.2647
 IR Inten    --     1.9954                 0.8785                 2.1896

                    16                     17                     18
                     A                      A                      A
 Frequencies --   413.2256               422.3418               447.9425
 Red. masses --     3.0982                 3.2800                 2.9092
 Frc consts  --     0.3117                 0.3447                 0.3439
 IR Inten    --     3.3072                 2.5641                 2.3160

                    19                     20                     21
                     A                      A                      A
 Frequencies --   452.6965               477.0727               494.4335
 Red. masses --     3.0693                 3.0382                 3.3129
 Frc consts  --     0.3706                 0.4074                 0.4772
 IR Inten    --     2.1206                 0.6669                 4.0611

                    22                     23                     24
                     A                      A                      A
 Frequencies --   520.5356               562.9354               573.2205
 Red. masses --     3.6409                 2.5947                 3.1171
 Frc consts  --     0.5812                 0.4845                 0.6034
 IR Inten    --     0.8164                 1.3997                 3.2652

                    25                     26                     27
                     A                      A                      A
 Frequencies --   588.4019               646.6840               656.2398
 Red. masses --     2.9870                 2.9316                 2.6132
 Frc consts  --     0.6093                 0.7223                 0.6631
 IR Inten    --     8.2530                 0.8209                 5.3059

                    28                     29                     30
                     A                      A                      A
 Frequencies --   679.8325               732.2971               765.8648
 Red. masses --     4.9718                 4.2830                 3.9207
 Frc consts  --     1.3538                 1.3532                 1.3549
 IR Inten    --    13.0844                 1.5424                 4.0965

                    31                     32                     33
                     A                      A                      A
 Frequencies --   796.8065               818.5691               820.4507
 Red. masses --     1.6290                 1.8695                 2.1156
 Frc consts  --     0.6094                 0.7381                 0.8391
 IR Inten    --    15.4635                 0.3851                 1.6943

                    34                     35                     36
                     A                      A                      A
 Frequencies --   848.0977               864.2773               866.4873
 Red. masses --     1.4571                 1.9220                 1.5809
 Frc consts  --     0.6175                 0.8459                 0.6993
 IR Inten    --    16.7412                24.2496                 7.2609

                    37                     38                     39
                     A                      A                      A
 Frequencies --   870.0105               891.6176               910.7889
 Red. masses --     1.6198                 2.6185                 2.9214
 Frc consts  --     0.7224                 1.2265                 1.4278
 IR Inten    --     7.7558                 2.0897                15.9147

                    40                     41                     42
                     A                      A                      A
 Frequencies --   939.2288               963.6580               973.6723
 Red. masses --     2.5366                 2.4986                 1.3053
 Frc consts  --     1.3184                 1.3671                 0.7291
 IR Inten    --     5.6465                 2.4860                 1.5446

                    43                     44                     45
                     A                      A                      A
 Frequencies --   978.6666              1011.9028              1047.4481
 Red. masses --     1.3773                 2.4220                 2.3254
 Frc consts  --     0.7772                 1.4611                 1.5032
 IR Inten    --     5.1831                 9.9624                38.1625

                    46                     47                     48
                     A                      A                      A
 Frequencies --  1050.5051              1058.3471              1075.4849
 Red. masses --     2.3803                 2.1309                 1.8778
 Frc consts  --     1.5477                 1.4063                 1.2797
 IR Inten    --     1.0319                 6.8035                12.8301

                    49                     50                     51
                     A                      A                      A
 Frequencies --  1083.1126              1110.3475              1138.5246
 Red. masses --     3.4123                 2.3612                 2.3953
 Frc consts  --     2.3586                 1.7152                 1.8293
 IR Inten    --    44.5534                14.0996                 7.6755

                    52                     53                     54
                     A                      A                      A
 Frequencies --  1155.1327              1184.8063              1188.7008
 Red. masses --     1.5586                 1.2703                 1.2278
 Frc consts  --     1.2253                 1.0507                 1.0222
 IR Inten    --    60.8146                 0.7986                 4.4419

                    55                     56                     57
                     A                      A                      A
 Frequencies --  1191.1755              1196.5487              1206.3627
 Red. masses --     1.5426                 1.2772                 1.7709
 Frc consts  --     1.2896                 1.0774                 1.5185
 IR Inten    --     6.3967                 4.6509                46.1290

                    58                     59                     60
                     A                      A                      A
 Frequencies --  1223.3640              1227.8532              1245.1135
 Red. masses --     1.5028                 1.6161                 2.0176
 Frc consts  --     1.3251                 1.4355                 1.8429
 IR Inten    --    14.1379                36.9185                14.6749

                    61                     62                     63
                     A                      A                      A
 Frequencies --  1272.4734              1289.9510              1296.2742
 Red. masses --     1.5611                 2.4943                 1.2736
 Frc consts  --     1.4893                 2.4454                 1.2608
 IR Inten    --    39.6378               163.3679                 3.4861

                    64                     65                     66
                     A                      A                      A
 Frequencies --  1322.2639              1324.4623              1357.1394
 Red. masses --     1.6565                 1.2295                 3.2758
 Frc consts  --     1.7064                 1.2707                 3.5548
 IR Inten    --    70.5158                18.4119                50.4741

                    67                     68                     69
                     A                      A                      A
 Frequencies --  1363.8053              1370.4154              1376.9685
 Red. masses --     1.6036                 1.3745                 1.7364
 Frc consts  --     1.7573                 1.5208                 1.9398
 IR Inten    --    19.7244                 9.7285                12.9476

                    70                     71                     72
                     A                      A                      A
 Frequencies --  1388.7211              1393.3069              1396.7473
 Red. masses --     1.6801                 1.3094                 1.6132
 Frc consts  --     1.9090                 1.4976                 1.8543
 IR Inten    --     2.5010                 5.9652                34.9778

                    73                     74                     75
                     A                      A                      A
 Frequencies --  1403.9365              1421.9958              1430.3346
 Red. masses --     1.4586                 1.3514                 1.7980
 Frc consts  --     1.6939                 1.6100                 2.1673
 IR Inten    --    22.6469                12.3377                67.8765

                    76                     77                     78
                     A                      A                      A
 Frequencies --  1465.0856              1499.5252              1502.9182
 Red. masses --     2.9781                 1.1154                 1.3119
 Frc consts  --     3.7662                 1.4777                 1.7460
 IR Inten    --    15.0022                 3.3864                11.4367

                    79                     80                     81
                     A                      A                      A
 Frequencies --  1504.4587              1510.0931              1512.1144
 Red. masses --     1.0892                 1.0862                 1.0895
 Frc consts  --     1.4525                 1.4594                 1.4677
 IR Inten    --     0.0440                 8.1907                 3.0798

                    82                     83                     84
                     A                      A                      A
 Frequencies --  1513.5652              1515.0239              1520.2591
 Red. masses --     1.1060                 1.1005                 1.0486
 Frc consts  --     1.4928                 1.4882                 1.4279
 IR Inten    --     2.0220                 3.1659                 5.2647

                    85                     86                     87
                     A                      A                      A
 Frequencies --  1529.0451              1534.2567              1548.1247
 Red. masses --     1.1034                 1.1044                 2.4114
 Frc consts  --     1.5200                 1.5317                 3.4052
 IR Inten    --     6.4228                62.7529                49.2655

                    88                     89                     90
                     A                      A                      A
 Frequencies --  1617.1373              1664.7252              1679.0766
 Red. masses --     7.1768                 5.8359                 7.0136
 Frc consts  --    11.0580                 9.5289                11.6501
 IR Inten    --     1.6522               118.7768                88.5218

                    91                     92                     93
                     A                      A                      A
 Frequencies --  2985.2716              3002.6495              3010.7311
 Red. masses --     1.0730                 1.0723                 1.0672
 Frc consts  --     5.6341                 5.6961                 5.6997
 IR Inten    --    50.1750                36.1302                35.4715

                    94                     95                     96
                     A                      A                      A
 Frequencies --  3012.2933              3018.4645              3023.1020
 Red. masses --     1.0721                 1.0693                 1.0348
 Frc consts  --     5.7317                 5.7399                 5.5722
 IR Inten    --    33.1072                59.7227                59.3435

                    97                     98                     99
                     A                      A                      A
 Frequencies --  3035.5012              3041.9512              3071.2792
 Red. masses --     1.0602                 1.0611                 1.0936
 Frc consts  --     5.7556                 5.7851                 6.0780
 IR Inten    --    24.8073                25.9688                68.5351

                   100                    101                    102
                     A                      A                      A
 Frequencies --  3074.4159              3077.2344              3078.1895
 Red. masses --     1.0909                 1.1043                 1.0933
 Frc consts  --     6.0753                 6.1613                 6.1033
 IR Inten    --    40.8288                43.8838                41.6662

                   103                    104                    105
                     A                      A                      A
 Frequencies --  3081.2069              3086.7885              3111.3157
 Red. masses --     1.1066                 1.1033                 1.0926
 Frc consts  --     6.1899                 6.1937                 6.2315
 IR Inten    --    46.3252                78.5812                22.3649

                   106                    107                    108
                     A                      A                      A
 Frequencies --  3135.3380              3154.3846              3205.0148
 Red. masses --     1.0921                 1.0996                 1.0873
 Frc consts  --     6.3253                 6.4461                 6.5803
 IR Inten    --    21.5504                32.0997                 9.6451

                   109                    110                    111
                     A                      A                      A
 Frequencies --  3209.0660              3213.3508              3220.2901
 Red. masses --     1.0892                 1.0891                 1.0940
 Frc consts  --     6.6085                 6.6258                 6.6845
 IR Inten    --    12.8583                20.4002                10.2821

 - Thermochemistry -
 -------------------
 Temperature   298.150 Kelvin.  Pressure   1.00000 Atm.
 Atom     1 has atomic number  6 and mass  12.00000

 Molecular mass:   243.16231 amu.
 Principal axes and moments of inertia in atomic units:
                           1         2         3
     Eigenvalues --  1975.668177883.240068991.66931
           X            0.99995  -0.00959  -0.00219
           Y            0.00960   0.99995   0.00074
           Z            0.00218  -0.00076   1.00000
 This molecule is an asymmetric top.
 Rotational symmetry number  1.
 Warning -- assumption of classical behavior for rotation
           may cause significant error
 Rotational temperatures (Kelvin)      0.04384     0.01099     0.00963
 Rotational constants (GHZ):           0.91348     0.22893     0.20071
 Zero-point vibrational energy     901581.0 (Joules/Mol)
                                  215.48303 (Kcal/Mol)
 Warning -- explicit consideration of  25 degrees of freedom as
           vibrations may cause significant error
 Vibrational temperatures:     52.89    91.57   105.33   149.86   177.03
          (Kelvin)            222.96   262.49   296.97   309.15   334.57
                              383.44   420.29   449.03   512.83   533.15
                              594.54   607.65   644.49   651.33   686.40
                              711.38   748.93   809.94   824.74   846.58
                              930.43   944.18   978.13  1053.61  1101.91
                             1146.43  1177.74  1180.44  1220.22  1243.50
                             1246.68  1251.75  1282.84  1310.42  1351.34
                             1386.49  1400.90  1408.08  1455.90  1507.04
                             1511.44  1522.72  1547.38  1558.36  1597.54
                             1638.08  1661.98  1704.67  1710.27  1713.83
                             1721.56  1735.68  1760.15  1766.60  1791.44
                             1830.80  1855.95  1865.05  1902.44  1905.60
                             1952.62  1962.21  1971.72  1981.15  1998.06
                             2004.66  2009.61  2019.95  2045.93  2057.93
                             2107.93  2157.48  2162.36  2164.58  2172.68
                             2175.59  2177.68  2179.78  2187.31  2199.95
                             2207.45  2227.40  2326.70  2395.17  2415.81
                             4295.13  4320.14  4331.77  4334.01  4342.89
                             4349.56  4367.40  4376.68  4418.88  4423.39
                             4427.45  4428.82  4433.16  4441.19  4476.48
                             4511.05  4538.45  4611.30  4617.12  4623.29
                             4633.27

 Zero-point correction=                           0.343394 (Hartree/Particle)
 Thermal correction to Energy=                    0.359134
 Thermal correction to Enthalpy=                  0.360078
 Thermal correction to Gibbs Free Energy=         0.300570
 Sum of electronic and zero-point Energies=           -751.965149
 Sum of electronic and thermal Energies=              -751.949409
 Sum of electronic and thermal Enthalpies=            -751.948464
 Sum of electronic and thermal Free Energies=         -752.007973

                     E (Thermal)             CV                S
                      KCal/Mol        Cal/Mol-Kelvin    Cal/Mol-Kelvin
 Total                  225.360             63.832            125.245
 Electronic               0.000              0.000              0.000
 Translational            0.889              2.981             42.367
 Rotational               0.889              2.981             33.304
 Vibrational            223.583             57.870             49.575
 Vibration     1          0.594              1.982              5.427
 Vibration     2          0.597              1.972              4.341
 Vibration     3          0.599              1.967              4.065
 Vibration     4          0.605              1.946              3.375
 Vibration     5          0.610              1.930              3.052
 Vibration     6          0.620              1.897              2.610
 Vibration     7          0.630              1.864              2.303
 Vibration     8          0.641              1.831              2.075
 Vibration     9          0.645              1.818              2.002
 Vibration    10          0.653              1.791              1.859
 Vibration    11          0.672              1.735              1.619
 Vibration    12          0.687              1.688              1.462
 Vibration    13          0.700              1.651              1.351
 Vibration    14          0.732              1.562              1.138
 Vibration    15          0.743              1.533              1.077
 Vibration    16          0.777              1.442              0.915
 Vibration    17          0.785              1.422              0.884
 Vibration    18          0.807              1.365              0.802
 Vibration    19          0.811              1.355              0.788
 Vibration    20          0.834              1.301              0.718
 Vibration    21          0.850              1.262              0.672
 Vibration    22          0.876              1.205              0.609
 Vibration    23          0.919              1.111              0.518
 Vibration    24          0.929              1.089              0.498
 Vibration    25          0.946              1.057              0.470

 Optimization completed.
    -- Stationary point found.
 Normal termination of Gaussian 09 at Thu Sep 30 13:53:08 2021.
 Gaussian 09:  AM64L-G09RevA.02 11-Jun-2009

 ----------------------------------------------------------------------
 #p TD(NStates=10, Root=1) b3lyp/6-31G* volume pop=NPA density=current
 Geom=AllCheck Guess=Read
 ----------------------------------------------------------------------

 COc1ccc2c(c1)CCC=C2N1CCCCC1_conf_0
 ----------------------------------
 Redundant internal coordinates taken from checkpoint file:
 C16H21NO_b1a9_conf_0.chk
 Charge =  0 Multiplicity = 1

                         Standard orientation:
 ---------------------------------------------------------------------
 Center     Atomic      Atomic             Coordinates (Angstroms)
 Number     Number       Type             X           Y           Z
 ---------------------------------------------------------------------
      1          6           0       -5.462084   -0.363076    0.481355
      2          8           0       -4.460704   -1.194071   -0.080783
      3          6           0       -3.178712   -0.722601   -0.127888
      4          6           0       -2.230366   -1.583250   -0.695119
      5          6           0       -0.901629   -1.189439   -0.778587
      6          6           0       -0.472768    0.057703   -0.292320
      7          6           0       -1.439087    0.930872    0.245796
      8          6           0       -2.777434    0.538071    0.330072
      9          6           0       -0.992627    2.298870    0.714065
     10          6           0        0.094147    2.851187   -0.217670
     11          6           0        1.202496    1.838358   -0.378567
     12          6           0        0.941875    0.509815   -0.399355
     13          7           0        1.906086   -0.496811   -0.638323
     14          6           0        2.049463   -1.560943    0.369720
     15          6           0        3.060478   -1.203358    1.471690
     16          6           0        4.426601   -0.855703    0.862961
     17          6           0        4.277521    0.251818   -0.191086
     18          6           0        3.196847   -0.127880   -1.222594
     19          1           0       -6.390584   -0.935060    0.429142
     20          1           0       -5.580215    0.570120   -0.085616
     21          1           0       -5.245122   -0.119780    1.530205
     22          1           0       -2.558776   -2.546983   -1.071792
     23          1           0       -0.177522   -1.846926   -1.248697
     24          1           0       -3.498931    1.232845    0.747340
     25          1           0       -0.575326    2.219446    1.730199
     26          1           0       -1.848557    2.981681    0.772550
     27          1           0        0.497449    3.784595    0.192636
     28          1           0       -0.352937    3.111014   -1.192267
     29          1           0        2.215787    2.208560   -0.491032
     30          1           0        2.386007   -2.472987   -0.146928
     31          1           0        1.070303   -1.774951    0.802429
     32          1           0        3.149884   -2.043463    2.173075
     33          1           0        2.678523   -0.345752    2.042465
     34          1           0        4.848346   -1.754657    0.388025
     35          1           0        5.135144   -0.552158    1.643633
     36          1           0        5.229912    0.425989   -0.709089
     37          1           0        4.006234    1.191025    0.306857
     38          1           0        3.554104   -1.002174   -1.789313
     39          1           0        3.030984    0.677202   -1.944140
 ---------------------------------------------------------------------

 SCF Done:  E(RB3LYP) =  -752.308542753     A.U. after    2 cycles

 Excitation energies and oscillator strengths:

 Excited State   1:      Singlet-A      4.1478 eV  298.91 nm  f=0.0434  <S**2>=0.000
      65 -> 67        -0.10882
      66 -> 67         0.64452
      66 -> 68        -0.26033
 This state for optimization and/or second-order correction.
 Total Energy, E(TD-HF/TD-KS) =  -752.156112549
 Copying the excited state density for this state as the 1-particle RhoCI density.

 Excited State   2:      Singlet-A      4.3613 eV  284.28 nm  f=0.0496  <S**2>=0.000
      64 -> 67        -0.15845
      66 -> 67         0.23998
      66 -> 68         0.63448

 Excited State   3:      Singlet-A      4.9149 eV  252.26 nm  f=0.2750  <S**2>=0.000
      64 -> 68         0.10644
      65 -> 67         0.66632
      66 -> 67         0.13278

 Excited State   4:      Singlet-A      5.0268 eV  246.65 nm  f=0.0128  <S**2>=0.000
      64 -> 67        -0.35523
      65 -> 67        -0.10807
      65 -> 68         0.59301

 Excited State   5:      Singlet-A      5.9468 eV  208.49 nm  f=0.1095  <S**2>=0.000
      64 -> 67         0.47207
      64 -> 68         0.10252
      65 -> 68         0.27922
      66 -> 68         0.10280
      66 -> 69         0.38188

 Excited State   6:      Singlet-A      6.1403 eV  201.92 nm  f=0.1882  <S**2>=0.000
      63 -> 67         0.33328
      64 -> 67        -0.29861
      65 -> 68        -0.20540
      66 -> 69         0.47901

 Excited State   7:      Singlet-A      6.4298 eV  192.83 nm  f=0.1653  <S**2>=0.000
      63 -> 67        -0.42787
      64 -> 67        -0.10690
      64 -> 68         0.45400
      66 -> 69         0.18769
      66 -> 70         0.20082

 Excited State   8:      Singlet-A      6.5258 eV  189.99 nm  f=0.1617  <S**2>=0.000
      64 -> 68        -0.30860
      65 -> 69        -0.15768
      66 -> 70         0.58867

 Excited State   9:      Singlet-A      6.6696 eV  185.89 nm  f=0.1224  <S**2>=0.000
      63 -> 67         0.34063
      63 -> 68        -0.23436
      64 -> 68         0.26228
      65 -> 69         0.35887
      66 -> 69        -0.17376
      66 -> 70         0.26279

 Excited State  10:      Singlet-A      6.7923 eV  182.54 nm  f=0.0086  <S**2>=0.000
      63 -> 68         0.64425
      65 -> 69         0.21300

 The electronic state is 1-A.
 Alpha  occ. eigenvalues --  -19.17262 -14.32829 -10.23916 -10.23766 -10.20737
 Alpha  occ. eigenvalues --  -10.20460 -10.20417 -10.18839 -10.18056 -10.17919
 Alpha  occ. eigenvalues --  -10.17882 -10.17870 -10.17850 -10.17818 -10.17722
 Alpha  occ. eigenvalues --  -10.17606 -10.17414 -10.16179  -1.05796  -0.92816
 Alpha  occ. eigenvalues --   -0.85237  -0.80358  -0.78674  -0.75057  -0.74667
 Alpha  occ. eigenvalues --   -0.73843  -0.70777  -0.68902  -0.64331  -0.62450
 Alpha  occ. eigenvalues --   -0.61141  -0.58787  -0.58288  -0.55703  -0.51953
 Alpha  occ. eigenvalues --   -0.51435  -0.50094  -0.47256  -0.46432  -0.46101
 Alpha  occ. eigenvalues --   -0.45166  -0.44624  -0.44028  -0.43313  -0.42289
 Alpha  occ. eigenvalues --   -0.41286  -0.40661  -0.40007  -0.39002  -0.38122
 Alpha  occ. eigenvalues --   -0.37580  -0.36972  -0.36392  -0.35538  -0.34773
 Alpha  occ. eigenvalues --   -0.34502  -0.33585  -0.32752  -0.31747  -0.31419
 Alpha  occ. eigenvalues --   -0.31054  -0.30588  -0.26831  -0.23671  -0.20733
 Alpha  occ. eigenvalues --   -0.17672
 Alpha virt. eigenvalues --   -0.00627   0.00881   0.07253   0.09268   0.10135
 Alpha virt. eigenvalues --    0.10859   0.11300   0.12361   0.12710   0.14038
 Alpha virt. eigenvalues --    0.14691   0.15050   0.15246   0.15802   0.16050

 Mulliken atomic charges:
              1
     1  C   -0.197946
     2  O   -0.513623
     3  C    0.351297
     4  C   -0.216888
     5  C   -0.187622
     6  C    0.039614
     7  C    0.066872
     8  C   -0.278148
     9  C   -0.345725
    10  C   -0.297554
    11  C   -0.193603
    12  C    0.290714
    13  N   -0.393452
    14  C   -0.168741
    15  C   -0.272890
    16  C   -0.267798
    17  C   -0.272102
    18  C   -0.164729
    19  H    0.152893
    20  H    0.138669
    21  H    0.138582
    22  H    0.100400
    23  H    0.101362
    24  H    0.096303
    25  H    0.129457
    26  H    0.126150
    27  H    0.129968
    28  H    0.172044
    29  H    0.129900
    30  H    0.154966
    31  H    0.204941
    32  H    0.155595
    33  H    0.158606
    34  H    0.137850
    35  H    0.149874
    36  H    0.151177
    37  H    0.153855
    38  H    0.165762
    39  H    0.173970
 Sum of Mulliken atomic charges =  -0.00000

 Dipole moment (field-independent basis, Debye):
    X=              6.8659    Y=              0.8717    Z=              0.6179  Tot=              6.9486
 Quadrupole moment (field-independent basis, Debye-Ang):
   XX=            -93.0196   YY=           -105.4523   ZZ=           -108.5501
   XY=             -7.9979   XZ=             -4.5792   YZ=             -1.1913

 Summary of Natural Population Analysis:

                                       Natural Population
                Natural  -----------------------------------------------
    Atom  No    Charge         Core      Valence    Rydberg      Total
 -----------------------------------------------------------------------
      C    1   -0.31080      1.99944     4.29751    0.01385     6.31080
      O    2   -0.52118      1.99975     6.50967    0.01177     8.52118
      C    3    0.28018      1.99878     3.69724    0.02381     5.71982
      C    4   -0.35416      1.99903     4.33708    0.01804     6.35416
      C    5   -0.19459      1.99907     4.18204    0.01348     6.19459
      C    6   -0.20274      1.99893     4.18746    0.01634     6.20274
      C    7   -0.12001      1.99902     4.10220    0.01879     6.12001
      C    8   -0.30689      1.99898     4.29550    0.01242     6.30689
      C    9   -0.45132      1.99927     4.43968    0.01237     6.45132
      C   10   -0.48948      1.99930     4.47781    0.01237     6.48948
      C   11   -0.17670      1.99898     4.16121    0.01651     6.17670
      C   12    0.18123      1.99892     3.79909    0.02076     5.81877
      N   13   -0.30010      1.99934     5.28801    0.01275     7.30010
      C   14   -0.27242      1.99929     4.25642    0.01670     6.27242
      C   15   -0.47192      1.99931     4.46108    0.01152     6.47192
      C   16   -0.46618      1.99933     4.45488    0.01197     6.46618
      C   17   -0.46919      1.99931     4.45887    0.01100     6.46919
      C   18   -0.28002      1.99933     4.26314    0.01755     6.28002
      H   19    0.21812      0.00000     0.78128    0.00060     0.78188
      H   20    0.19458      0.00000     0.80249    0.00293     0.80542
      H   21    0.19478      0.00000     0.80226    0.00297     0.80522
      H   22    0.23076      0.00000     0.76803    0.00121     0.76924
      H   23    0.21741      0.00000     0.78155    0.00104     0.78259
      H   24    0.22079      0.00000     0.77806    0.00116     0.77921
      H   25    0.22292      0.00000     0.77402    0.00306     0.77708
      H   26    0.23408      0.00000     0.76385    0.00207     0.76592
      H   27    0.23793      0.00000     0.75986    0.00221     0.76207
      H   28    0.26230      0.00000     0.73576    0.00194     0.73770
      H   29    0.21658      0.00000     0.78197    0.00145     0.78342
      H   30    0.23675      0.00000     0.76150    0.00175     0.76325
      H   31    0.27794      0.00000     0.72075    0.00131     0.72206
      H   32    0.25399      0.00000     0.74490    0.00111     0.74601
      H   33    0.24147      0.00000     0.75676    0.00177     0.75853
      H   34    0.22910      0.00000     0.76911    0.00179     0.77090
      H   35    0.24953      0.00000     0.74945    0.00102     0.75047
      H   36    0.25038      0.00000     0.74830    0.00132     0.74962
      H   37    0.23402      0.00000     0.76347    0.00251     0.76598
      H   38    0.24734      0.00000     0.75102    0.00164     0.75266
      H   39    0.25551      0.00000     0.74287    0.00162     0.74449
 =======================================================================
   * Total *   -0.00000     35.98537    95.70616    0.30847   132.00000

 Normal termination of Gaussian 09 at Thu Sep 30 20:40:12 2021.
