 Gaussian 09, Revision A.02,

 -----------------------------------
 #p opt b3lyp/6-31G* scf=(xqc,tight)
 -----------------------------------

 --------------------------------------
 CCN(C(=O)Oc1ccc(c2c1cccc2)OC)CC_conf_0
 --------------------------------------
 Symbolic Z-matrix:
 Charge =  0 Multiplicity = 1

 SCF Done:  E(RB3LYP) =  -901.578904004     A.U. after   15 cycles
 SCF Done:  E(RB3LYP) =  -901.587187689     A.U. after   13 cycles
 SCF Done:  E(RB3LYP) =  -901.589099896     A.U. after   12 cycles
 SCF Done:  E(RB3LYP) =  -901.589874058     A.U. after   14 cycles
 SCF Done:  E(RB3LYP) =  -901.590065885     A.U. after   12 cycles
 SCF Done:  E(RB3LYP) =  -901.590307360     A.U. after   12 cycles
 SCF Done:  E(RB3LYP) =  -901.590522840     A.U. after   11 cycles
 SCF Done:  E(RB3LYP) =  -901.590578089     A.U. after   11 cycles
 SCF Done:  E(RB3LYP) =  -901.590590010     A.U. after   10 cycles
 SCF Done:  E(RB3LYP) =  -901.590593959     A.U. after    9 cycles
 SCF Done:  E(RB3LYP) =  -901.590595978     A.U. after    9 cycles
 SCF Done:  E(RB3LYP) =  -901.590597616     A.U. after    9 cycles
 SCF Done:  E(RB3LYP) =  -901.590599394     A.U. after    9 cycles
 SCF Done:  E(RB3LYP) =  -901.590600877     A.U. after   10 cycles
 SCF Done:  E(RB3LYP) =  -901.590601485     A.U. after    9 cycles
 SCF Done:  E(RB3LYP) =  -901.590601586     A.U. after    7 cycles
 SCF Done:  E(RB3LYP) =  -901.590601595     A.U. after    7 cycles
 SCF Done:  E(RB3LYP) =  -901.590601563     A.U. after    7 cycles
 Optimization completed.
    -- Stationary point found.
 Normal termination of Gaussian 09 at Wed Sep 29 21:01:19 2021.

 ----------------------------------------------------------------------
 #p freq b3lyp/6-31G* volume NMR pop=NPA density=current Geom=AllCheck
 Guess=Read
 ----------------------------------------------------------------------

 CCN(C(=O)Oc1ccc(c2c1cccc2)OC)CC_conf_0
 --------------------------------------
 Redundant internal coordinates taken from checkpoint file:
 C16H19NO3_9273_conf_0.chk
 Charge =  0 Multiplicity = 1

 SCF Done:  E(RB3LYP) =  -901.590601563     A.U. after    1 cycles

  1  C    Isotropic =   171.7800   Anisotropy =    24.4812

  2  C    Isotropic =   142.4119   Anisotropy =    46.4218

  3  N    Isotropic =   158.0214   Anisotropy =    68.6771

  4  C    Isotropic =    46.2747   Anisotropy =    75.9423

  5  O    Isotropic =    59.1492   Anisotropy =   394.6973

  6  O    Isotropic =   152.2111   Anisotropy =   135.0626

  7  C    Isotropic =    54.8141   Anisotropy =    89.4911

  8  C    Isotropic =    75.2733   Anisotropy =   145.0204

  9  C    Isotropic =    91.9781   Anisotropy =   132.0375

 10  C    Isotropic =    44.8879   Anisotropy =   115.4918

 11  C    Isotropic =    70.2540   Anisotropy =   171.8988

 12  C    Isotropic =    68.3650   Anisotropy =   177.5068

 13  C    Isotropic =    73.8041   Anisotropy =   159.4147

 14  C    Isotropic =    70.1683   Anisotropy =   162.8375

 15  C    Isotropic =    71.7012   Anisotropy =   160.7792

 16  C    Isotropic =    72.0579   Anisotropy =   167.0129

 17  O    Isotropic =   241.4621   Anisotropy =    96.2501

 18  C    Isotropic =   136.9957   Anisotropy =    66.2261

 19  C    Isotropic =   141.1578   Anisotropy =    49.8552

 20  C    Isotropic =   173.1479   Anisotropy =    23.2918

 21  H    Isotropic =    31.2354   Anisotropy =    10.0773

 22  H    Isotropic =    30.8397   Anisotropy =     6.9753

 23  H    Isotropic =    30.4963   Anisotropy =     4.9535

 24  H    Isotropic =    29.3661   Anisotropy =     6.6672

 25  H    Isotropic =    27.9435   Anisotropy =     6.3977

 26  H    Isotropic =    24.9463   Anisotropy =     9.4326

 27  H    Isotropic =    25.7867   Anisotropy =     7.8717

 28  H    Isotropic =    24.2872   Anisotropy =    10.5350

 29  H    Isotropic =    24.7886   Anisotropy =     6.0848

 30  H    Isotropic =    24.8349   Anisotropy =     5.1653

 31  H    Isotropic =    23.9433   Anisotropy =     9.8585

 32  H    Isotropic =    28.0805   Anisotropy =     8.6980

 33  H    Isotropic =    28.4507   Anisotropy =     8.5433

 34  H    Isotropic =    28.4063   Anisotropy =     8.4919

 35  H    Isotropic =    29.5836   Anisotropy =     6.7112

 36  H    Isotropic =    28.1094   Anisotropy =     6.3970

 37  H    Isotropic =    30.9912   Anisotropy =     6.1906

 38  H    Isotropic =    31.3039   Anisotropy =    10.5640

 39  H    Isotropic =    30.2882   Anisotropy =     6.1767

  Exact polarizability: 245.114   0.436 214.706   2.453  -8.601 105.299
 Approx polarizability: 340.765  -1.431 358.363   8.634 -16.929 157.696

                     1                      2                      3
                     A                      A                      A
 Frequencies --    17.0940                29.2829                34.5033
 Red. masses --     3.7909                 3.7177                 3.3374
 Frc consts  --     0.0007                 0.0019                 0.0023
 IR Inten    --     0.5637                 0.6018                 0.6916

                     4                      5                      6
                     A                      A                      A
 Frequencies --    60.1837                75.2155                89.0998
 Red. masses --     3.1939                 2.8952                 3.3108
 Frc consts  --     0.0068                 0.0097                 0.0155
 IR Inten    --     2.0692                 0.2672                 2.3185

                     7                      8                      9
                     A                      A                      A
 Frequencies --    98.4180               128.5478               142.1445
 Red. masses --     5.9561                 4.0660                 3.7728
 Frc consts  --     0.0340                 0.0396                 0.0449
 IR Inten    --     1.4279                 0.2881                 2.8484

                    10                     11                     12
                     A                      A                      A
 Frequencies --   155.7437               189.2526               204.9046
 Red. masses --     3.2036                 2.9183                 3.2556
 Frc consts  --     0.0458                 0.0616                 0.0805
 IR Inten    --     1.4494                 2.5779                 0.1232

                    13                     14                     15
                     A                      A                      A
 Frequencies --   227.5394               237.6119               261.7062
 Red. masses --     1.9281                 1.1958                 2.4267
 Frc consts  --     0.0588                 0.0398                 0.0979
 IR Inten    --     0.5909                 0.8110                 0.3797

                    16                     17                     18
                     A                      A                      A
 Frequencies --   263.0347               271.4106               311.9027
 Red. masses --     1.2507                 2.9148                 2.9787
 Frc consts  --     0.0510                 0.1265                 0.1707
 IR Inten    --     0.6310                 1.3496                 7.0085

                    19                     20                     21
                     A                      A                      A
 Frequencies --   369.2815               398.1381               409.6217
 Red. masses --     4.1131                 3.1356                 4.6104
 Frc consts  --     0.3305                 0.2928                 0.4558
 IR Inten    --     1.3431                10.7065                 3.7448

                    22                     23                     24
                     A                      A                      A
 Frequencies --   431.0562               442.4497               468.3410
 Red. masses --     3.2282                 3.2594                 4.0126
 Frc consts  --     0.3534                 0.3759                 0.5186
 IR Inten    --     1.9042                 4.3979                 6.2399

                    25                     26                     27
                     A                      A                      A
 Frequencies --   478.9868               484.9484               544.3995
 Red. masses --     3.7692                 4.8958                 5.1845
 Frc consts  --     0.5095                 0.6784                 0.9053
 IR Inten    --     0.0931                 1.2454                 1.2467

                    28                     29                     30
                     A                      A                      A
 Frequencies --   572.6383               605.8279               622.6834
 Red. masses --     5.3533                 3.8052                 4.7265
 Frc consts  --     1.0343                 0.8229                 1.0798
 IR Inten    --     2.6356                 1.8010                12.9152

                    31                     32                     33
                     A                      A                      A
 Frequencies --   640.8791               646.6454               730.8447
 Red. masses --     3.0526                 4.0943                 5.4232
 Frc consts  --     0.7387                 1.0087                 1.7067
 IR Inten    --     3.4241                 0.9210                 6.5128

                    34                     35                     36
                     A                      A                      A
 Frequencies --   748.1022               761.9025               774.9146
 Red. masses --    10.1654                 4.1362                 2.2851
 Frc consts  --     3.3520                 1.4147                 0.8085
 IR Inten    --    28.4338                15.8123                11.1315

                    37                     38                     39
                     A                      A                      A
 Frequencies --   783.8182               787.3974               790.2648
 Red. masses --     1.5569                 1.2418                 1.8072
 Frc consts  --     0.5636                 0.4536                 0.6650
 IR Inten    --    35.1068                 8.1716                 6.1507

                    40                     41                     42
                     A                      A                      A
 Frequencies --   813.7777               817.6340               847.2277
 Red. masses --     1.7079                 3.3336                 2.5857
 Frc consts  --     0.6664                 1.3130                 1.0935
 IR Inten    --    14.8613                 6.5552                 9.5315

                    43                     44                     45
                     A                      A                      A
 Frequencies --   882.4740               911.4786               940.6906
 Red. masses --     1.6048                 1.3862                 2.3327
 Frc consts  --     0.7363                 0.6785                 1.2162
 IR Inten    --     0.0314                 0.4884                14.7814

                    46                     47                     48
                     A                      A                      A
 Frequencies --   960.4921               964.5308               991.1792
 Red. masses --     1.3629                 2.5869                 1.2638
 Frc consts  --     0.7408                 1.4180                 0.7315
 IR Inten    --     1.4783                28.2195                 0.0949

                    49                     50                     51
                     A                      A                      A
 Frequencies --  1012.6229              1045.8948              1056.9146
 Red. masses --     4.9016                 3.9254                 2.3616
 Frc consts  --     2.9613                 2.5299                 1.5543
 IR Inten    --    17.1727                14.2283                13.3206

                    52                     53                     54
                     A                      A                      A
 Frequencies --  1093.1862              1104.2459              1121.8053
 Red. masses --     2.8952                 1.9398                 1.8007
 Frc consts  --     2.0385                 1.3936                 1.3351
 IR Inten    --   104.0534                 1.9384                32.0187

                    55                     56                     57
                     A                      A                      A
 Frequencies --  1123.4687              1132.7197              1184.7416
 Red. masses --     1.6429                 3.1755                 1.7051
 Frc consts  --     1.2218                 2.4005                 1.4101
 IR Inten    --    41.8105               109.7509               113.3067

                    58                     59                     60
                     A                      A                      A
 Frequencies --  1186.2081              1186.5579              1191.2207
 Red. masses --     1.2724                 1.5573                 1.4990
 Frc consts  --     1.0549                 1.2918                 1.2533
 IR Inten    --     1.8234               111.0796               174.7457

                    61                     62                     63
                     A                      A                      A
 Frequencies --  1203.4991              1232.3595              1257.4512
 Red. masses --     1.7205                 1.4115                 2.5053
 Frc consts  --     1.4683                 1.2630                 2.3340
 IR Inten    --    47.8576                 7.9576               212.5647

                    64                     65                     66
                     A                      A                      A
 Frequencies --  1266.8168              1278.6987              1300.2243
 Red. masses --     2.3673                 2.2703                 2.3381
 Frc consts  --     2.2383                 2.1871                 2.3289
 IR Inten    --    87.4078                38.7432               407.3282

                    67                     68                     69
                     A                      A                      A
 Frequencies --  1317.5480              1365.0762              1381.1864
 Red. masses --     1.6581                 1.3841                 5.8904
 Frc consts  --     1.6959                 1.5196                 6.6207
 IR Inten    --    91.9028                36.7257                 8.7048

                    70                     71                     72
                     A                      A                      A
 Frequencies --  1401.8650              1418.2751              1423.8422
 Red. masses --     1.2359                 1.3668                 7.7015
 Frc consts  --     1.4310                 1.6198                 9.1992
 IR Inten    --     9.6729                86.4060                14.2143

                    73                     74                     75
                     A                      A                      A
 Frequencies --  1429.5796              1434.5799              1439.7108
 Red. masses --     1.7834                 1.2792                 1.3758
 Frc consts  --     2.1474                 1.5511                 1.6802
 IR Inten    --   209.4735                12.4353                21.4315

                    76                     77                     78
                     A                      A                      A
 Frequencies --  1457.5623              1476.7606              1497.7228
 Red. masses --     1.8730                 2.2577                 1.4690
 Frc consts  --     2.3444                 2.9010                 1.9414
 IR Inten    --   108.5473                26.1895                21.7948

                    79                     80                     81
                     A                      A                      A
 Frequencies --  1502.5640              1515.1151              1517.3789
 Red. masses --     1.0716                 1.6738                 1.0540
 Frc consts  --     1.4255                 2.2638                 1.4298
 IR Inten    --     6.2694                62.6721                 0.6733

                    82                     83                     84
                     A                      A                      A
 Frequencies --  1520.1403              1522.9054              1527.1069
 Red. masses --     1.0498                 1.2295                 1.0501
 Frc consts  --     1.4292                 1.6801                 1.4428
 IR Inten    --     7.3808                14.2589                 8.0605

                    85                     86                     87
                     A                      A                      A
 Frequencies --  1532.9203              1536.6035              1540.4259
 Red. masses --     1.0589                 1.0795                 1.0772
 Frc consts  --     1.4660                 1.5018                 1.5060
 IR Inten    --     5.9147                13.3735                 8.5136

                    88                     89                     90
                     A                      A                      A
 Frequencies --  1567.6643              1639.7516              1656.3247
 Red. masses --     3.6723                 6.7796                 5.3849
 Frc consts  --     5.3173                10.7402                 8.7039
 IR Inten    --     4.9997                38.4951                52.9912

                    91                     92                     93
                     A                      A                      A
 Frequencies --  1683.1413              1810.3965              3026.8986
 Red. masses --     6.6075                11.5183                 1.0345
 Frc consts  --    11.0289                22.2425                 5.5841
 IR Inten    --    10.6661               333.9145                64.5818

                    94                     95                     96
                     A                      A                      A
 Frequencies --  3054.5967              3057.2536              3066.3228
 Red. masses --     1.0363                 1.0366                 1.0655
 Frc consts  --     5.6969                 5.7083                 5.9023
 IR Inten    --     9.4908                36.0364                 2.5805

                    97                     98                     99
                     A                      A                      A
 Frequencies --  3075.5634              3086.2657              3113.4258
 Red. masses --     1.0639                 1.1067                 1.1025
 Frc consts  --     5.9295                 6.2108                 6.2963
 IR Inten    --    59.9903                41.0268                17.8944

                   100                    101                    102
                     A                      A                      A
 Frequencies --  3118.5180              3127.6346              3130.0103
 Red. masses --     1.1025                 1.0987                 1.0984
 Frc consts  --     6.3171                 6.3323                 6.3403
 IR Inten    --     8.6113                45.4144                15.8920

                   103                    104                    105
                     A                      A                      A
 Frequencies --  3144.6789              3149.0660              3157.6528
 Red. masses --     1.1038                 1.1045                 1.1001
 Frc consts  --     6.4313                 6.4535                 6.4625
 IR Inten    --    15.9122                51.5503                25.0152

                   106                    107                    108
                     A                      A                      A
 Frequencies --  3185.0034              3200.5278              3224.6782
 Red. masses --     1.0864                 1.0917                 1.0925
 Frc consts  --     6.4930                 6.5884                 6.6931
 IR Inten    --     6.5471                26.1080                13.6442

                   109                    110                    111
                     A                      A                      A
 Frequencies --  3227.6419              3232.1072              3242.9956
 Red. masses --     1.0881                 1.0928                 1.0936
 Frc consts  --     6.6788                 6.7263                 6.7767
 IR Inten    --    17.4241                 8.9932                 3.6720

 - Thermochemistry -
 -------------------
 Temperature   298.150 Kelvin.  Pressure   1.00000 Atm.
 Atom     1 has atomic number  6 and mass  12.00000

 Molecular mass:   273.13649 amu.
 Principal axes and moments of inertia in atomic units:
                           1         2         3
     Eigenvalues --  2930.486289690.92565**********
           X            0.99997   0.00685   0.00447
           Y           -0.00684   0.99998  -0.00136
           Z           -0.00448   0.00133   0.99999
 This molecule is an asymmetric top.
 Rotational symmetry number  1.
 Warning -- assumption of classical behavior for rotation
           may cause significant error
 Rotational temperatures (Kelvin)      0.02956     0.00894     0.00749
 Rotational constants (GHZ):           0.61585     0.18623     0.15614
 Zero-point vibrational energy     856142.5 (Joules/Mol)
                                  204.62296 (Kcal/Mol)
 Warning -- explicit consideration of  29 degrees of freedom as
           vibrations may cause significant error
 Vibrational temperatures:     24.59    42.13    49.64    86.59   108.22
          (Kelvin)            128.19   141.60   184.95   204.51   224.08
                              272.29   294.81   327.38   341.87   376.54
                              378.45   390.50   448.76   531.31   572.83
                              589.35   620.19   636.59   673.84   689.15
                              697.73   783.27   823.90   871.65   895.90
                              922.08   930.38  1051.52  1076.35  1096.21
                             1114.93  1127.74  1132.89  1137.01  1170.84
                             1176.39  1218.97  1269.68  1311.41  1353.44
                             1381.93  1387.74  1426.08  1456.94  1504.81
                             1520.66  1572.85  1588.76  1614.03  1616.42
                             1629.73  1704.58  1706.69  1707.19  1713.90
                             1731.56  1773.09  1809.19  1822.66  1839.76
                             1870.73  1895.66  1964.04  1987.22  2016.97
                             2040.58  2048.59  2056.84  2064.04  2071.42
                             2097.10  2124.73  2154.89  2161.85  2179.91
                             2183.17  2187.14  2191.12  2197.16  2205.53
                             2210.83  2216.33  2255.52  2359.23  2383.08
                             2421.66  2604.75  4355.03  4394.88  4398.70
                             4411.75  4425.04  4440.44  4479.52  4486.85
                             4499.96  4503.38  4524.49  4530.80  4543.15
                             4582.50  4604.84  4639.59  4643.85  4650.28
                             4665.94

 Zero-point correction=                           0.326087 (Hartree/Particle)
 Thermal correction to Energy=                    0.345377
 Thermal correction to Enthalpy=                  0.346321
 Thermal correction to Gibbs Free Energy=         0.276419
 Sum of electronic and zero-point Energies=           -901.264514
 Sum of electronic and thermal Energies=              -901.245225
 Sum of electronic and thermal Enthalpies=            -901.244281
 Sum of electronic and thermal Free Energies=         -901.314182

                     E (Thermal)             CV                S
                      KCal/Mol        Cal/Mol-Kelvin    Cal/Mol-Kelvin
 Total                  216.727             72.600            147.120
 Electronic               0.000              0.000              0.000
 Translational            0.889              2.981             42.713
 Rotational               0.889              2.981             34.150
 Vibrational            214.950             66.639             70.257
 Vibration     1          0.593              1.986              6.946
 Vibration     2          0.593              1.984              5.877
 Vibration     3          0.594              1.983              5.552
 Vibration     4          0.597              1.973              4.451
 Vibration     5          0.599              1.966              4.012
 Vibration     6          0.602              1.957              3.680
 Vibration     7          0.604              1.950              3.485
 Vibration     8          0.611              1.925              2.968
 Vibration     9          0.616              1.911              2.775
 Vibration    10          0.620              1.896              2.601
 Vibration    11          0.633              1.855              2.235
 Vibration    12          0.640              1.833              2.089
 Vibration    13          0.651              1.799              1.898
 Vibration    14          0.656              1.783              1.821
 Vibration    15          0.669              1.743              1.650
 Vibration    16          0.670              1.741              1.642
 Vibration    17          0.675              1.726              1.587
 Vibration    18          0.700              1.651              1.352
 Vibration    19          0.742              1.535              1.083
 Vibration    20          0.764              1.474              0.970
 Vibration    21          0.774              1.449              0.928
 Vibration    22          0.792              1.403              0.855
 Vibration    23          0.802              1.378              0.819
 Vibration    24          0.826              1.320              0.742
 Vibration    25          0.835              1.297              0.713
 Vibration    26          0.841              1.283              0.697
 Vibration    27          0.900              1.152              0.556
 Vibration    28          0.929              1.090              0.499
 Vibration    29          0.964              1.019              0.440

 Optimization completed.
    -- Stationary point found.
 Normal termination of Gaussian 09 at Wed Sep 29 23:37:32 2021.
 Gaussian 09:  AM64L-G09RevA.02 11-Jun-2009

 ----------------------------------------------------------------------
 #p TD(NStates=10, Root=1) b3lyp/6-31G* volume pop=NPA density=current
 Geom=AllCheck Guess=Read
 ----------------------------------------------------------------------

 CCN(C(=O)Oc1ccc(c2c1cccc2)OC)CC_conf_0
 --------------------------------------
 Redundant internal coordinates taken from checkpoint file:
 C16H19NO3_9273_conf_0.chk
 Charge =  0 Multiplicity = 1

                         Standard orientation:
 ---------------------------------------------------------------------
 Center     Atomic      Atomic             Coordinates (Angstroms)
 Number     Number       Type             X           Y           Z
 ---------------------------------------------------------------------
      1          6           0        3.697539    0.783625    2.124142
      2          6           0        3.514126    1.280771    0.686299
      3          7           0        3.294580    0.219303   -0.303039
      4          6           0        2.074977   -0.351392   -0.524207
      5          8           0        1.857568   -1.261560   -1.301208
      6          8           0        1.107488    0.250029    0.258962
      7          6           0       -0.213768   -0.189676    0.175901
      8          6           0       -0.559093   -1.502856    0.366727
      9          6           0       -1.918075   -1.896526    0.352242
     10          6           0       -2.913832   -0.961402    0.156287
     11          6           0       -2.582445    0.418511   -0.039358
     12          6           0       -1.205668    0.811037   -0.035282
     13          6           0       -0.885377    2.179182   -0.237913
     14          6           0       -1.877581    3.114157   -0.433818
     15          6           0       -3.236819    2.725729   -0.433725
     16          6           0       -3.580797    1.405562   -0.241168
     17          8           0       -4.249728   -1.244132    0.131600
     18          6           0       -4.652495   -2.590985    0.315015
     19          6           0        4.427832   -0.348291   -1.045012
     20          6           0        5.002991   -1.629081   -0.432923
     21          1           0        3.848604    1.634855    2.798607
     22          1           0        4.565438    0.122075    2.214242
     23          1           0        2.809526    0.238654    2.457855
     24          1           0        4.402306    1.835062    0.363748
     25          1           0        2.670875    1.973776    0.643017
     26          1           0        0.212529   -2.248476    0.513972
     27          1           0       -2.154373   -2.943633    0.498615
     28          1           0        0.157871    2.475001   -0.238618
     29          1           0       -1.614762    4.157094   -0.590309
     30          1           0       -4.011786    3.471822   -0.587381
     31          1           0       -4.620349    1.098176   -0.241723
     32          1           0       -5.742417   -2.589027    0.255098
     33          1           0       -4.342583   -2.972869    1.296838
     34          1           0       -4.245599   -3.242399   -0.469564
     35          1           0        5.196938    0.429287   -1.101605
     36          1           0        4.086575   -0.553999   -2.062912
     37          1           0        5.387533   -1.459094    0.578392
     38          1           0        5.827787   -2.002524   -1.051310
     39          1           0        4.232118   -2.403790   -0.389767
 ---------------------------------------------------------------------

 SCF Done:  E(RB3LYP) =  -901.590601563     A.U. after    1 cycles

 Excitation energies and oscillator strengths:

 Excited State   1:      Singlet-A      4.0780 eV  304.03 nm  f=0.1296  <S**2>=0.000
      73 -> 74         0.69073
 This state for optimization and/or second-order correction.
 Total Energy, E(TD-HF/TD-KS) =  -901.440738686
 Copying the excited state density for this state as the 1-particle RhoCI density.

 Excited State   2:      Singlet-A      4.3634 eV  284.15 nm  f=0.0275  <S**2>=0.000
      71 -> 74        -0.17754
      72 -> 74         0.34325
      73 -> 75         0.58844

 Excited State   3:      Singlet-A      5.2203 eV  237.50 nm  f=0.0088  <S**2>=0.000
      71 -> 74         0.61023
      72 -> 74         0.35120

 Excited State   4:      Singlet-A      5.5072 eV  225.13 nm  f=0.0121  <S**2>=0.000
      70 -> 74         0.56319
      72 -> 75        -0.15873
      73 -> 76         0.37041

 Excited State   5:      Singlet-A      5.5861 eV  221.95 nm  f=0.3887  <S**2>=0.000
      69 -> 74         0.16837
      70 -> 75         0.29730
      71 -> 74        -0.24932
      71 -> 75        -0.15173
      72 -> 74         0.40693
      73 -> 75        -0.31733

 Excited State   6:      Singlet-A      5.8130 eV  213.29 nm  f=0.0455  <S**2>=0.000
      69 -> 74         0.51056
      70 -> 74        -0.16325
      70 -> 75        -0.12823
      71 -> 75         0.25070
      72 -> 75         0.12557
      73 -> 76         0.30944

 Excited State   7:      Singlet-A      5.8588 eV  211.62 nm  f=0.0579  <S**2>=0.000
      69 -> 74        -0.15986
      70 -> 74        -0.23471
      71 -> 75        -0.39283
      72 -> 75        -0.11289
      73 -> 76         0.43321
      73 -> 77         0.21993

 Excited State   8:      Singlet-A      5.8696 eV  211.23 nm  f=0.0399  <S**2>=0.000
      69 -> 74        -0.35686
      70 -> 75         0.20771
      71 -> 75         0.38675
      72 -> 75         0.30129
      73 -> 76         0.19559
      73 -> 77         0.14592

 Excited State   9:      Singlet-A      6.2020 eV  199.91 nm  f=0.2213  <S**2>=0.000
      69 -> 75         0.14009
      70 -> 74         0.19984
      70 -> 75        -0.35169
      70 -> 76         0.10417
      71 -> 75        -0.17873
      72 -> 74         0.13529
      72 -> 75         0.39352
      72 -> 76         0.12304
      73 -> 75        -0.10068
      73 -> 77         0.20818

 Excited State  10:      Singlet-A      6.2769 eV  197.52 nm  f=0.4645  <S**2>=0.000
      69 -> 74         0.14497
      69 -> 75         0.10159
      70 -> 75         0.32000
      71 -> 75        -0.24266
      72 -> 74        -0.21518
      72 -> 75         0.37759
      72 -> 76        -0.12936
      73 -> 75         0.14948
      73 -> 77        -0.16764

 The electronic state is 1-A.
 Alpha  occ. eigenvalues --  -19.18945 -19.17880 -19.11238 -14.36163 -10.32635
 Alpha  occ. eigenvalues --  -10.24500 -10.24124 -10.23832 -10.22574 -10.22045
 Alpha  occ. eigenvalues --  -10.19598 -10.19370 -10.18637 -10.18599 -10.18486
 Alpha  occ. eigenvalues --  -10.18443 -10.18424 -10.18322 -10.18112 -10.17660
 Alpha  occ. eigenvalues --   -1.09909  -1.06465  -1.00943  -0.93618  -0.86490
 Alpha  occ. eigenvalues --   -0.81489  -0.77524  -0.76847  -0.74442  -0.73969
 Alpha  occ. eigenvalues --   -0.72099  -0.69730  -0.65500  -0.63803  -0.62028
 Alpha  occ. eigenvalues --   -0.61523  -0.59336  -0.55045  -0.53166  -0.52383
 Alpha  occ. eigenvalues --   -0.51042  -0.49913  -0.48363  -0.46878  -0.46552
 Alpha  occ. eigenvalues --   -0.45728  -0.45254  -0.44119  -0.43341  -0.42954
 Alpha  occ. eigenvalues --   -0.42604  -0.41744  -0.41226  -0.40505  -0.40055
 Alpha  occ. eigenvalues --   -0.39365  -0.38536  -0.38365  -0.37096  -0.36476
 Alpha  occ. eigenvalues --   -0.36078  -0.35305  -0.34370  -0.33962  -0.33719
 Alpha  occ. eigenvalues --   -0.32631  -0.31566  -0.29156  -0.26807  -0.25464
 Alpha  occ. eigenvalues --   -0.23939  -0.23855  -0.19297
 Alpha virt. eigenvalues --   -0.02706  -0.00418   0.04275   0.05956   0.08483
 Alpha virt. eigenvalues --    0.09610   0.09815   0.10845   0.10929   0.11396
 Alpha virt. eigenvalues --    0.12126   0.13032   0.13674   0.14324   0.15313

 Mulliken atomic charges:
              1
     1  C   -0.445745
     2  C   -0.142521
     3  N   -0.445205
     4  C    0.793380
     5  O   -0.513488
     6  O   -0.546917
     7  C    0.304350
     8  C   -0.146289
     9  C   -0.203402
    10  C    0.327591
    11  C    0.070493
    12  C    0.106046
    13  C   -0.244156
    14  C   -0.136478
    15  C   -0.131742
    16  C   -0.232232
    17  O   -0.463951
    18  C   -0.228784
    19  C   -0.135494
    20  C   -0.448602
    21  H    0.150543
    22  H    0.151622
    23  H    0.165340
    24  H    0.147888
    25  H    0.186197
    26  H    0.155848
    27  H    0.143771
    28  H    0.110829
    29  H    0.108086
    30  H    0.111331
    31  H    0.119116
    32  H    0.182776
    33  H    0.166153
    34  H    0.168906
    35  H    0.143074
    36  H    0.181394
    37  H    0.147183
    38  H    0.148277
    39  H    0.174809
 Sum of Mulliken atomic charges =  -0.00000

 Dipole moment (field-independent basis, Debye):
    X=              1.6854    Y=             -2.8906    Z=              2.0725  Tot=              3.9359
 Quadrupole moment (field-independent basis, Debye-Ang):
   XX=            -92.5118   YY=           -109.6160   ZZ=           -121.9991
   XY=             19.1114   XZ=              0.0043   YZ=             -3.7930

 Summary of Natural Population Analysis:

                                       Natural Population
                Natural  -----------------------------------------------
    Atom  No    Charge         Core      Valence    Rydberg      Total
 -----------------------------------------------------------------------
      C    1   -0.68668      1.99945     4.67990    0.00733     6.68668
      C    2   -0.25876      1.99934     4.24415    0.01527     6.25876
      N    3   -0.49385      1.99930     5.48135    0.01321     7.49385
      C    4    0.93879      1.99937     3.01614    0.04571     5.06121
      O    5   -0.64146      1.99978     6.62251    0.01917     8.64146
      O    6   -0.53856      1.99969     6.52858    0.01029     8.53856
      C    7    0.37642      1.99862     3.60252    0.02243     5.62358
      C    8   -0.25297      1.99901     4.23854    0.01542     6.25297
      C    9   -0.29115      1.99904     4.27886    0.01325     6.29115
      C   10    0.36897      1.99873     3.61008    0.02222     5.63103
      C   11   -0.06978      1.99899     4.05542    0.01537     6.06978
      C   12   -0.07900      1.99896     4.06485    0.01519     6.07900
      C   13   -0.31239      1.99907     4.29566    0.01766     6.31239
      C   14   -0.24189      1.99911     4.22705    0.01574     6.24189
      C   15   -0.22485      1.99910     4.21022    0.01553     6.22485
      C   16   -0.31400      1.99907     4.29686    0.01807     6.31400
      O   17   -0.46068      1.99974     6.44893    0.01200     8.46068
      C   18   -0.32339      1.99943     4.30968    0.01429     6.32339
      C   19   -0.25319      1.99935     4.23825    0.01560     6.25319
      C   20   -0.68770      1.99945     4.68094    0.00731     6.68770
      H   21    0.23695      0.00000     0.76212    0.00093     0.76305
      H   22    0.22559      0.00000     0.77341    0.00100     0.77441
      H   23    0.23811      0.00000     0.76064    0.00125     0.76189
      H   24    0.23213      0.00000     0.76641    0.00146     0.76787
      H   25    0.25293      0.00000     0.74553    0.00154     0.74707
      H   26    0.25732      0.00000     0.74157    0.00110     0.74268
      H   27    0.24134      0.00000     0.75779    0.00087     0.75866
      H   28    0.22647      0.00000     0.77244    0.00109     0.77353
      H   29    0.22639      0.00000     0.77278    0.00083     0.77361
      H   30    0.22720      0.00000     0.77195    0.00085     0.77280
      H   31    0.23530      0.00000     0.76365    0.00105     0.76470
      H   32    0.23548      0.00000     0.76401    0.00051     0.76452
      H   33    0.21175      0.00000     0.78647    0.00178     0.78825
      H   34    0.21319      0.00000     0.78505    0.00176     0.78681
      H   35    0.22860      0.00000     0.77010    0.00130     0.77140
      H   36    0.25528      0.00000     0.74271    0.00201     0.74472
      H   37    0.22273      0.00000     0.77626    0.00101     0.77727
      H   38    0.23576      0.00000     0.76335    0.00089     0.76424
      H   39    0.24362      0.00000     0.75507    0.00131     0.75638
 =======================================================================
   * Total *   -0.00000     39.98459   105.66182    0.35360   146.00000

 Normal termination of Gaussian 09 at Thu Sep 30 07:04:55 2021.
