 Gaussian 09, Revision A.02,

 -----------------------------------
 #p opt b3lyp/6-31G* scf=(xqc,tight)
 -----------------------------------

 -----------------------------------
 COc1ccc2c(c1)ccc(c2)N1CCCCC1_conf_0
 -----------------------------------
 Symbolic Z-matrix:
 Charge =  0 Multiplicity = 1

 SCF Done:  E(RB3LYP) =  -751.110080065     A.U. after   14 cycles
 SCF Done:  E(RB3LYP) =  -751.116671710     A.U. after   12 cycles
 SCF Done:  E(RB3LYP) =  -751.117102793     A.U. after   11 cycles
 SCF Done:  E(RB3LYP) =  -751.117202180     A.U. after   11 cycles
 SCF Done:  E(RB3LYP) =  -751.117237701     A.U. after   10 cycles
 SCF Done:  E(RB3LYP) =  -751.117244799     A.U. after    9 cycles
 SCF Done:  E(RB3LYP) =  -751.117249328     A.U. after   10 cycles
 SCF Done:  E(RB3LYP) =  -751.117251905     A.U. after    9 cycles
 SCF Done:  E(RB3LYP) =  -751.117252942     A.U. after    9 cycles
 SCF Done:  E(RB3LYP) =  -751.117253220     A.U. after    9 cycles
 SCF Done:  E(RB3LYP) =  -751.117253236     A.U. after    9 cycles
 SCF Done:  E(RB3LYP) =  -751.117253231     A.U. after    7 cycles
 SCF Done:  E(RB3LYP) =  -751.117253222     A.U. after    7 cycles
 SCF Done:  E(RB3LYP) =  -751.117253211     A.U. after    7 cycles
 Optimization completed.
    -- Stationary point found.
 Normal termination of Gaussian 09 at Tue Sep 28 14:48:32 2021.

 ----------------------------------------------------------------------
 #p freq b3lyp/6-31G* volume NMR pop=NPA density=current Geom=AllCheck
 Guess=Read
 ----------------------------------------------------------------------

 COc1ccc2c(c1)ccc(c2)N1CCCCC1_conf_0
 -----------------------------------
 Redundant internal coordinates taken from checkpoint file:
 C16H19NO_f5e7_conf_0.chk
 Charge =  0 Multiplicity = 1

 SCF Done:  E(RB3LYP) =  -751.117253211     A.U. after    1 cycles

  1  C    Isotropic =   137.4745   Anisotropy =    64.8766

  2  O    Isotropic =   245.7208   Anisotropy =    63.5375

  3  C    Isotropic =    43.6351   Anisotropy =   117.6896

  4  C    Isotropic =    84.2996   Anisotropy =   144.6179

  5  C    Isotropic =    68.5297   Anisotropy =   137.6001

  6  C    Isotropic =    66.3378   Anisotropy =   188.8885

  7  C    Isotropic =    68.4728   Anisotropy =   185.6933

  8  C    Isotropic =    82.4874   Anisotropy =   112.7416

  9  C    Isotropic =    67.6273   Anisotropy =   139.9342

 10  C    Isotropic =    78.9753   Anisotropy =   143.5600

 11  C    Isotropic =    52.4429   Anisotropy =   139.5772

 12  C    Isotropic =    83.9082   Anisotropy =   118.2984

 13  N    Isotropic =   189.4153   Anisotropy =    44.7980

 14  C    Isotropic =   142.2382   Anisotropy =    29.1716

 15  C    Isotropic =   164.8127   Anisotropy =    12.7103

 16  C    Isotropic =   162.4196   Anisotropy =     2.4415

 17  C    Isotropic =   163.7623   Anisotropy =    10.6985

 18  C    Isotropic =   137.6631   Anisotropy =    37.3833

 19  H    Isotropic =    28.2923   Anisotropy =     8.3941

 20  H    Isotropic =    28.5632   Anisotropy =     8.3632

 21  H    Isotropic =    28.5644   Anisotropy =     8.3120

 22  H    Isotropic =    25.4662   Anisotropy =     7.9519

 23  H    Isotropic =    24.9152   Anisotropy =     8.0300

 24  H    Isotropic =    25.3877   Anisotropy =     7.9550

 25  H    Isotropic =    24.8606   Anisotropy =     7.6495

 26  H    Isotropic =    25.2986   Anisotropy =    10.2024

 27  H    Isotropic =    25.5141   Anisotropy =    11.4233

 28  H    Isotropic =    29.0091   Anisotropy =     7.8693

 29  H    Isotropic =    28.5481   Anisotropy =     5.6063

 30  H    Isotropic =    30.8964   Anisotropy =     9.7253

 31  H    Isotropic =    30.2422   Anisotropy =     6.3482

 32  H    Isotropic =    30.4585   Anisotropy =     8.0370

 33  H    Isotropic =    30.3502   Anisotropy =     9.6394

 34  H    Isotropic =    30.9825   Anisotropy =     9.7715

 35  H    Isotropic =    30.5201   Anisotropy =     4.5655

 36  H    Isotropic =    29.0543   Anisotropy =     7.5095

 37  H    Isotropic =    28.2438   Anisotropy =     7.4159

  Exact polarizability: 311.571 -10.451 168.402  11.936   7.832  97.556
 Approx polarizability: 429.414 -18.528 295.407  31.843  21.507 149.655

                     1                      2                      3
                     A                      A                      A
 Frequencies --    17.3399                45.4234                58.1493
 Red. masses --     3.5792                 3.8128                 3.4828
 Frc consts  --     0.0006                 0.0046                 0.0069
 IR Inten    --     0.3695                 1.2291                 2.2538

                     4                      5                      6
                     A                      A                      A
 Frequencies --    89.5133               119.0482               177.9860
 Red. masses --     4.1215                 3.6391                 3.0996
 Frc consts  --     0.0195                 0.0304                 0.0579
 IR Inten    --     2.1837                 0.5821                 2.1159

                     7                      8                      9
                     A                      A                      A
 Frequencies --   190.0473               198.9891               245.0375
 Red. masses --     2.8715                 3.6348                 2.1591
 Frc consts  --     0.0611                 0.0848                 0.0764
 IR Inten    --     1.2038                 0.3521                 0.9543

                    10                     11                     12
                     A                      A                      A
 Frequencies --   261.4983               269.0642               305.4306
 Red. masses --     1.5133                 2.5308                 3.2456
 Frc consts  --     0.0610                 0.1079                 0.1784
 IR Inten    --     0.9364                 0.6391                 6.0015

                    13                     14                     15
                     A                      A                      A
 Frequencies --   354.6610               403.1742               412.0892
 Red. masses --     3.2361                 3.4624                 3.4403
 Frc consts  --     0.2398                 0.3316                 0.3442
 IR Inten    --     0.3096                 0.2849                 0.7328

                    16                     17                     18
                     A                      A                      A
 Frequencies --   414.2998               430.8800               452.8244
 Red. masses --     3.3268                 3.4864                 2.4127
 Frc consts  --     0.3364                 0.3814                 0.2915
 IR Inten    --     4.5508                 3.5687                 6.4363

                    19                     20                     21
                     A                      A                      A
 Frequencies --   478.4644               507.4608               520.4130
 Red. masses --     2.6335                 3.1965                 3.2268
 Frc consts  --     0.3552                 0.4850                 0.5149
 IR Inten    --     6.1031                 0.0094                 3.4956

                    22                     23                     24
                     A                      A                      A
 Frequencies --   540.3175               558.4771               584.7129
 Red. masses --     6.4667                 2.0231                 2.9271
 Frc consts  --     1.1123                 0.3718                 0.5896
 IR Inten    --     0.3955                18.0525                 6.0761

                    25                     26                     27
                     A                      A                      A
 Frequencies --   596.8524               673.3318               680.2240
 Red. masses --     3.4018                 3.8869                 5.4563
 Frc consts  --     0.7140                 1.0383                 1.4875
 IR Inten    --     9.0528                 1.3889                 3.3077

                    28                     29                     30
                     A                      A                      A
 Frequencies --   749.2183               755.9270               805.1218
 Red. masses --     5.7320                 3.2194                 1.6954
 Frc consts  --     1.8957                 1.0839                 0.6475
 IR Inten    --     7.2367                 0.2842                10.1612

                    31                     32                     33
                     A                      A                      A
 Frequencies --   809.1337               817.0201               823.6049
 Red. masses --     2.2573                 1.6513                 1.5820
 Frc consts  --     0.8707                 0.6495                 0.6323
 IR Inten    --     8.1059                 4.8316                 0.7401

                    34                     35                     36
                     A                      A                      A
 Frequencies --   838.7351               864.0318               867.9337
 Red. masses --     3.0792                 1.5012                 1.6412
 Frc consts  --     1.2763                 0.6603                 0.7284
 IR Inten    --     3.5589                18.0765                 7.4361

                    37                     38                     39
                     A                      A                      A
 Frequencies --   882.8355               890.0047               905.0742
 Red. masses --     1.5335                 2.4489                 3.7238
 Frc consts  --     0.7042                 1.1429                 1.7973
 IR Inten    --    33.6644                 5.4359                 5.1153

                    40                     41                     42
                     A                      A                      A
 Frequencies --   942.9328               952.8491               962.9117
 Red. masses --     1.2938                 1.2912                 3.4894
 Frc consts  --     0.6778                 0.6907                 1.9062
 IR Inten    --     0.5131                 1.8931                22.5514

                    43                     44                     45
                     A                      A                      A
 Frequencies --   974.7439               979.7373              1025.2221
 Red. masses --     1.4103                 2.6793                 2.1243
 Frc consts  --     0.7895                 1.5153                 1.3155
 IR Inten    --     3.6651                 8.2422                 6.0371

                    46                     47                     48
                     A                      A                      A
 Frequencies --  1046.2408              1075.2450              1083.3816
 Red. masses --     2.3562                 1.7066                 3.4176
 Frc consts  --     1.5196                 1.1625                 2.3634
 IR Inten    --    67.4337                 0.7764                44.3268

                    49                     50                     51
                     A                      A                      A
 Frequencies --  1143.8604              1160.7028              1180.9030
 Red. masses --     2.3212                 1.9456                 1.7171
 Frc consts  --     1.7894                 1.5444                 1.4108
 IR Inten    --    13.3191                66.1401                43.4313

                    52                     53                     54
                     A                      A                      A
 Frequencies --  1184.6594              1191.0915              1196.4566
 Red. masses --     1.2704                 1.3052                 1.5286
 Frc consts  --     1.0505                 1.0910                 1.2892
 IR Inten    --     0.9943                 0.0872                62.6085

                    55                     56                     57
                     A                      A                      A
 Frequencies --  1205.1505              1214.5331              1239.2386
 Red. masses --     1.3874                 1.4861                 1.6594
 Frc consts  --     1.1872                 1.2916                 1.5014
 IR Inten    --    38.3161                 9.6112                38.6697

                    58                     59                     60
                     A                      A                      A
 Frequencies --  1249.7309              1279.8921              1294.9124
 Red. masses --     1.8735                 2.0213                 1.2701
 Frc consts  --     1.7240                 1.9509                 1.2548
 IR Inten    --    31.7105               189.5854                16.1000

                    61                     62                     63
                     A                      A                      A
 Frequencies --  1302.0546              1313.7148              1324.3544
 Red. masses --     1.6556                 2.6879                 1.1858
 Frc consts  --     1.6537                 2.7332                 1.2254
 IR Inten    --    17.9028               285.1117                23.3462

                    64                     65                     66
                     A                      A                      A
 Frequencies --  1370.2026              1382.7861              1392.4624
 Red. masses --     1.3112                 2.4531                 1.5529
 Frc consts  --     1.4504                 2.7636                 1.7740
 IR Inten    --     0.7933                 8.8659                11.6445

                    67                     68                     69
                     A                      A                      A
 Frequencies --  1394.3833              1403.2675              1409.5953
 Red. masses --     1.3595                 1.5422                 2.1475
 Frc consts  --     1.5573                 1.7892                 2.5141
 IR Inten    --     4.0414                11.2222                 7.9106

                    70                     71                     72
                     A                      A                      A
 Frequencies --  1416.8899              1423.2409              1440.8890
 Red. masses --     2.4896                 1.7187                 2.0328
 Frc consts  --     2.9448                 2.0512                 2.4866
 IR Inten    --    22.6408                13.9156               204.6707

                    73                     74                     75
                     A                      A                      A
 Frequencies --  1466.7177              1502.0550              1506.8321
 Red. masses --     4.5435                 1.2329                 1.0960
 Frc consts  --     5.7588                 1.6388                 1.4662
 IR Inten    --     6.3356                 1.8754                 0.4020

                    76                     77                     78
                     A                      A                      A
 Frequencies --  1513.6910              1514.1565              1521.7050
 Red. masses --     1.0892                 1.0944                 1.0486
 Frc consts  --     1.4704                 1.4783                 1.4306
 IR Inten    --     7.6035                 4.7098                 4.6793

                    79                     80                     81
                     A                      A                      A
 Frequencies --  1522.8471              1534.6673              1535.9928
 Red. masses --     1.0984                 1.1368                 1.0815
 Frc consts  --     1.5008                 1.5775                 1.5033
 IR Inten    --     6.1023                35.8807                 6.1312

                    82                     83                     84
                     A                      A                      A
 Frequencies --  1545.8010              1555.0969              1613.3009
 Red. masses --     2.1767                 3.4465                 6.5848
 Frc consts  --     3.0645                 4.9107                10.0978
 IR Inten    --    25.7597               109.0215                22.9533

                    85                     86                     87
                     A                      A                      A
 Frequencies --  1662.9766              1691.0284              3010.0261
 Red. masses --     5.5945                 6.2873                 1.0739
 Frc consts  --     9.1156                10.5930                 5.7328
 IR Inten    --   332.1113                 3.1992                37.4474

                    88                     89                     90
                     A                      A                      A
 Frequencies --  3018.7982              3019.2072              3021.9175
 Red. masses --     1.0659                 1.0406                 1.0713
 Frc consts  --     5.7229                 5.5890                 5.7641
 IR Inten    --    31.1185                80.7045                85.5371

                    91                     92                     93
                     A                      A                      A
 Frequencies --  3037.4510              3037.8246              3073.5826
 Red. masses --     1.0592                 1.0611                 1.0940
 Frc consts  --     5.7578                 5.7693                 6.0894
 IR Inten    --    32.9392                15.8239                80.2339

                    94                     95                     96
                     A                      A                      A
 Frequencies --  3075.6117              3077.8635              3084.9601
 Red. masses --     1.1065                 1.1045                 1.1042
 Frc consts  --     6.1671                 6.1650                 6.1917
 IR Inten    --    49.2524                32.3470               102.2660

                    97                     98                     99
                     A                      A                      A
 Frequencies --  3121.7605              3147.9673              3150.8611
 Red. masses --     1.0911                 1.0909                 1.0989
 Frc consts  --     6.2649                 6.3694                 6.4280
 IR Inten    --    23.5280                16.3555                34.8699

                   100                    101                    102
                     A                      A                      A
 Frequencies --  3178.8908              3179.1778              3195.0397
 Red. masses --     1.0889                 1.0887                 1.0885
 Frc consts  --     6.4831                 6.4832                 6.5466
 IR Inten    --    14.2093                 8.4364                24.4247

                   103                    104                    105
                     A                      A                      A
 Frequencies --  3200.6079              3221.8558              3222.5236
 Red. masses --     1.0903                 1.0908                 1.0913
 Frc consts  --     6.5807                 6.6714                 6.6770
 IR Inten    --     9.5256                32.5054                 7.4796

 - Thermochemistry -
 -------------------
 Temperature   298.150 Kelvin.  Pressure   1.00000 Atm.
 Atom     1 has atomic number  6 and mass  12.00000

 Molecular mass:   241.14666 amu.
 Principal axes and moments of inertia in atomic units:
                           1         2         3
     Eigenvalues --  1285.01946********************
           X            0.99999  -0.00469  -0.00249
           Y            0.00469   0.99999  -0.00096
           Z            0.00250   0.00095   1.00000
 This molecule is an asymmetric top.
 Rotational symmetry number  1.
 Warning -- assumption of classical behavior for rotation
           may cause significant error
 Rotational temperatures (Kelvin)      0.06740     0.00835     0.00782
 Rotational constants (GHZ):           1.40445     0.17399     0.16303
 Zero-point vibrational energy     840468.6 (Joules/Mol)
                                  200.87682 (Kcal/Mol)
 Warning -- explicit consideration of  25 degrees of freedom as
           vibrations may cause significant error
 Vibrational temperatures:     24.95    65.35    83.66   128.79   171.28
          (Kelvin)            256.08   273.44   286.30   352.55   376.24
                              387.12   439.45   510.28   580.08   592.90
                              596.08   619.94   651.51   688.40   730.12
                              748.76   777.40   803.52   841.27   858.74
                              968.77   978.69  1077.96  1087.61  1158.39
                             1164.16  1175.51  1184.98  1206.75  1243.15
                             1248.76  1270.20  1280.52  1302.20  1356.67
                             1370.94  1385.41  1402.44  1409.62  1475.06
                             1505.31  1547.04  1558.74  1645.76  1669.99
                             1699.05  1704.46  1713.71  1721.43  1733.94
                             1747.44  1782.99  1798.08  1841.48  1863.09
                             1873.36  1890.14  1905.45  1971.41  1989.52
                             2003.44  2006.20  2018.99  2028.09  2038.59
                             2047.72  2073.12  2110.28  2161.12  2167.99
                             2177.86  2178.53  2189.39  2191.03  2208.04
                             2209.95  2224.06  2237.43  2321.18  2392.65
                             2433.01  4330.75  4343.37  4343.96  4347.86
                             4370.21  4370.75  4422.19  4425.11  4428.35
                             4438.56  4491.51  4529.22  4533.38  4573.71
                             4574.12  4596.94  4604.96  4635.53  4636.49

 Zero-point correction=                           0.320118 (Hartree/Particle)
 Thermal correction to Energy=                    0.335489
 Thermal correction to Enthalpy=                  0.336434
 Thermal correction to Gibbs Free Energy=         0.276475
 Sum of electronic and zero-point Energies=           -750.797136
 Sum of electronic and thermal Energies=              -750.781764
 Sum of electronic and thermal Enthalpies=            -750.780820
 Sum of electronic and thermal Free Energies=         -750.840778

                     E (Thermal)             CV                S
                      KCal/Mol        Cal/Mol-Kelvin    Cal/Mol-Kelvin
 Total                  210.523             62.033            126.193
 Electronic               0.000              0.000              0.000
 Translational            0.889              2.981             42.342
 Rotational               0.889              2.981             33.356
 Vibrational            208.745             56.071             50.495
 Vibration     1          0.593              1.986              6.918
 Vibration     2          0.595              1.979              5.007
 Vibration     3          0.596              1.974              4.519
 Vibration     4          0.602              1.957              3.671
 Vibration     5          0.609              1.933              3.116
 Vibration     6          0.628              1.869              2.349
 Vibration     7          0.633              1.854              2.227
 Vibration     8          0.637              1.841              2.142
 Vibration     9          0.660              1.771              1.766
 Vibration    10          0.669              1.743              1.652
 Vibration    11          0.673              1.730              1.602
 Vibration    12          0.696              1.663              1.387
 Vibration    13          0.731              1.566              1.145
 Vibration    14          0.769              1.463              0.951
 Vibration    15          0.776              1.444              0.919
 Vibration    16          0.778              1.439              0.912
 Vibration    17          0.792              1.403              0.856
 Vibration    18          0.811              1.355              0.787
 Vibration    19          0.835              1.298              0.714
 Vibration    20          0.863              1.233              0.640
 Vibration    21          0.875              1.205              0.609
 Vibration    22          0.895              1.161              0.565
 Vibration    23          0.914              1.121              0.527
 Vibration    24          0.942              1.064              0.477
 Vibration    25          0.955              1.038              0.455

 Optimization completed.
    -- Stationary point found.
 Normal termination of Gaussian 09 at Tue Sep 28 15:05:49 2021.
 Gaussian 09:  AM64L-G09RevA.02 11-Jun-2009

 ----------------------------------------------------------------------
 #p TD(NStates=10, Root=1) b3lyp/6-31G* volume pop=NPA density=current
 Geom=AllCheck Guess=Read
 ----------------------------------------------------------------------

 COc1ccc2c(c1)ccc(c2)N1CCCCC1_conf_0
 -----------------------------------
 Redundant internal coordinates taken from checkpoint file:
 C16H19NO_f5e7_conf_0.chk
 Charge =  0 Multiplicity = 1

                         Standard orientation:
 ---------------------------------------------------------------------
 Center     Atomic      Atomic             Coordinates (Angstroms)
 Number     Number       Type             X           Y           Z
 ---------------------------------------------------------------------
      1          6           0        6.115972   -0.369003    0.355769
      2          8           0        5.076123    0.591687    0.393759
      3          6           0        3.791382    0.175485    0.156739
      4          6           0        3.436278   -1.170553   -0.121151
      5          6           0        2.117961   -1.506176   -0.345316
      6          6           0        1.084599   -0.533847   -0.307314
      7          6           0        1.454758    0.822841   -0.032232
      8          6           0        2.810869    1.149101    0.198303
      9          6           0        0.415229    1.789678   -0.004606
     10          6           0       -0.896658    1.444609   -0.223391
     11          6           0       -1.282208    0.094599   -0.506389
     12          6           0       -0.272333   -0.861125   -0.547644
     13          7           0       -2.619894   -0.246053   -0.771938
     14          6           0       -3.643724    0.782605   -0.938545
     15          6           0       -4.374561    1.119996    0.372826
     16          6           0       -4.965196   -0.158917    0.989776
     17          6           0       -3.896792   -1.257183    1.110044
     18          6           0       -3.185959   -1.487520   -0.236533
     19          1           0        7.036681    0.178664    0.567512
     20          1           0        6.199543   -0.842740   -0.631990
     21          1           0        5.980097   -1.149773    1.116773
     22          1           0        4.195904   -1.943427   -0.157871
     23          1           0        1.857936   -2.540978   -0.556766
     24          1           0        3.098269    2.175199    0.410126
     25          1           0        0.667363    2.825511    0.211300
     26          1           0       -1.652236    2.219199   -0.157734
     27          1           0       -0.504875   -1.891647   -0.799029
     28          1           0       -4.378469    0.394023   -1.660574
     29          1           0       -3.200503    1.668185   -1.399595
     30          1           0       -5.165587    1.856828    0.180401
     31          1           0       -3.668447    1.579169    1.077608
     32          1           0       -5.782624   -0.521428    0.348186
     33          1           0       -5.409061    0.054907    1.969819
     34          1           0       -4.347992   -2.197050    1.454753
     35          1           0       -3.145963   -0.966479    1.857312
     36          1           0       -3.906012   -1.879789   -0.970338
     37          1           0       -2.401454   -2.237029   -0.128425
 ---------------------------------------------------------------------

 SCF Done:  E(RB3LYP) =  -751.117253211     A.U. after    1 cycles

 Excitation energies and oscillator strengths:

 Excited State   1:      Singlet-A      3.4116 eV  363.42 nm  f=0.0707  <S**2>=0.000
      64 -> 67        -0.10605
      65 -> 66         0.68839
 This state for optimization and/or second-order correction.
 Total Energy, E(TD-HF/TD-KS) =  -750.991880936
 Copying the excited state density for this state as the 1-particle RhoCI density.

 Excited State   2:      Singlet-A      4.3840 eV  282.81 nm  f=0.0725  <S**2>=0.000
      63 -> 66        -0.13119
      64 -> 66         0.43793
      65 -> 66         0.10877
      65 -> 67         0.52250

 Excited State   3:      Singlet-A      4.7884 eV  258.93 nm  f=0.1040  <S**2>=0.000
      63 -> 66         0.53412
      64 -> 66         0.38523
      64 -> 67        -0.11682
      65 -> 67        -0.17839
      65 -> 68        -0.10841

 Excited State   4:      Singlet-A      5.1424 eV  241.10 nm  f=0.1420  <S**2>=0.000
      62 -> 66         0.13158
      64 -> 66         0.14473
      65 -> 67        -0.15137
      65 -> 68         0.65065

 Excited State   5:      Singlet-A      5.2304 eV  237.04 nm  f=0.9016  <S**2>=0.000
      63 -> 66         0.34019
      63 -> 67        -0.10593
      64 -> 66        -0.32624
      64 -> 67        -0.28359
      65 -> 67         0.37837
      65 -> 68         0.16100

 Excited State   6:      Singlet-A      5.9047 eV  209.97 nm  f=0.2833  <S**2>=0.000
      61 -> 66         0.12767
      62 -> 66        -0.34039
      63 -> 66         0.21068
      64 -> 66        -0.10020
      64 -> 67         0.50138
      64 -> 68        -0.16191
      65 -> 68         0.11983

 Excited State   7:      Singlet-A      6.1073 eV  203.01 nm  f=0.2384  <S**2>=0.000
      62 -> 66         0.34556
      63 -> 66         0.15823
      63 -> 67         0.26906
      63 -> 68        -0.10985
      64 -> 67         0.27398
      64 -> 68         0.41481

 Excited State   8:      Singlet-A      6.1835 eV  200.51 nm  f=0.0088  <S**2>=0.000
      65 -> 69         0.68179

 Excited State   9:      Singlet-A      6.2911 eV  197.08 nm  f=0.0426  <S**2>=0.000
      61 -> 66        -0.19389
      62 -> 66        -0.25175
      63 -> 67         0.58881
      64 -> 67        -0.12056

 Excited State  10:      Singlet-A      6.5524 eV  189.22 nm  f=0.0947  <S**2>=0.000
      60 -> 66        -0.11118
      61 -> 66         0.32149
      62 -> 66        -0.27108
      63 -> 68         0.25622
      64 -> 67        -0.12718
      64 -> 68         0.38573
      65 -> 70         0.21769

 The electronic state is 1-A.
 Alpha  occ. eigenvalues --  -19.16726 -14.33708 -10.23510 -10.23494 -10.21858
 Alpha  occ. eigenvalues --  -10.21260 -10.21250 -10.18405 -10.18308 -10.18287
 Alpha  occ. eigenvalues --  -10.18272 -10.18230 -10.18186 -10.18151 -10.18025
 Alpha  occ. eigenvalues --  -10.17957 -10.17149 -10.16993  -1.05242  -0.93763
 Alpha  occ. eigenvalues --   -0.85648  -0.81120  -0.78599  -0.76239  -0.75455
 Alpha  occ. eigenvalues --   -0.73100  -0.71852  -0.68456  -0.64381  -0.63221
 Alpha  occ. eigenvalues --   -0.61249  -0.58925  -0.58438  -0.55804  -0.52161
 Alpha  occ. eigenvalues --   -0.51616  -0.50282  -0.47178  -0.46427  -0.46028
 Alpha  occ. eigenvalues --   -0.45171  -0.44950  -0.44269  -0.43283  -0.42155
 Alpha  occ. eigenvalues --   -0.41285  -0.40644  -0.40250  -0.39243  -0.38399
 Alpha  occ. eigenvalues --   -0.37861  -0.37518  -0.35374  -0.34830  -0.34766
 Alpha  occ. eigenvalues --   -0.33815  -0.33392  -0.32585  -0.31863  -0.30997
 Alpha  occ. eigenvalues --   -0.29634  -0.27516  -0.23069  -0.21411  -0.16829
 Alpha virt. eigenvalues --   -0.02592   0.01721   0.04495   0.08592   0.10002
 Alpha virt. eigenvalues --    0.10683   0.11269   0.11749   0.12002   0.12444
 Alpha virt. eigenvalues --    0.13805   0.14518   0.15245   0.15422   0.15882

 Mulliken atomic charges:
              1
     1  C   -0.209972
     2  O   -0.497823
     3  C    0.386161
     4  C   -0.221326
     5  C   -0.236253
     6  C    0.153868
     7  C    0.162640
     8  C   -0.292437
     9  C   -0.235578
    10  C   -0.218090
    11  C    0.337740
    12  C   -0.275943
    13  N   -0.423128
    14  C   -0.157368
    15  C   -0.270187
    16  C   -0.268867
    17  C   -0.266207
    18  C   -0.165469
    19  H    0.163067
    20  H    0.153550
    21  H    0.152987
    22  H    0.106138
    23  H    0.101815
    24  H    0.116046
    25  H    0.111023
    26  H    0.100709
    27  H    0.120869
    28  H    0.154958
    29  H    0.179961
    30  H    0.148188
    31  H    0.164018
    32  H    0.134439
    33  H    0.149649
    34  H    0.149056
    35  H    0.163619
    36  H    0.151849
    37  H    0.176297
 Sum of Mulliken atomic charges =  -0.00000

 Dipole moment (field-independent basis, Debye):
    X=             -5.0724    Y=             -1.7423    Z=              0.1916  Tot=              5.3667
 Quadrupole moment (field-independent basis, Debye-Ang):
   XX=            -78.5776   YY=           -102.3772   ZZ=           -110.1110
   XY=             -4.0602   XZ=              1.1299   YZ=              0.1217

 Summary of Natural Population Analysis:

                                       Natural Population
                Natural  -----------------------------------------------
    Atom  No    Charge         Core      Valence    Rydberg      Total
 -----------------------------------------------------------------------
      C    1   -0.31586      1.99943     4.30250    0.01393     6.31586
      O    2   -0.49877      1.99975     6.48744    0.01158     8.49877
      C    3    0.35356      1.99877     3.62514    0.02253     5.64644
      C    4   -0.37495      1.99903     4.36146    0.01446     6.37495
      C    5   -0.24452      1.99908     4.22962    0.01582     6.24452
      C    6   -0.06256      1.99902     4.04830    0.01524     6.06256
      C    7   -0.03454      1.99902     4.02043    0.01509     6.03454
      C    8   -0.31670      1.99899     4.30191    0.01580     6.31670
      C    9   -0.24283      1.99906     4.22771    0.01606     6.24283
      C   10   -0.35252      1.99907     4.33843    0.01502     6.35252
      C   11    0.16459      1.99898     3.81682    0.01962     5.83541
      C   12   -0.24314      1.99901     4.23003    0.01410     6.24314
      N   13   -0.31589      1.99935     5.30405    0.01249     7.31589
      C   14   -0.27290      1.99932     4.25628    0.01729     6.27290
      C   15   -0.47221      1.99931     4.46186    0.01103     6.47221
      C   16   -0.46606      1.99933     4.45488    0.01185     6.46606
      C   17   -0.47165      1.99931     4.46097    0.01136     6.47165
      C   18   -0.26298      1.99930     4.24706    0.01661     6.26298
      H   19    0.22395      0.00000     0.77547    0.00058     0.77605
      H   20    0.20463      0.00000     0.79317    0.00220     0.79537
      H   21    0.20428      0.00000     0.79352    0.00220     0.79572
      H   22    0.22676      0.00000     0.77238    0.00086     0.77324
      H   23    0.22071      0.00000     0.77816    0.00113     0.77929
      H   24    0.23498      0.00000     0.76351    0.00151     0.76502
      H   25    0.22739      0.00000     0.77152    0.00109     0.77261
      H   26    0.21859      0.00000     0.78044    0.00096     0.78141
      H   27    0.22178      0.00000     0.77688    0.00134     0.77822
      H   28    0.23900      0.00000     0.75920    0.00180     0.76100
      H   29    0.25893      0.00000     0.73904    0.00203     0.74107
      H   30    0.24862      0.00000     0.75023    0.00115     0.75138
      H   31    0.24350      0.00000     0.75449    0.00202     0.75650
      H   32    0.22685      0.00000     0.77121    0.00194     0.77315
      H   33    0.24960      0.00000     0.74937    0.00103     0.75040
      H   34    0.24924      0.00000     0.74962    0.00114     0.75076
      H   35    0.24435      0.00000     0.75397    0.00169     0.75565
      H   36    0.23318      0.00000     0.76482    0.00201     0.76682
      H   37    0.25360      0.00000     0.74507    0.00132     0.74640
 =======================================================================
   * Total *    0.00000     35.98514    93.71698    0.29788   130.00000

 Normal termination of Gaussian 09 at Tue Sep 28 18:53:26 2021.
