 Gaussian 09, Revision A.02,

 -----------------------------------
 #p opt b3lyp/6-31G* scf=(xqc,tight)
 -----------------------------------

 ------------------------------------------
 N#Cc1ccc2c(c1)ccc(c2)OC(=O)C(C)(C)C_conf_0
 ------------------------------------------
 Symbolic Z-matrix:
 Charge =  0 Multiplicity = 1

 SCF Done:  E(RB3LYP) =  -823.947961438     A.U. after   16 cycles
 SCF Done:  E(RB3LYP) =  -823.953948704     A.U. after   14 cycles
 SCF Done:  E(RB3LYP) =  -823.953922272     A.U. after   13 cycles
 SCF Done:  E(RB3LYP) =  -823.954280353     A.U. after   12 cycles
 SCF Done:  E(RB3LYP) =  -823.953887344     A.U. after   12 cycles
 SCF Done:  E(RB3LYP) =  -823.954410306     A.U. after   12 cycles
 SCF Done:  E(RB3LYP) =  -823.954415236     A.U. after   12 cycles
 SCF Done:  E(RB3LYP) =  -823.954495515     A.U. after   11 cycles
 SCF Done:  E(RB3LYP) =  -823.954540358     A.U. after   11 cycles
 SCF Done:  E(RB3LYP) =  -823.954560990     A.U. after   11 cycles
 SCF Done:  E(RB3LYP) =  -823.954580442     A.U. after   12 cycles
 SCF Done:  E(RB3LYP) =  -823.954582594     A.U. after    9 cycles
 SCF Done:  E(RB3LYP) =  -823.954582714     A.U. after    8 cycles
 SCF Done:  E(RB3LYP) =  -823.954582860     A.U. after    7 cycles
 Optimization completed.
    -- Stationary point found.
 Normal termination of Gaussian 09 at Wed Sep 29 17:36:35 2021.

 ----------------------------------------------------------------------
 #p freq b3lyp/6-31G* volume NMR pop=NPA density=current Geom=AllCheck
 Guess=Read
 ----------------------------------------------------------------------

 N#Cc1ccc2c(c1)ccc(c2)OC(=O)C(C)(C)C_conf_0
 ------------------------------------------
 Redundant internal coordinates taken from checkpoint file:
 C16H15NO2_c5f1_conf_0.chk
 Charge =  0 Multiplicity = 1

 SCF Done:  E(RB3LYP) =  -823.954582860     A.U. after    1 cycles

  1  N    Isotropic =   -15.6609   Anisotropy =   390.2834

  2  C    Isotropic =    81.7564   Anisotropy =   309.8967

  3  C    Isotropic =    84.0233   Anisotropy =   129.8829

  4  C    Isotropic =    67.5461   Anisotropy =   161.0565

  5  C    Isotropic =    67.5256   Anisotropy =   147.4183

  6  C    Isotropic =    61.8144   Anisotropy =   196.5370

  7  C    Isotropic =    66.5145   Anisotropy =   194.6900

  8  C    Isotropic =    60.8731   Anisotropy =   153.9100

  9  C    Isotropic =    66.1961   Anisotropy =   145.3500

 10  C    Isotropic =    71.7224   Anisotropy =   152.2662

 11  C    Isotropic =    43.9523   Anisotropy =   112.2726

 12  C    Isotropic =    77.6798   Anisotropy =   121.1629

 13  O    Isotropic =   106.0827   Anisotropy =   163.1195

 14  C    Isotropic =    22.2046   Anisotropy =    76.8822

 15  O    Isotropic =   -66.1744   Anisotropy =   573.9049

 16  C    Isotropic =   148.8165   Anisotropy =    24.5049

 17  C    Isotropic =   162.1452   Anisotropy =    37.2915

 18  C    Isotropic =   162.9579   Anisotropy =    31.3972

 19  C    Isotropic =   162.2751   Anisotropy =    37.9577

 20  H    Isotropic =    24.7252   Anisotropy =     6.1979

 21  H    Isotropic =    24.5942   Anisotropy =     7.6434

 22  H    Isotropic =    24.2846   Anisotropy =     8.3784

 23  H    Isotropic =    24.5083   Anisotropy =     7.2678

 24  H    Isotropic =    24.6363   Anisotropy =     9.3767

 25  H    Isotropic =    25.0181   Anisotropy =     9.2094

 26  H    Isotropic =    30.7979   Anisotropy =     8.1768

 27  H    Isotropic =    30.4155   Anisotropy =     5.9216

 28  H    Isotropic =    31.0256   Anisotropy =     7.9310

 29  H    Isotropic =    30.6121   Anisotropy =     8.2648

 30  H    Isotropic =    31.4202   Anisotropy =     7.9352

 31  H    Isotropic =    30.6432   Anisotropy =     7.8746

 32  H    Isotropic =    30.3169   Anisotropy =     7.4489

 33  H    Isotropic =    30.8020   Anisotropy =     8.0403

 34  H    Isotropic =    31.0288   Anisotropy =     7.9795

  Exact polarizability: 310.185  -6.700 163.100   6.781  -3.872  91.027
 Approx polarizability: 442.617 -13.062 287.963  16.613  -3.395 141.421

                     1                      2                      3
                     A                      A                      A
 Frequencies --    21.1686                31.0737                45.0045
 Red. masses --     3.4814                 5.5396                 4.7677
 Frc consts  --     0.0009                 0.0032                 0.0057
 IR Inten    --     0.1172                 0.3074                 0.6546

                     4                      5                      6
                     A                      A                      A
 Frequencies --    62.6880                95.8254               131.5559
 Red. masses --     8.6443                 6.2950                 7.8518
 Frc consts  --     0.0200                 0.0341                 0.0801
 IR Inten    --     1.1316                 3.3611                 4.8568

                     7                      8                      9
                     A                      A                      A
 Frequencies --   171.6087               182.7856               200.5042
 Red. masses --     4.9598                 4.2392                 3.2587
 Frc consts  --     0.0861                 0.0834                 0.0772
 IR Inten    --     1.1481                 1.2720                 1.5163

                    10                     11                     12
                     A                      A                      A
 Frequencies --   204.4035               225.4319               262.1583
 Red. masses --     1.5281                 1.6329                 1.4962
 Frc consts  --     0.0376                 0.0489                 0.0606
 IR Inten    --     0.2229                 0.7158                 0.1557

                    13                     14                     15
                     A                      A                      A
 Frequencies --   267.3330               283.6405               316.8405
 Red. masses --     1.2673                 1.7500                 3.8424
 Frc consts  --     0.0534                 0.0830                 0.2273
 IR Inten    --     0.0672                 0.3323                 3.6939

                    16                     17                     18
                     A                      A                      A
 Frequencies --   333.0503               354.5066               376.5744
 Red. masses --     4.5315                 3.2607                 2.4248
 Frc consts  --     0.2961                 0.2414                 0.2026
 IR Inten    --     3.1713                 7.9363                 0.3157

                    19                     20                     21
                     A                      A                      A
 Frequencies --   386.4696               412.1567               445.5289
 Red. masses --     4.3597                 3.5723                 6.0153
 Frc consts  --     0.3837                 0.3575                 0.7035
 IR Inten    --     1.2525                 1.2270                 3.2955

                    22                     23                     24
                     A                      A                      A
 Frequencies --   468.2949               484.8728               493.5253
 Red. masses --     3.7618                 4.2493                 3.4435
 Frc consts  --     0.4861                 0.5886                 0.4942
 IR Inten    --     2.5301                 7.3180                 3.6994

                    25                     26                     27
                     A                      A                      A
 Frequencies --   526.9344               574.1925               575.5939
 Red. masses --     6.5215                 6.9676                 4.2904
 Frc consts  --     1.0669                 1.3535                 0.8375
 IR Inten    --     0.4931                 1.0223                 4.8140

                    28                     29                     30
                     A                      A                      A
 Frequencies --   592.4111               627.6790               675.8774
 Red. masses --     3.9155                 4.7544                 4.3037
 Frc consts  --     0.8096                 1.1036                 1.1583
 IR Inten    --     0.9030                 4.2232                 6.2246

                    31                     32                     33
                     A                      A                      A
 Frequencies --   687.5689               757.4063               765.6501
 Red. masses --     6.8374                 6.5175                 3.2624
 Frc consts  --     1.9045                 2.2029                 1.1268
 IR Inten    --     0.3965                 5.1374                 1.5126

                    34                     35                     36
                     A                      A                      A
 Frequencies --   767.5741               803.3024               826.9211
 Red. masses --     6.1979                 2.5570                 1.5078
 Frc consts  --     2.1515                 0.9721                 0.6075
 IR Inten    --     0.2680                 4.5045                16.3930

                    37                     38                     39
                     A                      A                      A
 Frequencies --   831.5247               841.3322               888.3173
 Red. masses --     2.3705                 2.6091                 2.3043
 Frc consts  --     0.9657                 1.0881                 1.0714
 IR Inten    --     5.6399                 0.4409                 6.2458

                    40                     41                     42
                     A                      A                      A
 Frequencies --   910.2981               921.5677               948.2450
 Red. masses --     1.9674                 1.5887                 1.7558
 Frc consts  --     0.9605                 0.7949                 0.9302
 IR Inten    --    12.1624                35.1347                 1.4688

                    43                     44                     45
                     A                      A                      A
 Frequencies --   956.0870               961.0923               965.3255
 Red. masses --     1.8330                 2.7087                 1.5131
 Frc consts  --     0.9872                 1.4741                 0.8307
 IR Inten    --     9.8742                 3.5936                 1.0283

                    46                     47                     48
                     A                      A                      A
 Frequencies --   975.5093               982.2655               991.9031
 Red. masses --     1.3065                 1.1983                 3.3298
 Frc consts  --     0.7325                 0.6812                 1.9302
 IR Inten    --     0.1231                 0.0200                 2.7208

                    49                     50                     51
                     A                      A                      A
 Frequencies --  1057.6758              1060.0105              1132.5926
 Red. masses --     1.4899                 1.4422                 3.1180
 Frc consts  --     0.9820                 0.9548                 2.3565
 IR Inten    --    61.5947                11.8084               545.5316

                    52                     53                     54
                     A                      A                      A
 Frequencies --  1160.0934              1181.3322              1191.6156
 Red. masses --     1.7851                 2.1863                 1.3574
 Frc consts  --     1.4154                 1.7977                 1.1356
 IR Inten    --   135.7933               211.6100                86.2806

                    55                     56                     57
                     A                      A                      A
 Frequencies --  1196.9183              1242.2381              1256.0489
 Red. masses --     1.3667                 2.6642                 4.9170
 Frc consts  --     1.1536                 2.4223                 4.5705
 IR Inten    --     4.0048                 1.7266               110.1396

                    58                     59                     60
                     A                      A                      A
 Frequencies --  1266.6900              1287.4167              1298.1279
 Red. masses --     3.5717                 1.6715                 1.8447
 Frc consts  --     3.3765                 1.6323                 1.8315
 IR Inten    --    80.7262                57.4164                 8.3141

                    61                     62                     63
                     A                      A                      A
 Frequencies --  1308.4801              1379.4150              1415.0559
 Red. masses --     2.9756                 1.9759                 4.3181
 Frc consts  --     3.0017                 2.2152                 5.0944
 IR Inten    --    41.5226                 4.9586                 3.4086

                    64                     65                     66
                     A                      A                      A
 Frequencies --  1422.3126              1424.4298              1430.6856
 Red. masses --     1.2069                 4.6738                 1.2553
 Frc consts  --     1.4385                 5.5874                 1.5138
 IR Inten    --     4.1996                19.2589                 4.9471

                    67                     68                     69
                     A                      A                      A
 Frequencies --  1453.3708              1458.9426              1508.4012
 Red. masses --     4.2736                 1.2222                 1.0482
 Frc consts  --     5.3186                 1.5328                 1.4052
 IR Inten    --     0.4388                16.5654                 0.0313

                    70                     71                     72
                     A                      A                      A
 Frequencies --  1515.8753              1520.1700              1523.8424
 Red. masses --     1.0454                 1.0469                 2.3792
 Frc consts  --     1.4153                 1.4254                 3.2551
 IR Inten    --     0.5083                 0.2626                53.3702

                    73                     74                     75
                     A                      A                      A
 Frequencies --  1530.1412              1533.0383              1549.1877
 Red. masses --     1.0486                 1.0565                 2.3108
 Frc consts  --     1.4465                 1.4629                 3.2675
 IR Inten    --     6.0349                 7.5340                51.1891

                    76                     77                     78
                     A                      A                      A
 Frequencies --  1550.8525              1619.3025              1661.3273
 Red. masses --     1.2798                 6.8085                 5.7665
 Frc consts  --     1.8135                10.5186                 9.3773
 IR Inten    --     3.9643                 6.5839                13.5048

                    79                     80                     81
                     A                      A                      A
 Frequencies --  1685.0176              1834.2887              2345.6725
 Red. masses --     6.3483                12.6960                12.6811
 Frc consts  --    10.6199                25.1682                41.1096
 IR Inten    --    69.1093               183.5876                54.6081

                    82                     83                     84
                     A                      A                      A
 Frequencies --  3051.5448              3053.9926              3062.8742
 Red. masses --     1.0355                 1.0359                 1.0364
 Frc consts  --     5.6810                 5.6927                 5.7283
 IR Inten    --    26.2934                10.6815                27.1244

                    85                     86                     87
                     A                      A                      A
 Frequencies --  3115.6776              3118.3117              3130.9283
 Red. masses --     1.1031                 1.1025                 1.1020
 Frc consts  --     6.3090                 6.3165                 6.3647
 IR Inten    --    12.4731                22.4459                39.1437

                    88                     89                     90
                     A                      A                      A
 Frequencies --  3139.5598              3140.6814              3143.9148
 Red. masses --     1.1026                 1.1022                 1.1013
 Frc consts  --     6.4036                 6.4058                 6.4134
 IR Inten    --     4.6988                18.3306                47.1433

                    91                     92                     93
                     A                      A                      A
 Frequencies --  3193.9929              3196.1396              3208.7208
 Red. masses --     1.0890                 1.0902                 1.0915
 Frc consts  --     6.5454                 6.5618                 6.6212
 IR Inten    --     5.1151                 6.5217                 4.8135

                    94                     95                     96
                     A                      A                      A
 Frequencies --  3211.8915              3222.6307              3249.3930
 Red. masses --     1.0914                 1.0945                 1.0934
 Frc consts  --     6.6334                 6.6973                 6.8019
 IR Inten    --     4.7328                 6.3565                 2.6029

 - Thermochemistry -
 -------------------
 Temperature   298.150 Kelvin.  Pressure   1.00000 Atm.
 Atom     1 has atomic number  7 and mass  14.00307

 Molecular mass:   253.11028 amu.
 Principal axes and moments of inertia in atomic units:
                           1         2         3
     Eigenvalues --  1270.25539********************
           X            1.00000   0.00226   0.00136
           Y           -0.00223   0.99979  -0.02050
           Z           -0.00140   0.02050   0.99979
 This molecule is an asymmetric top.
 Rotational symmetry number  1.
 Warning -- assumption of classical behavior for rotation
           may cause significant error
 Rotational temperatures (Kelvin)      0.06819     0.00687     0.00653
 Rotational constants (GHZ):           1.42077     0.14318     0.13602
 Zero-point vibrational energy     716876.6 (Joules/Mol)
                                  171.33761 (Kcal/Mol)
 Warning -- explicit consideration of  28 degrees of freedom as
           vibrations may cause significant error
 Vibrational temperatures:     30.46    44.71    64.75    90.19   137.87
          (Kelvin)            189.28   246.91   262.99   288.48   294.09
                              324.35   377.19   384.63   408.09   455.86
                              479.18   510.06   541.81   556.04   593.00
                              641.02   673.77   697.62   710.07   758.14
                              826.13   828.15   852.35   903.09   972.44
                              989.26  1089.74  1101.60  1104.37  1155.77
                             1189.75  1196.38  1210.49  1278.09  1309.71
                             1325.93  1364.31  1375.59  1382.80  1388.89
                             1403.54  1413.26  1427.13  1521.76  1525.12
                             1629.55  1669.11  1699.67  1714.47  1722.10
                             1787.30  1807.17  1822.48  1852.30  1867.71
                             1882.61  1984.67  2035.95  2046.39  2049.43
                             2058.43  2091.07  2099.09  2170.25  2181.00
                             2187.18  2192.47  2201.53  2205.70  2228.93
                             2231.33  2329.81  2390.28  2424.36  2639.13
                             3374.90  4390.49  4394.01  4406.79  4482.76
                             4486.55  4504.70  4517.12  4518.73  4523.39
                             4595.44  4598.53  4616.63  4621.19  4636.64
                             4675.15

 Zero-point correction=                           0.273044 (Hartree/Particle)
 Thermal correction to Energy=                    0.290420
 Thermal correction to Enthalpy=                  0.291364
 Thermal correction to Gibbs Free Energy=         0.226697
 Sum of electronic and zero-point Energies=           -823.681539
 Sum of electronic and thermal Energies=              -823.664163
 Sum of electronic and thermal Enthalpies=            -823.663218
 Sum of electronic and thermal Free Energies=         -823.727886

                     E (Thermal)             CV                S
                      KCal/Mol        Cal/Mol-Kelvin    Cal/Mol-Kelvin
 Total                  182.241             66.819            136.104
 Electronic               0.000              0.000              0.000
 Translational            0.889              2.981             42.486
 Rotational               0.889              2.981             33.718
 Vibrational            180.464             60.858             59.900
 Vibration     1          0.593              1.985              6.521
 Vibration     2          0.594              1.983              5.760
 Vibration     3          0.595              1.979              5.026
 Vibration     4          0.597              1.972              4.371
 Vibration     5          0.603              1.952              3.538
 Vibration     6          0.612              1.922              2.923
 Vibration     7          0.626              1.877              2.418
 Vibration     8          0.630              1.863              2.300
 Vibration     9          0.638              1.839              2.128
 Vibration    10          0.640              1.834              2.093
 Vibration    11          0.650              1.802              1.915
 Vibration    12          0.669              1.742              1.647
 Vibration    13          0.672              1.733              1.613
 Vibration    14          0.682              1.704              1.512
 Vibration    15          0.704              1.641              1.326
 Vibration    16          0.715              1.610              1.245
 Vibration    17          0.730              1.566              1.146
 Vibration    18          0.747              1.520              1.053
 Vibration    19          0.755              1.499              1.014
 Vibration    20          0.776              1.444              0.919
 Vibration    21          0.805              1.371              0.809
 Vibration    22          0.825              1.320              0.742
 Vibration    23          0.841              1.284              0.697
 Vibration    24          0.849              1.264              0.675
 Vibration    25          0.882              1.190              0.594
 Vibration    26          0.930              1.087              0.496
 Vibration    27          0.932              1.084              0.494
 Vibration    28          0.950              1.048              0.463

 Optimization completed.
    -- Stationary point found.
 Normal termination of Gaussian 09 at Wed Sep 29 19:21:45 2021.
 Gaussian 09:  AM64L-G09RevA.02 11-Jun-2009

 ----------------------------------------------------------------------
 #p TD(NStates=10, Root=1) b3lyp/6-31G* volume pop=NPA density=current
 Geom=AllCheck Guess=Read
 ----------------------------------------------------------------------

 N#Cc1ccc2c(c1)ccc(c2)OC(=O)C(C)(C)C_conf_0
 ------------------------------------------
 Redundant internal coordinates taken from checkpoint file:
 C16H15NO2_c5f1_conf_0.chk
 Charge =  0 Multiplicity = 1

                         Standard orientation:
 ---------------------------------------------------------------------
 Center     Atomic      Atomic             Coordinates (Angstroms)
 Number     Number       Type             X           Y           Z
 ---------------------------------------------------------------------
      1          7           0       -6.978295   -0.409444   -0.167255
      2          6           0       -5.837850   -0.183236   -0.119487
      3          6           0       -4.435072    0.105560   -0.060869
      4          6           0       -3.988509    1.456083   -0.155332
      5          6           0       -2.647029    1.741593   -0.098642
      6          6           0       -1.681792    0.708133    0.052673
      7          6           0       -2.130746   -0.649721    0.147595
      8          6           0       -3.518011   -0.922902    0.087563
      9          6           0       -1.165538   -1.681901    0.304083
     10          6           0        0.177956   -1.399238    0.362327
     11          6           0        0.606689   -0.053051    0.258670
     12          6           0       -0.291459    0.977445    0.110554
     13          8           0        1.946793    0.294943    0.396379
     14          6           0        2.914672   -0.346472   -0.347190
     15          8           0        2.662024   -1.206295   -1.154358
     16          6           0        4.304811    0.191463    0.000087
     17          6           0        4.577021   -0.051433    1.502145
     18          6           0        5.342651   -0.552317   -0.855373
     19          6           0        4.352105    1.706667   -0.301425
     20          1           0       -4.721023    2.247995   -0.271700
     21          1           0       -2.306520    2.771105   -0.170854
     22          1           0       -3.863461   -1.950036    0.159049
     23          1           0       -1.505797   -2.711175    0.380354
     24          1           0        0.908697   -2.189491    0.478501
     25          1           0        0.071410    1.998495    0.042794
     26          1           0        4.540607   -1.119727    1.745197
     27          1           0        3.849617    0.469862    2.130593
     28          1           0        5.577809    0.315515    1.756424
     29          1           0        5.318812   -1.628995   -0.661878
     30          1           0        6.346814   -0.180715   -0.623245
     31          1           0        5.156864   -0.404175   -1.923317
     32          1           0        3.627254    2.258122    0.303717
     33          1           0        4.144164    1.907786   -1.358592
     34          1           0        5.352883    2.092330   -0.076694
 ---------------------------------------------------------------------

 SCF Done:  E(RB3LYP) =  -823.954582860     A.U. after    2 cycles

 Excitation energies and oscillator strengths:

 Excited State   1:      Singlet-A      4.1621 eV  297.89 nm  f=0.0711  <S**2>=0.000
      66 -> 68        -0.29841
      66 -> 69         0.14320
      67 -> 68         0.57605
      67 -> 69         0.22983
 This state for optimization and/or second-order correction.
 Total Energy, E(TD-HF/TD-KS) =  -823.801628265
 Copying the excited state density for this state as the 1-particle RhoCI density.

 Excited State   2:      Singlet-A      4.2560 eV  291.32 nm  f=0.0470  <S**2>=0.000
      66 -> 68        -0.41127
      67 -> 68        -0.36420
      67 -> 69         0.43251

 Excited State   3:      Singlet-A      5.1619 eV  240.19 nm  f=0.0009  <S**2>=0.000
      65 -> 68         0.64395
      65 -> 70        -0.23657
      67 -> 70        -0.10733

 Excited State   4:      Singlet-A      5.3093 eV  233.52 nm  f=1.0048  <S**2>=0.000
      66 -> 68         0.42014
      66 -> 69         0.16630
      67 -> 69         0.43086
      67 -> 70        -0.27466

 Excited State   5:      Singlet-A      5.4836 eV  226.10 nm  f=0.1507  <S**2>=0.000
      64 -> 68        -0.25080
      65 -> 68         0.19552
      65 -> 70         0.17060
      66 -> 68         0.17357
      66 -> 69         0.10346
      67 -> 69         0.18379
      67 -> 70         0.51118
      67 -> 71         0.10133

 Excited State   6:      Singlet-A      5.6355 eV  220.00 nm  f=0.0817  <S**2>=0.000
      64 -> 68         0.33020
      65 -> 68         0.13705
      65 -> 69        -0.23043
      65 -> 70         0.23447
      66 -> 69         0.38666
      67 -> 71        -0.27038

 Excited State   7:      Singlet-A      5.7676 eV  214.97 nm  f=0.0153  <S**2>=0.000
      64 -> 68         0.28273
      65 -> 69         0.37442
      65 -> 70        -0.24445
      67 -> 70         0.34252
      67 -> 71        -0.25208

 Excited State   8:      Singlet-A      5.8179 eV  213.11 nm  f=0.4964  <S**2>=0.000
      64 -> 68        -0.25942
      65 -> 70        -0.24362
      66 -> 68        -0.12470
      66 -> 69         0.49429
      66 -> 70         0.10403
      67 -> 68        -0.14850
      67 -> 69        -0.14913
      67 -> 71         0.12226

 Excited State   9:      Singlet-A      5.9634 eV  207.91 nm  f=0.0004  <S**2>=0.000
      63 -> 68         0.37797
      64 -> 68        -0.12118
      64 -> 69         0.31335
      65 -> 69        -0.21148
      65 -> 70        -0.25975
      66 -> 70        -0.23609
      66 -> 71        -0.17405
      67 -> 71        -0.11921

 Excited State  10:      Singlet-A      6.0476 eV  205.01 nm  f=0.0001  <S**2>=0.000
      62 -> 68         0.65745
      62 -> 69         0.15443

 The electronic state is 1-A.
 Alpha  occ. eigenvalues --  -19.21403 -19.15404 -14.33375 -10.32947 -10.27222
 Alpha  occ. eigenvalues --  -10.24039 -10.22701 -10.22465 -10.22418 -10.22234
 Alpha  occ. eigenvalues --  -10.22082 -10.21808 -10.21433 -10.21360 -10.21241
 Alpha  occ. eigenvalues --  -10.21050 -10.19190 -10.19178 -10.18311  -1.12091
 Alpha  occ. eigenvalues --   -1.03792  -0.90728  -0.89281  -0.85028  -0.83194
 Alpha  occ. eigenvalues --   -0.79854  -0.77315  -0.74966  -0.70144  -0.69887
 Alpha  occ. eigenvalues --   -0.68634  -0.65107  -0.63167  -0.62116  -0.58098
 Alpha  occ. eigenvalues --   -0.55937  -0.52989  -0.50643  -0.49840  -0.48961
 Alpha  occ. eigenvalues --   -0.48222  -0.46980  -0.46411  -0.44616  -0.44362
 Alpha  occ. eigenvalues --   -0.44259  -0.43828  -0.41963  -0.41411  -0.40525
 Alpha  occ. eigenvalues --   -0.39980  -0.39160  -0.38884  -0.37782  -0.37446
 Alpha  occ. eigenvalues --   -0.36616  -0.36070  -0.35494  -0.34671  -0.34411
 Alpha  occ. eigenvalues --   -0.33628  -0.32856  -0.31935  -0.30073  -0.28315
 Alpha  occ. eigenvalues --   -0.25749  -0.23449
 Alpha virt. eigenvalues --   -0.06755  -0.04167  -0.00796   0.01173   0.03803
 Alpha virt. eigenvalues --    0.05075   0.07407   0.07939   0.10157   0.10412
 Alpha virt. eigenvalues --    0.11781   0.12824   0.13672   0.14285   0.14492

 Mulliken atomic charges:
              1
     1  N   -0.500492
     2  C    0.195743
     3  C    0.115841
     4  C   -0.118818
     5  C   -0.200227
     6  C    0.133315
     7  C    0.153371
     8  C   -0.236262
     9  C   -0.194874
    10  C   -0.120694
    11  C    0.346577
    12  C   -0.225357
    13  O   -0.531812
    14  C    0.630540
    15  O   -0.458063
    16  C   -0.011307
    17  C   -0.452820
    18  C   -0.435152
    19  C   -0.451525
    20  H    0.168800
    21  H    0.148265
    22  H    0.152299
    23  H    0.163054
    24  H    0.172713
    25  H    0.161086
    26  H    0.151449
    27  H    0.164891
    28  H    0.153674
    29  H    0.156753
    30  H    0.141593
    31  H    0.159334
    32  H    0.160865
    33  H    0.154084
    34  H    0.153155
 Sum of Mulliken atomic charges =  -0.00000

 Dipole moment (field-independent basis, Debye):
    X=              7.7131    Y=              1.9686    Z=              1.4930  Tot=              8.0992
 Quadrupole moment (field-independent basis, Debye-Ang):
   XX=           -157.2560   YY=            -99.3169   ZZ=           -113.9812
   XY=             -3.8296   XZ=              2.0635   YZ=             -4.5933

 Summary of Natural Population Analysis:

                                       Natural Population
                Natural  -----------------------------------------------
    Atom  No    Charge         Core      Valence    Rydberg      Total
 -----------------------------------------------------------------------
      N    1   -0.34499      1.99965     5.32322    0.02212     7.34499
      C    2    0.24586      1.99939     3.71995    0.03479     5.75414
      C    3   -0.21376      1.99886     4.19949    0.01540     6.21376
      C    4   -0.12012      1.99907     4.10723    0.01382     6.12012
      C    5   -0.20023      1.99907     4.18605    0.01511     6.20023
      C    6   -0.07562      1.99903     4.06151    0.01507     6.07562
      C    7   -0.06974      1.99903     4.05560    0.01511     6.06974
      C    8   -0.18695      1.99902     4.17275    0.01518     6.18695
      C    9   -0.14705      1.99907     4.13333    0.01464     6.14705
      C   10   -0.20504      1.99903     4.19167    0.01434     6.20504
      C   11    0.26183      1.99876     3.71633    0.02309     5.73817
      C   12   -0.16407      1.99897     4.15066    0.01444     6.16407
      O   13   -0.54187      1.99970     6.53096    0.01122     8.54187
      C   14    0.83837      1.99927     3.11350    0.04887     5.16163
      O   15   -0.56959      1.99977     6.54973    0.02008     8.56959
      C   16   -0.15158      1.99905     4.14026    0.01228     6.15158
      C   17   -0.67006      1.99938     4.66089    0.00979     6.67006
      C   18   -0.67072      1.99940     4.66021    0.01112     6.67072
      C   19   -0.66939      1.99938     4.66017    0.00983     6.66939
      H   20    0.25391      0.00000     0.74538    0.00071     0.74609
      H   21    0.24051      0.00000     0.75842    0.00107     0.75949
      H   22    0.24668      0.00000     0.75231    0.00100     0.75332
      H   23    0.24640      0.00000     0.75254    0.00106     0.75360
      H   24    0.26155      0.00000     0.73749    0.00096     0.73845
      H   25    0.24967      0.00000     0.74891    0.00142     0.75033
      H   26    0.23608      0.00000     0.76301    0.00091     0.76392
      H   27    0.24435      0.00000     0.75460    0.00105     0.75565
      H   28    0.23811      0.00000     0.76083    0.00107     0.76189
      H   29    0.24308      0.00000     0.75591    0.00101     0.75692
      H   30    0.23263      0.00000     0.76649    0.00088     0.76737
      H   31    0.24449      0.00000     0.75450    0.00101     0.75551
      H   32    0.24213      0.00000     0.75675    0.00112     0.75787
      H   33    0.23749      0.00000     0.76162    0.00090     0.76251
      H   34    0.23764      0.00000     0.76135    0.00101     0.76236
 =======================================================================
   * Total *   -0.00000     37.98491    95.66361    0.35148   134.00000

 Normal termination of Gaussian 09 at Thu Sep 30 02:04:59 2021.
