 Gaussian 09, Revision A.02,

 -----------------------------------
 #p opt b3lyp/6-31G* scf=(xqc,tight)
 -----------------------------------

 ----------------------------------------
 COc1ccc(c2c1cccc2)OC(=O)OC(C)(C)C_conf_0
 ----------------------------------------
 Symbolic Z-matrix:
 Charge =  0 Multiplicity = 1

 SCF Done:  E(RB3LYP) =  -921.451427566     A.U. after   15 cycles
 SCF Done:  E(RB3LYP) =  -921.459496817     A.U. after   13 cycles
 SCF Done:  E(RB3LYP) =  -921.461315520     A.U. after   12 cycles
 SCF Done:  E(RB3LYP) =  -921.460730455     A.U. after   12 cycles
 SCF Done:  E(RB3LYP) =  -921.461622649     A.U. after   12 cycles
 SCF Done:  E(RB3LYP) =  -921.461936600     A.U. after   12 cycles
 SCF Done:  E(RB3LYP) =  -921.462197934     A.U. after   11 cycles
 SCF Done:  E(RB3LYP) =  -921.462308129     A.U. after   11 cycles
 SCF Done:  E(RB3LYP) =  -921.462359854     A.U. after   10 cycles
 SCF Done:  E(RB3LYP) =  -921.462380962     A.U. after   11 cycles
 SCF Done:  E(RB3LYP) =  -921.462388456     A.U. after   10 cycles
 SCF Done:  E(RB3LYP) =  -921.462394495     A.U. after   11 cycles
 SCF Done:  E(RB3LYP) =  -921.462397928     A.U. after   11 cycles
 SCF Done:  E(RB3LYP) =  -921.462402114     A.U. after   10 cycles
 SCF Done:  E(RB3LYP) =  -921.462403128     A.U. after   10 cycles
 SCF Done:  E(RB3LYP) =  -921.462403481     A.U. after    8 cycles
 SCF Done:  E(RB3LYP) =  -921.462403520     A.U. after    8 cycles
 Optimization completed.
    -- Stationary point found.
 Normal termination of Gaussian 09 at Wed Sep 29 21:06:07 2021.

 ----------------------------------------------------------------------
 #p freq b3lyp/6-31G* volume NMR pop=NPA density=current Geom=AllCheck
 Guess=Read
 ----------------------------------------------------------------------

 COc1ccc(c2c1cccc2)OC(=O)OC(C)(C)C_conf_0
 ----------------------------------------
 Redundant internal coordinates taken from checkpoint file:
 C16H18O4_1e7e_conf_0.chk
 Charge =  0 Multiplicity = 1

 SCF Done:  E(RB3LYP) =  -921.462403520     A.U. after    1 cycles

  1  C    Isotropic =   137.0091   Anisotropy =    66.2965

  2  O    Isotropic =   240.5913   Anisotropy =    98.2936

  3  C    Isotropic =    44.5272   Anisotropy =   116.0593

  4  C    Isotropic =    92.2876   Anisotropy =   131.7171

  5  C    Isotropic =    76.3683   Anisotropy =   145.2443

  6  C    Isotropic =    54.7502   Anisotropy =    87.1900

  7  C    Isotropic =    68.6148   Anisotropy =   176.7763

  8  C    Isotropic =    70.3710   Anisotropy =   171.9186

  9  C    Isotropic =    72.2639   Anisotropy =   166.8937

 10  C    Isotropic =    71.3083   Anisotropy =   161.5295

 11  C    Isotropic =    69.8615   Anisotropy =   163.8719

 12  C    Isotropic =    73.3737   Anisotropy =   162.0538

 13  O    Isotropic =   145.8645   Anisotropy =   152.1468

 14  C    Isotropic =    44.9691   Anisotropy =    90.9061

 15  O    Isotropic =    52.8888   Anisotropy =   372.2328

 16  O    Isotropic =   144.1630   Anisotropy =    70.0890

 17  C    Isotropic =   109.1634   Anisotropy =    71.6164

 18  C    Isotropic =   165.1236   Anisotropy =    35.4352

 19  C    Isotropic =   159.2389   Anisotropy =    41.6446

 20  C    Isotropic =   165.1389   Anisotropy =    34.6878

 21  H    Isotropic =    28.0688   Anisotropy =     8.6626

 22  H    Isotropic =    28.4231   Anisotropy =     8.4338

 23  H    Isotropic =    28.4390   Anisotropy =     8.5506

 24  H    Isotropic =    25.8136   Anisotropy =     7.8541

 25  H    Isotropic =    24.9402   Anisotropy =     9.2511

 26  H    Isotropic =    23.9482   Anisotropy =     9.8439

 27  H    Isotropic =    24.8108   Anisotropy =     5.2186

 28  H    Isotropic =    24.7528   Anisotropy =     5.9260

 29  H    Isotropic =    24.1469   Anisotropy =    10.1568

 30  H    Isotropic =    30.8818   Anisotropy =     6.9769

 31  H    Isotropic =    29.4355   Anisotropy =     6.2610

 32  H    Isotropic =    31.1453   Anisotropy =     8.3524

 33  H    Isotropic =    30.6308   Anisotropy =     7.1036

 34  H    Isotropic =    31.1146   Anisotropy =     8.0882

 35  H    Isotropic =    30.6273   Anisotropy =     7.5241

 36  H    Isotropic =    29.5706   Anisotropy =     5.3686

 37  H    Isotropic =    30.9401   Anisotropy =     7.1194

 38  H    Isotropic =    31.1897   Anisotropy =     8.4511

  Exact polarizability: 240.392   0.762 213.503 -10.285   4.697  98.331
 Approx polarizability: 330.063  -5.213 356.099 -23.085   3.981 152.527

                     1                      2                      3
                     A                      A                      A
 Frequencies --    21.2071                28.1274                49.6733
 Red. masses --     3.9294                 4.3344                 4.1634
 Frc consts  --     0.0010                 0.0020                 0.0061
 IR Inten    --     0.0915                 0.9735                 0.9555

                     4                      5                      6
                     A                      A                      A
 Frequencies --    76.3340                85.9183               115.9165
 Red. masses --     5.5536                 3.4383                 3.9061
 Frc consts  --     0.0191                 0.0150                 0.0309
 IR Inten    --     1.5797                 2.0884                 0.2106

                     7                      8                      9
                     A                      A                      A
 Frequencies --   140.0683               145.7351               180.8588
 Red. masses --     3.8925                 4.0809                 3.9061
 Frc consts  --     0.0450                 0.0511                 0.0753
 IR Inten    --     3.2364                 0.4483                 3.2676

                    10                     11                     12
                     A                      A                      A
 Frequencies --   197.9429               209.5265               228.3577
 Red. masses --     4.3480                 1.0768                 3.2331
 Frc consts  --     0.1004                 0.0279                 0.0993
 IR Inten    --     0.9327                 0.0317                 0.1929

                    13                     14                     15
                     A                      A                      A
 Frequencies --   238.0013               258.1945               264.7360
 Red. masses --     3.6696                 1.1047                 1.3067
 Frc consts  --     0.1225                 0.0434                 0.0540
 IR Inten    --     1.9379                 0.0044                 0.5260

                    16                     17                     18
                     A                      A                      A
 Frequencies --   273.8198               290.9780               327.8028
 Red. masses --     1.0850                 4.2959                 3.4416
 Frc consts  --     0.0479                 0.2143                 0.2179
 IR Inten    --     0.1178                 6.1636                11.6444

                    19                     20                     21
                     A                      A                      A
 Frequencies --   348.1654               368.6402               408.6319
 Red. masses --     2.5120                 4.3762                 5.6073
 Frc consts  --     0.1794                 0.3504                 0.5517
 IR Inten    --     1.1676                 5.7806                 0.2069

                    22                     23                     24
                     A                      A                      A
 Frequencies --   425.2760               433.4846               442.2119
 Red. masses --     3.0406                 3.1785                 3.0998
 Frc consts  --     0.3240                 0.3519                 0.3571
 IR Inten    --     1.9772                 1.3813                 9.0786

                    25                     26                     27
                     A                      A                      A
 Frequencies --   458.8860               478.5373               483.5428
 Red. masses --     2.9619                 3.5973                 5.5617
 Frc consts  --     0.3675                 0.4854                 0.7662
 IR Inten    --     2.6328                 0.0676                 0.6477

                    28                     29                     30
                     A                      A                      A
 Frequencies --   532.1495               577.4867               610.4909
 Red. masses --     5.4199                 5.3295                 4.3557
 Frc consts  --     0.9043                 1.0472                 0.9565
 IR Inten    --     0.1552                 2.0157                 2.6849

                    31                     32                     33
                     A                      A                      A
 Frequencies --   625.8178               644.7751               723.8212
 Red. masses --     3.6476                 3.6458                 5.7637
 Frc consts  --     0.8417                 0.8930                 1.7792
 IR Inten    --     3.4597                 1.2735                19.3419

                    34                     35                     36
                     A                      A                      A
 Frequencies --   732.5993               750.7086               771.7516
 Red. masses --     5.6447                 5.6107                11.2283
 Frc consts  --     1.7849                 1.8630                 3.9402
 IR Inten    --    26.4608                 0.3606                16.6711

                    37                     38                     39
                     A                      A                      A
 Frequencies --   785.6061               787.9681               796.3808
 Red. masses --     1.9069                 2.4551                 4.0068
 Frc consts  --     0.6934                 0.8981                 1.4972
 IR Inten    --    39.0056                16.2156                 8.2322

                    40                     41                     42
                     A                      A                      A
 Frequencies --   820.0168               827.4757               884.3719
 Red. masses --     3.0678                 1.8224                 1.6365
 Frc consts  --     1.2154                 0.7352                 0.7541
 IR Inten    --    11.5766                20.0699                 7.8616

                    43                     44                     45
                     A                      A                      A
 Frequencies --   897.0563               914.7412               935.0131
 Red. masses --     2.9751                 1.5800                 1.6385
 Frc consts  --     1.4105                 0.7789                 0.8440
 IR Inten    --    37.1705                 9.1725                 0.1093

                    46                     47                     48
                     A                      A                      A
 Frequencies --   937.7032               966.0878               982.1139
 Red. masses --     1.6249                 1.3311                 1.1985
 Frc consts  --     0.8418                 0.7320                 0.6811
 IR Inten    --     1.3049                 0.8511                 0.1743

                    49                     50                     51
                     A                      A                      A
 Frequencies --   989.0949               995.5972              1026.1932
 Red. masses --     5.6333                 1.2655                 6.2013
 Frc consts  --     3.2471                 0.7390                 3.8476
 IR Inten    --    19.4288                 0.0255                 5.2208

                    52                     53                     54
                     A                      A                      A
 Frequencies --  1056.6457              1064.4897              1071.9890
 Red. masses --     2.3994                 1.4068                 1.4912
 Frc consts  --     1.5784                 0.9392                 1.0096
 IR Inten    --    16.0568                 0.4388                 5.0522

                    55                     56                     57
                     A                      A                      A
 Frequencies --  1113.8909              1134.0314              1185.7284
 Red. masses --     3.1031                 3.5397                 1.3076
 Frc consts  --     2.2685                 2.6821                 1.0831
 IR Inten    --    34.4113               152.0647                36.2632

                    58                     59                     60
                     A                      A                      A
 Frequencies --  1186.1234              1189.7613              1202.4251
 Red. masses --     1.6591                 1.1792                 1.7435
 Frc consts  --     1.3753                 0.9834                 1.4852
 IR Inten    --   316.5442                 2.2462                93.8658

                    61                     62                     63
                     A                      A                      A
 Frequencies --  1209.8047              1232.9898              1269.2523
 Red. masses --     2.1359                 1.4242                 2.4078
 Frc consts  --     1.8419                 1.2756                 2.2854
 IR Inten    --   608.0522                11.6979               100.0177

                    64                     65                     66
                     A                      A                      A
 Frequencies --  1279.5495              1285.0804              1287.7262
 Red. masses --     2.5823                 2.7065                 3.1008
 Frc consts  --     2.4910                 2.6334                 3.0295
 IR Inten    --   162.5443                16.4237               558.2459

                    67                     68                     69
                     A                      A                      A
 Frequencies --  1302.5963              1317.2943              1381.8225
 Red. masses --     2.6275                 3.2948                 6.2401
 Frc consts  --     2.6267                 3.3686                 7.0201
 IR Inten    --   221.6010               236.6022                11.5969

                    70                     71                     72
                     A                      A                      A
 Frequencies --  1423.6613              1426.2799              1428.4248
 Red. masses --     1.2815                 6.0623                 1.3086
 Frc consts  --     1.5303                 7.2661                 1.5731
 IR Inten    --    18.7211                12.1835                18.2743

                    73                     74                     75
                     A                      A                      A
 Frequencies --  1435.6779              1453.5250              1477.1835
 Red. masses --     2.2657                 1.2356                 2.2470
 Frc consts  --     2.7514                 1.5381                 2.8889
 IR Inten    --    76.1110                16.5159                26.5294

                    76                     77                     78
                     A                      A                      A
 Frequencies --  1497.2974              1500.6392              1516.0089
 Red. masses --     1.4517                 1.0466                 2.0049
 Frc consts  --     1.9175                 1.3887                 2.7148
 IR Inten    --    19.2156                 0.4395                47.6973

                    79                     80                     81
                     A                      A                      A
 Frequencies --  1519.2566              1519.6383              1520.6039
 Red. masses --     1.0469                 1.0509                 1.0515
 Frc consts  --     1.4237                 1.4299                 1.4326
 IR Inten    --     0.4381                 5.8061                 0.7461

                    82                     83                     84
                     A                      A                      A
 Frequencies --  1526.2858              1533.9160              1536.6728
 Red. masses --     1.0667                 1.0527                 1.0797
 Frc consts  --     1.4640                 1.4593                 1.5021
 IR Inten    --    12.0083                 0.9852                12.6345

                    85                     86                     87
                     A                      A                      A
 Frequencies --  1555.9246              1567.4720              1639.4005
 Red. masses --     1.0550                 3.6400                 6.7700
 Frc consts  --     1.5048                 5.2693                10.7203
 IR Inten    --    13.9137                 4.6145                39.2059

                    88                     89                     90
                     A                      A                      A
 Frequencies --  1657.2145              1684.1247              1825.7546
 Red. masses --     5.3692                 6.6343                12.0799
 Frc consts  --     8.6880                11.0865                23.7247
 IR Inten    --    54.1874                12.7427               216.8123

                    91                     92                     93
                     A                      A                      A
 Frequencies --  3027.3314              3059.2400              3060.4728
 Red. masses --     1.0344                 1.0356                 1.0378
 Frc consts  --     5.5855                 5.7102                 5.7274
 IR Inten    --    62.8919                 7.5081                20.9341

                    94                     95                     96
                     A                      A                      A
 Frequencies --  3067.7600              3086.9810              3122.9643
 Red. masses --     1.0379                 1.1067                 1.1026
 Frc consts  --     5.7552                 6.2138                 6.3357
 IR Inten    --    19.8867                40.7201                 6.5345

                    97                     98                     99
                     A                      A                      A
 Frequencies --  3124.7450              3137.2849              3137.7731
 Red. masses --     1.1024                 1.1033                 1.1026
 Frc consts  --     6.3420                 6.3984                 6.3959
 IR Inten    --    16.1042                26.6693                46.0611

                   100                    101                    102
                     A                      A                      A
 Frequencies --  3158.6355              3167.7588              3170.7941
 Red. masses --     1.1001                 1.1003                 1.0996
 Frc consts  --     6.4667                 6.5050                 6.5137
 IR Inten    --    24.5297                 0.8820                14.5892

                   103                    104                    105
                     A                      A                      A
 Frequencies --  3185.9336              3201.4089              3228.3174
 Red. masses --     1.0866                 1.0920                 1.0914
 Frc consts  --     6.4979                 6.5938                 6.7019
 IR Inten    --     7.3233                25.5896                 0.6871

                   106                    107                    108
                     A                      A                      A
 Frequencies --  3228.6834              3233.4237              3244.4400
 Red. masses --     1.0892                 1.0928                 1.0936
 Frc consts  --     6.6898                 6.7316                 6.7824
 IR Inten    --    23.3447                 8.5835                 2.9930

 - Thermochemistry -
 -------------------
 Temperature   298.150 Kelvin.  Pressure   1.00000 Atm.
 Atom     1 has atomic number  6 and mass  12.00000

 Molecular mass:   274.12051 amu.
 Principal axes and moments of inertia in atomic units:
                           1         2         3
     Eigenvalues --  2632.60402********************
           X            0.99997   0.00723   0.00046
           Y           -0.00723   0.99996   0.00455
           Z           -0.00043  -0.00455   0.99999
 This molecule is an asymmetric top.
 Rotational symmetry number  1.
 Warning -- assumption of classical behavior for rotation
           may cause significant error
 Rotational temperatures (Kelvin)      0.03290     0.00809     0.00680
 Rotational constants (GHZ):           0.68553     0.16847     0.14170
 Zero-point vibrational energy     820373.3 (Joules/Mol)
                                  196.07392 (Kcal/Mol)
 Warning -- explicit consideration of  30 degrees of freedom as
           vibrations may cause significant error
 Vibrational temperatures:     30.51    40.47    71.47   109.83   123.62
          (Kelvin)            166.78   201.53   209.68   260.22   284.80
                              301.46   328.56   342.43   371.48   380.90
                              393.97   418.65   471.63   500.93   530.39
                              587.93   611.88   623.69   636.24   660.23
                              688.51   695.71   765.64   830.87   878.36
                              900.41   927.69  1041.42  1054.05  1080.10
                             1110.38  1130.31  1133.71  1145.81  1179.82
                             1190.55  1272.41  1290.66  1316.11  1345.27
                             1349.14  1389.98  1413.04  1423.09  1432.44
                             1476.46  1520.28  1531.56  1542.35  1602.64
                             1631.62  1706.00  1706.56  1711.80  1730.02
                             1740.64  1774.00  1826.17  1840.98  1848.94
                             1852.75  1874.14  1895.29  1988.13  2048.33
                             2052.10  2055.18  2065.62  2091.30  2125.33
                             2154.27  2159.08  2181.20  2185.87  2186.42
                             2187.81  2195.98  2206.96  2210.93  2238.63
                             2255.24  2358.73  2384.36  2423.08  2626.85
                             4355.65  4401.56  4403.33  4413.82  4441.47
                             4493.24  4495.81  4513.85  4514.55  4544.57
                             4557.69  4562.06  4583.84  4606.11  4644.82
                             4645.35  4652.17  4668.02

 Zero-point correction=                           0.312464 (Hartree/Particle)
 Thermal correction to Energy=                    0.331414
 Thermal correction to Enthalpy=                  0.332359
 Thermal correction to Gibbs Free Energy=         0.264438
 Sum of electronic and zero-point Energies=           -921.149940
 Sum of electronic and thermal Energies=              -921.130989
 Sum of electronic and thermal Enthalpies=            -921.130045
 Sum of electronic and thermal Free Energies=         -921.197966

                     E (Thermal)             CV                S
                      KCal/Mol        Cal/Mol-Kelvin    Cal/Mol-Kelvin
 Total                  207.966             72.820            142.952
 Electronic               0.000              0.000              0.000
 Translational            0.889              2.981             42.724
 Rotational               0.889              2.981             34.240
 Vibrational            206.188             66.858             65.988
 Vibration     1          0.593              1.985              6.518
 Vibration     2          0.593              1.984              5.957
 Vibration     3          0.595              1.978              4.830
 Vibration     4          0.599              1.965              3.983
 Vibration     5          0.601              1.959              3.751
 Vibration     6          0.608              1.936              3.167
 Vibration     7          0.615              1.913              2.803
 Vibration     8          0.617              1.907              2.727
 Vibration     9          0.630              1.866              2.320
 Vibration    10          0.637              1.843              2.152
 Vibration    11          0.642              1.826              2.048
 Vibration    12          0.651              1.798              1.892
 Vibration    13          0.656              1.782              1.818
 Vibration    14          0.667              1.749              1.674
 Vibration    15          0.671              1.738              1.630
 Vibration    16          0.676              1.722              1.572
 Vibration    17          0.687              1.691              1.468
 Vibration    18          0.711              1.620              1.271
 Vibration    19          0.726              1.579              1.174
 Vibration    20          0.741              1.537              1.085
 Vibration    21          0.773              1.451              0.931
 Vibration    22          0.787              1.415              0.874
 Vibration    23          0.794              1.397              0.847
 Vibration    24          0.802              1.378              0.820
 Vibration    25          0.817              1.341              0.769
 Vibration    26          0.835              1.298              0.714
 Vibration    27          0.840              1.287              0.701
 Vibration    28          0.887              1.179              0.582
 Vibration    29          0.934              1.080              0.490
 Vibration    30          0.970              1.010              0.432

 Optimization completed.
    -- Stationary point found.
 Normal termination of Gaussian 09 at Wed Sep 29 23:23:56 2021.
 Gaussian 09:  AM64L-G09RevA.02 11-Jun-2009

 ----------------------------------------------------------------------
 #p TD(NStates=10, Root=1) b3lyp/6-31G* volume pop=NPA density=current
 Geom=AllCheck Guess=Read
 ----------------------------------------------------------------------

 COc1ccc(c2c1cccc2)OC(=O)OC(C)(C)C_conf_0
 ----------------------------------------
 Redundant internal coordinates taken from checkpoint file:
 C16H18O4_1e7e_conf_0.chk
 Charge =  0 Multiplicity = 1

                         Standard orientation:
 ---------------------------------------------------------------------
 Center     Atomic      Atomic             Coordinates (Angstroms)
 Number     Number       Type             X           Y           Z
 ---------------------------------------------------------------------
      1          6           0       -4.850658   -2.517743    0.163756
      2          8           0       -4.419264   -1.166979    0.168170
      3          6           0       -3.092984   -0.912447   -0.029915
      4          6           0       -2.132753   -1.880423   -0.244003
      5          6           0       -0.779152   -1.516504   -0.440985
      6          6           0       -0.407571   -0.197809   -0.410222
      7          6           0       -1.360752    0.838067   -0.194887
      8          6           0       -2.731250    0.473903   -0.003596
      9          6           0       -3.691825    1.495094    0.210145
     10          6           0       -3.315001    2.820274    0.234533
     11          6           0       -1.960987    3.180112    0.045191
     12          6           0       -1.004345    2.211885   -0.166356
     13          8           0        0.899471    0.223461   -0.672742
     14          6           0        1.943339   -0.332784   -0.001400
     15          8           0        1.867690   -1.219074    0.817811
     16          8           0        3.035682    0.296367   -0.440508
     17          6           0        4.373425   -0.074003    0.067625
     18          6           0        4.677200   -1.534119   -0.280925
     19          6           0        5.288407    0.874767   -0.709556
     20          6           0        4.451705    0.198177    1.572590
     21          1           0       -5.926741   -2.489443    0.344410
     22          1           0       -4.362614   -3.097259    0.958373
     23          1           0       -4.656589   -2.998356   -0.804215
     24          1           0       -2.392996   -2.931776   -0.266101
     25          1           0       -0.036289   -2.287673   -0.602894
     26          1           0       -4.727891    1.210700    0.354402
     27          1           0       -4.060843    3.593220    0.399152
     28          1           0       -1.673855    4.228100    0.065506
     29          1           0        0.034674    2.482407   -0.318089
     30          1           0        4.559759   -1.700683   -1.357263
     31          1           0        4.017461   -2.215821    0.258386
     32          1           0        5.714095   -1.765120   -0.012953
     33          1           0        5.189254    0.710648   -1.787232
     34          1           0        6.332106    0.704081   -0.425938
     35          1           0        5.035513    1.917858   -0.495007
     36          1           0        3.781485   -0.458963    2.129351
     37          1           0        4.187207    1.239558    1.785741
     38          1           0        5.476852    0.029629    1.920560
 ---------------------------------------------------------------------

 SCF Done:  E(RB3LYP) =  -921.462403520     A.U. after    1 cycles

 Excitation energies and oscillator strengths:

 Excited State   1:      Singlet-A      4.1153 eV  301.28 nm  f=0.1306  <S**2>=0.000
      72 -> 75        -0.11492
      73 -> 74         0.69068
 This state for optimization and/or second-order correction.
 Total Energy, E(TD-HF/TD-KS) =  -921.311170573
 Copying the excited state density for this state as the 1-particle RhoCI density.

 Excited State   2:      Singlet-A      4.3795 eV  283.10 nm  f=0.0255  <S**2>=0.000
      72 -> 74         0.39302
      73 -> 75         0.58475

 Excited State   3:      Singlet-A      5.4556 eV  227.26 nm  f=0.0300  <S**2>=0.000
      71 -> 74         0.48073
      72 -> 75        -0.12262
      73 -> 76         0.48464

 Excited State   4:      Singlet-A      5.6310 eV  220.18 nm  f=0.4155  <S**2>=0.000
      69 -> 74        -0.11077
      71 -> 75         0.35154
      72 -> 74         0.47402
      73 -> 75        -0.32932

 Excited State   5:      Singlet-A      5.6906 eV  217.88 nm  f=0.0785  <S**2>=0.000
      71 -> 74        -0.41419
      72 -> 75         0.13972
      73 -> 76         0.48939
      73 -> 77         0.24765

 Excited State   6:      Singlet-A      6.0183 eV  206.01 nm  f=0.0234  <S**2>=0.000
      70 -> 74         0.62252
      70 -> 76         0.13920
      71 -> 75         0.22370
      72 -> 76        -0.10633

 Excited State   7:      Singlet-A      6.2141 eV  199.52 nm  f=0.2332  <S**2>=0.000
      70 -> 74        -0.13836
      71 -> 74        -0.18450
      71 -> 75         0.38440
      72 -> 74        -0.20826
      72 -> 75        -0.32989
      72 -> 76        -0.16736
      73 -> 75         0.12556
      73 -> 77        -0.26748

 Excited State   8:      Singlet-A      6.2709 eV  197.71 nm  f=0.3916  <S**2>=0.000
      70 -> 74        -0.18387
      71 -> 74         0.10760
      71 -> 75         0.22413
      71 -> 76         0.11831
      72 -> 74        -0.18814
      72 -> 75         0.53790
      73 -> 74         0.10082
      73 -> 75         0.12455

 Excited State   9:      Singlet-A      6.3824 eV  194.26 nm  f=0.2153  <S**2>=0.000
      67 -> 74         0.10313
      70 -> 74        -0.14267
      71 -> 74         0.18000
      71 -> 75         0.16891
      72 -> 74        -0.13055
      72 -> 75        -0.12847
      73 -> 77         0.57183

 Excited State  10:      Singlet-A      6.5720 eV  188.66 nm  f=0.0053  <S**2>=0.000
      67 -> 74         0.17082
      69 -> 74         0.63373
      70 -> 76         0.11319
      72 -> 76        -0.12445

 The electronic state is 1-A.
 Alpha  occ. eigenvalues --  -19.19871 -19.18882 -19.18110 -19.13364 -10.36015
 Alpha  occ. eigenvalues --  -10.26196 -10.24782 -10.24307 -10.24232 -10.19809
 Alpha  occ. eigenvalues --  -10.19581 -10.19027 -10.18755 -10.18686 -10.18566
 Alpha  occ. eigenvalues --  -10.18477 -10.18470 -10.18179 -10.17826 -10.17753
 Alpha  occ. eigenvalues --   -1.13593  -1.06706  -1.05149  -1.01792  -0.86819
 Alpha  occ. eigenvalues --   -0.82076  -0.81223  -0.77256  -0.74348  -0.72395
 Alpha  occ. eigenvalues --   -0.70474  -0.69673  -0.69592  -0.65512  -0.61919
 Alpha  occ. eigenvalues --   -0.61716  -0.58560  -0.54880  -0.53085  -0.51440
 Alpha  occ. eigenvalues --   -0.51208  -0.50117  -0.48359  -0.47852  -0.47072
 Alpha  occ. eigenvalues --   -0.46142  -0.45925  -0.44673  -0.43848  -0.42916
 Alpha  occ. eigenvalues --   -0.42351  -0.41725  -0.41268  -0.40743  -0.40061
 Alpha  occ. eigenvalues --   -0.39311  -0.38923  -0.37880  -0.37162  -0.36169
 Alpha  occ. eigenvalues --   -0.35951  -0.35337  -0.34297  -0.34015  -0.33855
 Alpha  occ. eigenvalues --   -0.33049  -0.32151  -0.29926  -0.29745  -0.27830
 Alpha  occ. eigenvalues --   -0.25643  -0.24104  -0.19618
 Alpha virt. eigenvalues --   -0.02927  -0.00630   0.03410   0.05491   0.08177
 Alpha virt. eigenvalues --    0.09166   0.09928   0.10681   0.10756   0.11352
 Alpha virt. eigenvalues --    0.13483   0.14604   0.14933   0.15174   0.15554

 Mulliken atomic charges:
              1
     1  C   -0.229355
     2  O   -0.463892
     3  C    0.326819
     4  C   -0.201506
     5  C   -0.149482
     6  C    0.291201
     7  C    0.100384
     8  C    0.072027
     9  C   -0.228583
    10  C   -0.132203
    11  C   -0.133695
    12  C   -0.238017
    13  O   -0.499530
    14  C    0.799421
    15  O   -0.480097
    16  O   -0.486702
    17  C    0.304024
    18  C   -0.469448
    19  C   -0.450244
    20  C   -0.468340
    21  H    0.183567
    22  H    0.168666
    23  H    0.167108
    24  H    0.145548
    25  H    0.157563
    26  H    0.122131
    27  H    0.113899
    28  H    0.112734
    29  H    0.123495
    30  H    0.151872
    31  H    0.184989
    32  H    0.148294
    33  H    0.158840
    34  H    0.147954
    35  H    0.160604
    36  H    0.187503
    37  H    0.155449
    38  H    0.147001
 Sum of Mulliken atomic charges =  -0.00000

 Dipole moment (field-independent basis, Debye):
    X=              0.7716    Y=             -3.8961    Z=             -0.3443  Tot=              3.9867
 Quadrupole moment (field-independent basis, Debye-Ang):
   XX=            -89.6603   YY=           -108.6020   ZZ=           -120.8213
   XY=             15.8690   XZ=             -0.6665   YZ=              3.2447

 Summary of Natural Population Analysis:

                                       Natural Population
                Natural  -----------------------------------------------
    Atom  No    Charge         Core      Valence    Rydberg      Total
 -----------------------------------------------------------------------
      C    1   -0.32361      1.99943     4.30989    0.01429     6.32361
      O    2   -0.46061      1.99974     6.44883    0.01203     8.46061
      C    3    0.36532      1.99873     3.61364    0.02231     5.63468
      C    4   -0.28399      1.99904     4.27169    0.01326     6.28399
      C    5   -0.26221      1.99901     4.24762    0.01558     6.26221
      C    6    0.36669      1.99860     3.61253    0.02218     5.63331
      C    7   -0.08025      1.99896     4.06592    0.01536     6.08025
      C    8   -0.07046      1.99899     4.05608    0.01539     6.07046
      C    9   -0.30443      1.99907     4.28741    0.01795     6.30443
      C   10   -0.22594      1.99911     4.21128    0.01555     6.22594
      C   11   -0.23720      1.99911     4.22248    0.01561     6.23720
      C   12   -0.30296      1.99907     4.28638    0.01752     6.30296
      O   13   -0.51459      1.99968     6.50358    0.01133     8.51459
      C   14    1.05466      1.99953     2.89321    0.05260     4.94534
      O   15   -0.63591      1.99976     6.61600    0.02015     8.63591
      O   16   -0.55887      1.99970     6.54651    0.01266     8.55887
      C   17    0.28239      1.99900     3.69977    0.01884     5.71761
      C   18   -0.70342      1.99932     4.69496    0.00914     6.70342
      C   19   -0.68532      1.99932     4.67579    0.01021     6.68532
      C   20   -0.70348      1.99932     4.69492    0.00925     6.70348
      H   21    0.23595      0.00000     0.76354    0.00051     0.76405
      H   22    0.21303      0.00000     0.78519    0.00178     0.78697
      H   23    0.21221      0.00000     0.78600    0.00179     0.78779
      H   24    0.24189      0.00000     0.75724    0.00086     0.75811
      H   25    0.25810      0.00000     0.74081    0.00109     0.74190
      H   26    0.23644      0.00000     0.76249    0.00107     0.76356
      H   27    0.22834      0.00000     0.77081    0.00085     0.77166
      H   28    0.22849      0.00000     0.77069    0.00082     0.77151
      H   29    0.23668      0.00000     0.76215    0.00118     0.76332
      H   30    0.23744      0.00000     0.76138    0.00117     0.76256
      H   31    0.25685      0.00000     0.74195    0.00120     0.74315
      H   32    0.23918      0.00000     0.76004    0.00078     0.76082
      H   33    0.24252      0.00000     0.75640    0.00108     0.75748
      H   34    0.23718      0.00000     0.76214    0.00068     0.76282
      H   35    0.24355      0.00000     0.75537    0.00107     0.75645
      H   36    0.25834      0.00000     0.74051    0.00115     0.74166
      H   37    0.23964      0.00000     0.75921    0.00114     0.76036
      H   38    0.23834      0.00000     0.76089    0.00077     0.76166
 =======================================================================
   * Total *   -0.00000     39.98449   105.65531    0.36021   146.00000

 Normal termination of Gaussian 09 at Thu Sep 30 06:36:24 2021.
