 Gaussian 09, Revision A.02,

 -----------------------------------
 #p opt b3lyp/6-31G* scf=(xqc,tight)
 -----------------------------------

 -----------------------------------
 CCC(=O)Oc1c2ccccc2cc2c1cccc2_conf_0
 -----------------------------------
 Symbolic Z-matrix:
 Charge =  0 Multiplicity = 1

 SCF Done:  E(RB3LYP) =  -806.708049164     A.U. after   16 cycles
 SCF Done:  E(RB3LYP) =  -806.717928310     A.U. after   15 cycles
 SCF Done:  E(RB3LYP) =  -806.718378881     A.U. after   12 cycles
 SCF Done:  E(RB3LYP) =  -806.717654012     A.U. after   17 cycles
 SCF Done:  E(RB3LYP) =  -806.718759042     A.U. after   15 cycles
 SCF Done:  E(RB3LYP) =  -806.719041451     A.U. after   14 cycles
 SCF Done:  E(RB3LYP) =  -806.719061257     A.U. after   12 cycles
 SCF Done:  E(RB3LYP) =  -806.719047279     A.U. after   11 cycles
 SCF Done:  E(RB3LYP) =  -806.719043349     A.U. after   17 cycles
 SCF Done:  E(RB3LYP) =  -806.719065201     A.U. after   12 cycles
 SCF Done:  E(RB3LYP) =  -806.719062984     A.U. after   10 cycles
 SCF Done:  E(RB3LYP) =  -806.719042205     A.U. after   12 cycles
 SCF Done:  E(RB3LYP) =  -806.719052237     A.U. after   17 cycles
 SCF Done:  E(RB3LYP) =  -806.719048834     A.U. after   10 cycles
 SCF Done:  E(RB3LYP) =  -806.719049082     A.U. after    9 cycles
 SCF Done:  E(RB3LYP) =  -806.719046386     A.U. after   10 cycles
 SCF Done:  E(RB3LYP) =  -806.719045371     A.U. after    9 cycles
 SCF Done:  E(RB3LYP) =  -806.719044694     A.U. after    9 cycles
 Optimization completed.
    -- Stationary point found.
 Normal termination of Gaussian 09 at Thu Sep 30 00:46:12 2021.

 ----------------------------------------------------------------------
 #p freq b3lyp/6-31G* volume NMR pop=NPA density=current Geom=AllCheck
 Guess=Read
 ----------------------------------------------------------------------

 CCC(=O)Oc1c2ccccc2cc2c1cccc2_conf_0
 -----------------------------------
 Redundant internal coordinates taken from checkpoint file:
 C17H14O2_5f6d_conf_0.chk
 Charge =  0 Multiplicity = 1

 SCF Done:  E(RB3LYP) =  -806.719044694     A.U. after    1 cycles

  1  C    Isotropic =   178.9782   Anisotropy =    12.9938

  2  C    Isotropic =   161.8240   Anisotropy =    34.3791

  3  C    Isotropic =    25.3150   Anisotropy =    74.4417

  4  O    Isotropic =   -80.4863   Anisotropy =   587.3630

  5  O    Isotropic =   112.8071   Anisotropy =   195.7530

  6  C    Isotropic =    50.0805   Anisotropy =    85.8288

  7  C    Isotropic =    70.9239   Anisotropy =   180.1350

  8  C    Isotropic =    72.3281   Anisotropy =   157.0496

  9  C    Isotropic =    70.2880   Anisotropy =   160.5656

 10  C    Isotropic =    70.4851   Anisotropy =   160.1261

 11  C    Isotropic =    67.0511   Anisotropy =   143.3160

 12  C    Isotropic =    64.6845   Anisotropy =   192.6688

 13  C    Isotropic =    70.0596   Anisotropy =   124.5952

 14  C    Isotropic =    64.6843   Anisotropy =   192.6694

 15  C    Isotropic =    70.9228   Anisotropy =   180.1403

 16  C    Isotropic =    72.3272   Anisotropy =   157.0549

 17  C    Isotropic =    70.2873   Anisotropy =   160.5666

 18  C    Isotropic =    70.4846   Anisotropy =   160.1265

 19  C    Isotropic =    67.0511   Anisotropy =   143.3152

 20  H    Isotropic =    31.2927   Anisotropy =     9.8901

 21  H    Isotropic =    30.8065   Anisotropy =     8.2021

 22  H    Isotropic =    30.8050   Anisotropy =     8.1994

 23  H    Isotropic =    29.3362   Anisotropy =     5.0504

 24  H    Isotropic =    29.3358   Anisotropy =     5.0582

 25  H    Isotropic =    24.2464   Anisotropy =    10.6761

 26  H    Isotropic =    24.7397   Anisotropy =     6.2796

 27  H    Isotropic =    24.7678   Anisotropy =     5.1045

 28  H    Isotropic =    24.3272   Anisotropy =     7.3431

 29  H    Isotropic =    24.1115   Anisotropy =     8.6771

 30  H    Isotropic =    24.2459   Anisotropy =    10.6759

 31  H    Isotropic =    24.7396   Anisotropy =     6.2794

 32  H    Isotropic =    24.7677   Anisotropy =     5.1047

 33  H    Isotropic =    24.3272   Anisotropy =     7.3431

  Exact polarizability: 206.457   0.013 287.755 -22.221   0.003  84.172
 Approx polarizability: 331.194   0.026 493.594 -53.331   0.009 147.201

                     1                      2                      3
                     A                      A                      A
 Frequencies --     9.0842                42.9784                53.3631
 Red. masses --     2.4713                 5.9863                 2.7031
 Frc consts  --     0.0001                 0.0065                 0.0045
 IR Inten    --     0.4483                 0.3890                 1.6460

                     4                      5                      6
                     A                      A                      A
 Frequencies --    61.7319                84.8795               122.6353
 Red. masses --     4.2798                 5.0909                 3.6773
 Frc consts  --     0.0096                 0.0216                 0.0326
 IR Inten    --     0.7141                 1.3302                 0.0000

                     7                      8                      9
                     A                      A                      A
 Frequencies --   178.2236               201.2182               210.2757
 Red. masses --     4.7292                 4.6761                 1.1486
 Frc consts  --     0.0885                 0.1115                 0.0299
 IR Inten    --     0.0338                 1.7283                 0.1964

                    10                     11                     12
                     A                      A                      A
 Frequencies --   238.4335               262.6290               311.3757
 Red. masses --     4.8275                 4.4024                 6.4763
 Frc consts  --     0.1617                 0.1789                 0.3700
 IR Inten    --     0.0000                 1.5693                 1.5155

                    13                     14                     15
                     A                      A                      A
 Frequencies --   322.8894               344.1004               401.7890
 Red. masses --     4.2364                 4.3163                 6.5841
 Frc consts  --     0.2602                 0.3011                 0.6262
 IR Inten    --     0.3743                12.9014                 0.0358

                    16                     17                     18
                     A                      A                      A
 Frequencies --   417.8214               428.3189               485.4913
 Red. masses --     3.6682                 5.9647                 2.9043
 Frc consts  --     0.3773                 0.6447                 0.4033
 IR Inten    --     2.6142                 0.0123                 0.0089

                    19                     20                     21
                     A                      A                      A
 Frequencies --   506.1197               555.1294               559.1221
 Red. masses --     3.6551                 2.7879                 3.3310
 Frc consts  --     0.5516                 0.5062                 0.6135
 IR Inten    --     0.0134                 1.0815                 5.3550

                    22                     23                     24
                     A                      A                      A
 Frequencies --   589.0209               593.6403               606.5897
 Red. masses --     4.6345                 6.0407                 4.9055
 Frc consts  --     0.9474                 1.2543                 1.0635
 IR Inten    --     0.0044                 0.0214                 4.1642

                    25                     26                     27
                     A                      A                      A
 Frequencies --   628.8735               654.6959               688.9373
 Red. masses --     6.5020                 6.1521                 4.2713
 Frc consts  --     1.5150                 1.5536                 1.1944
 IR Inten    --     9.1916                 1.5220                 6.0454

                    28                     29                     30
                     A                      A                      A
 Frequencies --   722.0666               752.6122               754.9003
 Red. masses --     4.9524                 1.3512                 4.0221
 Frc consts  --     1.5213                 0.4509                 1.3505
 IR Inten    --     7.6701                48.5658                 0.0021

                    31                     32                     33
                     A                      A                      A
 Frequencies --   774.2542               794.3349               815.1078
 Red. masses --     1.3368                 3.0234                 1.3854
 Frc consts  --     0.4722                 1.1240                 0.5423
 IR Inten    --     0.0051                16.5927                 8.0438

                    34                     35                     36
                     A                      A                      A
 Frequencies --   856.9523               870.5906               875.3335
 Red. masses --     1.4812                 1.5304                 4.7305
 Frc consts  --     0.6409                 0.6834                 2.1355
 IR Inten    --    16.3939                 0.0133                 0.3620

                    37                     38                     39
                     A                      A                      A
 Frequencies --   878.9258               895.0433               900.3461
 Red. masses --     5.3034                 2.9477                 2.0395
 Frc consts  --     2.4138                 1.3913                 0.9741
 IR Inten    --     1.9303                 0.9799                26.1597

                    40                     41                     42
                     A                      A                      A
 Frequencies --   944.3952               959.7218               962.6912
 Red. masses --     6.7085                 1.3136                 1.3392
 Frc consts  --     3.5252                 0.7129                 0.7312
 IR Inten    --     0.6506                 0.0096                 1.3862

                    43                     44                     45
                     A                      A                      A
 Frequencies --   990.1730               991.3794              1012.9610
 Red. masses --     1.2695                 1.2817                 2.2926
 Frc consts  --     0.7333                 0.7422                 1.3860
 IR Inten    --     0.0066                 0.3424                 2.5531

                    46                     47                     48
                     A                      A                      A
 Frequencies --  1043.6574              1044.7375              1070.2094
 Red. masses --     2.3749                 2.1496                 3.2188
 Frc consts  --     1.5241                 1.3824                 2.1721
 IR Inten    --     1.3915                 4.4989                 8.2298

                    49                     50                     51
                     A                      A                      A
 Frequencies --  1115.1015              1118.2746              1136.6987
 Red. masses --     2.9084                 1.6610                 2.2126
 Frc consts  --     2.1308                 1.2238                 1.6844
 IR Inten    --   105.5874                 0.1018                 0.3347

                    52                     53                     54
                     A                      A                      A
 Frequencies --  1160.4861              1181.6707              1192.9473
 Red. masses --     3.9540                 1.2314                 1.3141
 Frc consts  --     3.1374                 1.0130                 1.1019
 IR Inten    --   671.2212                 0.5576                 0.9400

                    55                     56                     57
                     A                      A                      A
 Frequencies --  1203.7256              1215.2896              1259.7674
 Red. masses --     1.1217                 1.3177                 1.6860
 Frc consts  --     0.9576                 1.1466                 1.5765
 IR Inten    --     1.1074                 0.7768                 1.0127

                    58                     59                     60
                     A                      A                      A
 Frequencies --  1293.4753              1298.9216              1316.4270
 Red. masses --     1.1767                 2.0837                 2.4426
 Frc consts  --     1.1599                 2.0713                 2.4940
 IR Inten    --     0.0750                 5.4569                13.6318

                    61                     62                     63
                     A                      A                      A
 Frequencies --  1375.8792              1376.6347              1399.3419
 Red. masses --     3.7715                 2.8905                 1.9546
 Frc consts  --     4.2066                 3.2274                 2.2550
 IR Inten    --   125.0996                 1.1190                21.3224

                    64                     65                     66
                     A                      A                      A
 Frequencies --  1422.4715              1427.2510              1447.2247
 Red. masses --     4.8240                 1.6202                 1.3397
 Frc consts  --     5.7510                 1.9446                 1.6532
 IR Inten    --     3.0039                 0.5069                 4.3302

                    67                     68                     69
                     A                      A                      A
 Frequencies --  1450.4009              1490.5616              1495.5559
 Red. masses --     6.0069                 1.0804                 2.0486
 Frc consts  --     7.4452                 1.4142                 2.6997
 IR Inten    --    14.2860                14.6650                 6.0485

                    70                     71                     72
                     A                      A                      A
 Frequencies --  1500.3655              1525.5197              1530.3687
 Red. masses --     2.7581                 1.0384                 1.0540
 Frc consts  --     3.6580                 1.4238                 1.4544
 IR Inten    --     0.0155                 6.4771                10.6253

                    73                     74                     75
                     A                      A                      A
 Frequencies --  1535.0538              1590.0093              1608.8875
 Red. masses --     2.6096                 5.9796                 7.3009
 Frc consts  --     3.6230                 8.9068                11.1347
 IR Inten    --     1.8448                 1.3273                 3.9191

                    76                     77                     78
                     A                      A                      A
 Frequencies --  1635.9720              1682.8549              1687.5057
 Red. masses --     5.5296                 6.1121                 5.6167
 Frc consts  --     8.7195                10.1985                 9.4236
 IR Inten    --     2.3129                 0.4123                 8.7506

                    79                     80                     81
                     A                      A                      A
 Frequencies --  1855.1750              3053.1629              3068.1783
 Red. masses --    12.0622                 1.0616                 1.0356
 Frc consts  --    24.4595                 5.8306                 5.7441
 IR Inten    --   171.7457                14.5898                24.9924

                    82                     83                     84
                     A                      A                      A
 Frequencies --  3082.0232              3137.0493              3143.5670
 Red. masses --     1.1008                 1.1029                 1.1031
 Frc consts  --     6.1606                 6.3949                 6.4225
 IR Inten    --     4.5438                23.8531                18.6160

                    85                     86                     87
                     A                      A                      A
 Frequencies --  3178.9280              3181.8129              3183.6963
 Red. masses --     1.0887                 1.0860                 1.0874
 Frc consts  --     6.4821                 6.4780                 6.4937
 IR Inten    --     1.4967                 0.0191                 6.1748

                    88                     89                     90
                     A                      A                      A
 Frequencies --  3192.7591              3193.0429              3207.1007
 Red. masses --     1.0893                 1.0894                 1.0947
 Frc consts  --     6.5422                 6.5439                 6.6338
 IR Inten    --     1.7820                28.6631                45.9849

                    91                     92                     93
                     A                      A                      A
 Frequencies --  3207.4120              3223.1523              3223.8526
 Red. masses --     1.0947                 1.0939                 1.0941
 Frc consts  --     6.6351                 6.6956                 6.6996
 IR Inten    --    23.1592                25.0371                14.4218

 - Thermochemistry -
 -------------------
 Temperature   298.150 Kelvin.  Pressure   1.00000 Atm.
 Atom     1 has atomic number  6 and mass  12.00000

 Molecular mass:   250.09938 amu.
 Principal axes and moments of inertia in atomic units:
                           1         2         3
     Eigenvalues --  4257.001464718.121438493.28491
           X            0.99999  -0.00006  -0.00495
           Y            0.00006   1.00000  -0.00000
           Z            0.00495   0.00000   0.99999
 This molecule is an asymmetric top.
 Rotational symmetry number  1.
 Warning -- assumption of classical behavior for rotation
           may cause significant error
 Rotational temperatures (Kelvin)      0.02035     0.01836     0.01020
 Rotational constants (GHZ):           0.42395     0.38251     0.21249
 Zero-point vibrational energy     695480.8 (Joules/Mol)
                                  166.22391 (Kcal/Mol)
 Warning -- explicit consideration of  24 degrees of freedom as
           vibrations may cause significant error
 Vibrational temperatures:     13.07    61.84    76.78    88.82   122.12
          (Kelvin)            176.44   256.42   289.51   302.54   343.05
                              377.86   448.00   464.57   495.08   578.08
                              601.15   616.25   698.51   728.19   798.71
                              804.45   847.47   854.11   872.75   904.81
                              941.96   991.23  1038.89  1082.84  1086.13
                             1113.98  1142.87  1172.76  1232.96  1252.58
                             1259.41  1264.58  1287.77  1295.40  1358.77
                             1380.82  1385.10  1424.64  1426.37  1457.42
                             1501.59  1503.14  1539.79  1604.38  1608.95
                             1635.45  1669.68  1700.16  1716.38  1731.89
                             1748.53  1812.52  1861.02  1868.86  1894.04
                             1979.58  1980.67  2013.34  2046.62  2053.49
                             2082.23  2086.80  2144.58  2151.77  2158.69
                             2194.88  2201.86  2208.60  2287.67  2314.83
                             2353.80  2421.25  2427.94  2669.18  4392.81
                             4414.42  4434.34  4513.51  4522.89  4573.76
                             4577.91  4580.62  4593.66  4594.07  4614.30
                             4614.74  4637.39  4638.40

 Zero-point correction=                           0.264895 (Hartree/Particle)
 Thermal correction to Energy=                    0.280528
 Thermal correction to Enthalpy=                  0.281472
 Thermal correction to Gibbs Free Energy=         0.219483
 Sum of electronic and zero-point Energies=           -806.454150
 Sum of electronic and thermal Energies=              -806.438517
 Sum of electronic and thermal Enthalpies=            -806.437573
 Sum of electronic and thermal Free Energies=         -806.499562

                     E (Thermal)             CV                S
                      KCal/Mol        Cal/Mol-Kelvin    Cal/Mol-Kelvin
 Total                  176.034             61.255            130.467
 Electronic               0.000              0.000              0.000
 Translational            0.889              2.981             42.451
 Rotational               0.889              2.981             33.500
 Vibrational            174.256             55.293             54.517
 Vibration     1          0.593              1.987              8.202
 Vibration     2          0.595              1.980              5.117
 Vibration     3          0.596              1.976              4.689
 Vibration     4          0.597              1.973              4.401
 Vibration     5          0.601              1.960              3.775
 Vibration     6          0.610              1.930              3.058
 Vibration     7          0.629              1.869              2.347
 Vibration     8          0.638              1.838              2.122
 Vibration     9          0.642              1.825              2.041
 Vibration    10          0.656              1.782              1.815
 Vibration    11          0.670              1.741              1.644
 Vibration    12          0.700              1.652              1.355
 Vibration    13          0.708              1.630              1.295
 Vibration    14          0.723              1.587              1.193
 Vibration    15          0.767              1.466              0.956
 Vibration    16          0.781              1.432              0.899
 Vibration    17          0.790              1.409              0.864
 Vibration    18          0.842              1.282              0.695
 Vibration    19          0.861              1.236              0.643
 Vibration    20          0.911              1.128              0.534
 Vibration    21          0.915              1.120              0.526
 Vibration    22          0.946              1.055              0.469
 Vibration    23          0.951              1.045              0.461
 Vibration    24          0.965              1.018              0.438

 Normal termination of Gaussian 09 at Thu Sep 30 02:27:38 2021.
 Gaussian 09:  AM64L-G09RevA.02 11-Jun-2009

 ----------------------------------------------------------------------
 #p TD(NStates=10, Root=1) b3lyp/6-31G* volume pop=NPA density=current
 Geom=AllCheck Guess=Read
 ----------------------------------------------------------------------

 CCC(=O)Oc1c2ccccc2cc2c1cccc2_conf_0
 -----------------------------------
 Redundant internal coordinates taken from checkpoint file:
 C17H14O2_5f6d_conf_0.chk
 Charge =  0 Multiplicity = 1

                         Standard orientation:
 ---------------------------------------------------------------------
 Center     Atomic      Atomic             Coordinates (Angstroms)
 Number     Number       Type             X           Y           Z
 ---------------------------------------------------------------------
      1          6           0        4.922233   -0.001203    0.548794
      2          6           0        3.788899    0.000145   -0.474933
      3          6           0        2.417970   -0.000108    0.169908
      4          8           0        2.182446   -0.000011    1.350559
      5          8           0        1.444515   -0.000261   -0.805800
      6          6           0        0.103874   -0.000069   -0.402344
      7          6           0       -0.547853    1.231301   -0.245206
      8          6           0        0.106336    2.487266   -0.435613
      9          6           0       -0.574940    3.663572   -0.265441
     10          6           0       -1.951262    3.659456    0.104407
     11          6           0       -2.613331    2.475010    0.288042
     12          6           0       -1.945721    1.222044    0.118433
     13          6           0       -2.604488    0.000317    0.295443
     14          6           0       -1.946067   -1.221594    0.118405
     15          6           0       -0.548204   -1.231256   -0.245233
     16          6           0        0.105646   -2.487392   -0.435622
     17          6           0       -0.575959   -3.663514   -0.265452
     18          6           0       -1.952283   -3.659007    0.104375
     19          6           0       -2.614026   -2.474376    0.288001
     20          1           0        5.892763   -0.000876    0.042371
     21          1           0        4.868451   -0.883681    1.193116
     22          1           0        4.868819    0.879905    1.195012
     23          1           0        3.846082   -0.871614   -1.139667
     24          1           0        3.846528    0.873397   -1.137705
     25          1           0        1.150415    2.494403   -0.728841
     26          1           0       -0.065225    4.611493   -0.414662
     27          1           0       -2.472456    4.603571    0.236817
     28          1           0       -3.664357    2.465042    0.566440
     29          1           0       -3.656094    0.000450    0.573567
     30          1           0        1.149730   -2.494796   -0.728817
     31          1           0       -0.066496   -4.611574   -0.414656
     32          1           0       -2.473737   -4.602979    0.236782
     33          1           0       -3.665052   -2.464131    0.566395
 ---------------------------------------------------------------------

 SCF Done:  E(RB3LYP) =  -806.719044694     A.U. after    3 cycles

 Excitation energies and oscillator strengths:

 Excited State   1:      Singlet-A      3.2119 eV  386.02 nm  f=0.0811  <S**2>=0.000
      66 -> 67         0.70073
 This state for optimization and/or second-order correction.
 Total Energy, E(TD-HF/TD-KS) =  -806.601010020
 Copying the excited state density for this state as the 1-particle RhoCI density.

 Excited State   2:      Singlet-A      3.8843 eV  319.20 nm  f=0.0002  <S**2>=0.000
      65 -> 67         0.50206
      66 -> 68         0.49546

 Excited State   3:      Singlet-A      4.5466 eV  272.70 nm  f=0.0001  <S**2>=0.000
      64 -> 67         0.54682
      66 -> 69         0.42844
      66 -> 70        -0.12014

 Excited State   4:      Singlet-A      4.7112 eV  263.17 nm  f=0.0038  <S**2>=0.000
      64 -> 67        -0.24358
      66 -> 69         0.44478
      66 -> 70         0.48241

 Excited State   5:      Singlet-A      4.9604 eV  249.95 nm  f=0.0006  <S**2>=0.000
      64 -> 67         0.36340
      66 -> 69        -0.33011
      66 -> 70         0.49096

 Excited State   6:      Singlet-A      5.0806 eV  244.03 nm  f=0.0042  <S**2>=0.000
      63 -> 67         0.70339

 Excited State   7:      Singlet-A      5.2628 eV  235.59 nm  f=1.7706  <S**2>=0.000
      65 -> 67        -0.49494
      66 -> 68         0.50005

 Excited State   8:      Singlet-A      5.4528 eV  227.38 nm  f=0.0000  <S**2>=0.000
      62 -> 67         0.58488
      66 -> 71        -0.38005

 Excited State   9:      Singlet-A      5.5804 eV  222.18 nm  f=0.0003  <S**2>=0.000
      61 -> 67         0.35289
      64 -> 68         0.46745
      65 -> 69        -0.28703
      65 -> 70         0.17171
      66 -> 71        -0.11183
      66 -> 72        -0.16665

 Excited State  10:      Singlet-A      5.7774 eV  214.60 nm  f=0.0130  <S**2>=0.000
      60 -> 67         0.68035
      63 -> 69        -0.10282
      63 -> 70        -0.11575

 The electronic state is 1-A.
 Alpha  occ. eigenvalues --  -19.19863 -19.14247 -10.32078 -10.25033 -10.20657
 Alpha  occ. eigenvalues --  -10.20259 -10.20258 -10.20206 -10.20205 -10.19341
 Alpha  occ. eigenvalues --  -10.19341 -10.19312 -10.19312 -10.19255 -10.19255
 Alpha  occ. eigenvalues --  -10.19239 -10.19239 -10.19194 -10.18309  -1.10664
 Alpha  occ. eigenvalues --   -1.02539  -0.88089  -0.85030  -0.80462  -0.79435
 Alpha  occ. eigenvalues --   -0.77506  -0.75322  -0.74074  -0.71100  -0.67176
 Alpha  occ. eigenvalues --   -0.64394  -0.62173  -0.60945  -0.59257  -0.56084
 Alpha  occ. eigenvalues --   -0.53573  -0.53183  -0.50277  -0.49395  -0.48040
 Alpha  occ. eigenvalues --   -0.47051  -0.46955  -0.46267  -0.44999  -0.43248
 Alpha  occ. eigenvalues --   -0.43191  -0.41977  -0.41299  -0.40037  -0.39764
 Alpha  occ. eigenvalues --   -0.39064  -0.38079  -0.37871  -0.36948  -0.36131
 Alpha  occ. eigenvalues --   -0.35481  -0.34895  -0.34302  -0.33342  -0.31008
 Alpha  occ. eigenvalues --   -0.30258  -0.29280  -0.27667  -0.25650  -0.24130
 Alpha  occ. eigenvalues --   -0.19367
 Alpha virt. eigenvalues --   -0.06378  -0.01453   0.00355   0.00913   0.04549
 Alpha virt. eigenvalues --    0.06420   0.07915   0.10035   0.10121   0.12115
 Alpha virt. eigenvalues --    0.12999   0.13047   0.14648   0.15365   0.15694

 Mulliken atomic charges:
              1
     1  C   -0.437548
     2  C   -0.359897
     3  C    0.612723
     4  O   -0.438225
     5  O   -0.543067
     6  C    0.164165
     7  C    0.147597
     8  C   -0.189806
     9  C   -0.136804
    10  C   -0.131736
    11  C   -0.200207
    12  C    0.142469
    13  C   -0.282668
    14  C    0.142472
    15  C    0.147562
    16  C   -0.189792
    17  C   -0.136807
    18  C   -0.131731
    19  C   -0.200211
    20  H    0.146102
    21  H    0.165349
    22  H    0.165396
    23  H    0.177007
    24  H    0.177031
    25  H    0.132702
    26  H    0.131399
    27  H    0.132145
    28  H    0.132157
    29  H    0.133798
    30  H    0.132714
    31  H    0.131402
    32  H    0.132146
    33  H    0.132159
 Sum of Mulliken atomic charges =  -0.00000

 Dipole moment (field-independent basis, Debye):
    X=              0.2857    Y=              0.0001    Z=             -1.4071  Tot=              1.4358
 Quadrupole moment (field-independent basis, Debye-Ang):
   XX=            -92.1487   YY=            -96.5397   ZZ=           -116.9473
   XY=              0.0016   XZ=             -7.4984   YZ=              0.0002

 Summary of Natural Population Analysis:

                                       Natural Population
                Natural  -----------------------------------------------
    Atom  No    Charge         Core      Valence    Rydberg      Total
 -----------------------------------------------------------------------
      C    1   -0.67794      1.99947     4.66955    0.00892     6.67794
      C    2   -0.55972      1.99922     4.55082    0.00967     6.55972
      C    3    0.82715      1.99941     3.12776    0.04568     5.17285
      O    4   -0.56466      1.99977     6.54475    0.02015     8.56466
      O    5   -0.55266      1.99971     6.54200    0.01095     8.55266
      C    6    0.35418      1.99861     3.62323    0.02398     5.64582
      C    7   -0.07941      1.99894     4.06568    0.01480     6.07941
      C    8   -0.21157      1.99906     4.19741    0.01510     6.21157
      C    9   -0.22730      1.99910     4.21332    0.01488     6.22730
      C   10   -0.22790      1.99910     4.21407    0.01474     6.22790
      C   11   -0.21065      1.99906     4.19701    0.01458     6.21065
      C   12   -0.05081      1.99903     4.03683    0.01495     6.05081
      C   13   -0.17131      1.99901     4.15869    0.01361     6.17131
      C   14   -0.05082      1.99903     4.03684    0.01495     6.05082
      C   15   -0.07942      1.99894     4.06568    0.01480     6.07942
      C   16   -0.21156      1.99906     4.19739    0.01510     6.21156
      C   17   -0.22730      1.99910     4.21332    0.01488     6.22730
      C   18   -0.22790      1.99910     4.21407    0.01474     6.22790
      C   19   -0.21064      1.99906     4.19701    0.01458     6.21064
      H   20    0.23478      0.00000     0.76442    0.00080     0.76522
      H   21    0.24071      0.00000     0.75820    0.00109     0.75929
      H   22    0.24074      0.00000     0.75817    0.00109     0.75926
      H   23    0.26041      0.00000     0.73821    0.00138     0.73959
      H   24    0.26043      0.00000     0.73820    0.00137     0.73957
      H   25    0.23724      0.00000     0.76149    0.00127     0.76276
      H   26    0.23683      0.00000     0.76236    0.00081     0.76317
      H   27    0.23722      0.00000     0.76197    0.00081     0.76278
      H   28    0.23357      0.00000     0.76534    0.00110     0.76643
      H   29    0.23345      0.00000     0.76523    0.00132     0.76655
      H   30    0.23725      0.00000     0.76148    0.00127     0.76275
      H   31    0.23683      0.00000     0.76236    0.00081     0.76317
      H   32    0.23722      0.00000     0.76197    0.00081     0.76278
      H   33    0.23357      0.00000     0.76534    0.00110     0.76643
 =======================================================================
   * Total *    0.00000     37.98377    93.69015    0.32608   132.00000

 Normal termination of Gaussian 09 at Thu Sep 30 08:48:41 2021.
