 Gaussian 09, Revision A.02,

 -----------------------------------
 #p opt b3lyp/6-31G* scf=(xqc,tight)
 -----------------------------------

 -------------------------------------
 O=C(C(C)(C)C)Oc1ccccc1c1ccccc1_conf_0
 -------------------------------------
 Symbolic Z-matrix:
 Charge =  0 Multiplicity = 1

 SCF Done:  E(RB3LYP) =  -809.112502478     A.U. after   15 cycles
 SCF Done:  E(RB3LYP) =  -809.117370266     A.U. after   12 cycles
 SCF Done:  E(RB3LYP) =  -809.118468408     A.U. after   14 cycles
 SCF Done:  E(RB3LYP) =  -809.118811978     A.U. after   13 cycles
 SCF Done:  E(RB3LYP) =  -809.119332148     A.U. after   13 cycles
 SCF Done:  E(RB3LYP) =  -809.120429876     A.U. after   12 cycles
 SCF Done:  E(RB3LYP) =  -809.120564983     A.U. after   12 cycles
 SCF Done:  E(RB3LYP) =  -809.120765339     A.U. after   14 cycles
 SCF Done:  E(RB3LYP) =  -809.120989743     A.U. after   15 cycles
 SCF Done:  E(RB3LYP) =  -809.120512488     A.U. after   15 cycles
 SCF Done:  E(RB3LYP) =  -809.121484815     A.U. after   12 cycles
 SCF Done:  E(RB3LYP) =  -809.121634758     A.U. after   12 cycles
 SCF Done:  E(RB3LYP) =  -809.121678762     A.U. after   11 cycles
 SCF Done:  E(RB3LYP) =  -809.121703338     A.U. after   11 cycles
 SCF Done:  E(RB3LYP) =  -809.121709630     A.U. after   11 cycles
 SCF Done:  E(RB3LYP) =  -809.121712565     A.U. after    9 cycles
 SCF Done:  E(RB3LYP) =  -809.121712774     A.U. after    8 cycles
 SCF Done:  E(RB3LYP) =  -809.121712881     A.U. after    7 cycles
 Optimization completed.
    -- Stationary point found.
 Normal termination of Gaussian 09 at Wed Sep 29 11:52:24 2021.

 ----------------------------------------------------------------------
 #p freq b3lyp/6-31G* volume NMR pop=NPA density=current Geom=AllCheck
 Guess=Read
 ----------------------------------------------------------------------

 O=C(C(C)(C)C)Oc1ccccc1c1ccccc1_conf_0
 -------------------------------------
 Redundant internal coordinates taken from checkpoint file:
 C17H18O2_22f3_conf_0.chk
 Charge =  0 Multiplicity = 1

 SCF Done:  E(RB3LYP) =  -809.121712881     A.U. after    1 cycles

  1  O    Isotropic =   -70.6254   Anisotropy =   563.0707

  2  C    Isotropic =    19.9294   Anisotropy =    84.5743

  3  C    Isotropic =   148.9474   Anisotropy =    24.7359

  4  C    Isotropic =   162.6089   Anisotropy =    33.8886

  5  C    Isotropic =   161.4541   Anisotropy =    39.4902

  6  C    Isotropic =   162.7877   Anisotropy =    31.3539

  7  O    Isotropic =   101.1352   Anisotropy =   136.3290

  8  C    Isotropic =    46.0808   Anisotropy =   103.2205

  9  C    Isotropic =    72.0722   Anisotropy =   142.8158

 10  C    Isotropic =    68.2915   Anisotropy =   162.1355

 11  C    Isotropic =    70.8023   Anisotropy =   163.0261

 12  C    Isotropic =    64.4121   Anisotropy =   150.1326

 13  C    Isotropic =    57.9484   Anisotropy =   157.3135

 14  C    Isotropic =    56.1565   Anisotropy =   171.8360

 15  C    Isotropic =    67.0988   Anisotropy =   153.3232

 16  C    Isotropic =    68.0319   Anisotropy =   165.7796

 17  C    Isotropic =    69.1627   Anisotropy =   167.3004

 18  C    Isotropic =    68.9943   Anisotropy =   165.5226

 19  C    Isotropic =    66.9214   Anisotropy =   163.9903

 20  H    Isotropic =    30.9195   Anisotropy =     5.3579

 21  H    Isotropic =    31.1391   Anisotropy =     8.9320

 22  H    Isotropic =    31.4198   Anisotropy =     7.8693

 23  H    Isotropic =    30.5590   Anisotropy =     6.2170

 24  H    Isotropic =    31.1257   Anisotropy =     8.4128

 25  H    Isotropic =    30.8467   Anisotropy =     8.6527

 26  H    Isotropic =    30.7312   Anisotropy =     7.3985

 27  H    Isotropic =    30.5778   Anisotropy =     8.0851

 28  H    Isotropic =    31.5179   Anisotropy =     8.2351

 29  H    Isotropic =    25.3188   Anisotropy =     8.0228

 30  H    Isotropic =    24.9566   Anisotropy =     4.4215

 31  H    Isotropic =    25.0178   Anisotropy =     4.0495

 32  H    Isotropic =    25.0063   Anisotropy =     8.5716

 33  H    Isotropic =    25.0394   Anisotropy =     8.1696

 34  H    Isotropic =    24.8879   Anisotropy =     4.3695

 35  H    Isotropic =    24.9711   Anisotropy =     4.0168

 36  H    Isotropic =    24.9755   Anisotropy =     5.3976

 37  H    Isotropic =    24.8405   Anisotropy =     7.3644

  Exact polarizability: 186.872   2.566 223.388  13.483  -2.214 117.251
 Approx polarizability: 272.832   7.489 332.365  29.031  -3.536 200.907

                     1                      2                      3
                     A                      A                      A
 Frequencies --    30.4455                33.7544                54.8230
 Red. masses --     3.1431                 3.8098                 4.8120
 Frc consts  --     0.0017                 0.0026                 0.0085
 IR Inten    --     0.0248                 0.2577                 1.1016

                     4                      5                      6
                     A                      A                      A
 Frequencies --    63.9346                77.6693                93.2704
 Red. masses --     5.7027                 4.4696                 4.7887
 Frc consts  --     0.0137                 0.0159                 0.0245
 IR Inten    --     0.5922                 0.4861                 0.8522

                     7                      8                      9
                     A                      A                      A
 Frequencies --   106.5006               186.0531               199.2520
 Red. masses --     4.5222                 3.9771                 1.3533
 Frc consts  --     0.0302                 0.0811                 0.0317
 IR Inten    --     1.2342                 0.0601                 0.2068

                    10                     11                     12
                     A                      A                      A
 Frequencies --   217.5989               223.9930               261.3899
 Red. masses --     4.3649                 1.5699                 1.0914
 Frc consts  --     0.1218                 0.0464                 0.0439
 IR Inten    --     0.3146                 0.2321                 0.3687

                    13                     14                     15
                     A                      A                      A
 Frequencies --   266.1425               283.5576               295.9297
 Red. masses --     1.4753                 2.4787                 4.1257
 Frc consts  --     0.0616                 0.1174                 0.2129
 IR Inten    --     0.1073                 1.4528                 2.8358

                    16                     17                     18
                     A                      A                      A
 Frequencies --   326.8455               352.2444               358.4098
 Red. masses --     3.1400                 3.1409                 3.9826
 Frc consts  --     0.1976                 0.2296                 0.3014
 IR Inten    --     1.8675                 2.7653                 2.7605

                    19                     20                     21
                     A                      A                      A
 Frequencies --   377.7763               420.6330               444.9072
 Red. masses --     2.3564                 3.0703                 3.4051
 Frc consts  --     0.1981                 0.3201                 0.3971
 IR Inten    --     0.5296                 0.1041                 0.8964

                    22                     23                     24
                     A                      A                      A
 Frequencies --   465.5504               500.1983               547.4607
 Red. masses --     4.6721                 3.8347                 4.2083
 Frc consts  --     0.5966                 0.5653                 0.7431
 IR Inten    --     5.0672                 3.1660                 5.5418

                    25                     26                     27
                     A                      A                      A
 Frequencies --   561.7612               580.6796               623.6149
 Red. masses --     3.8837                 3.9952                 5.0973
 Frc consts  --     0.7221                 0.7937                 1.1680
 IR Inten    --     5.8812                 0.6009                 2.0697

                    28                     29                     30
                     A                      A                      A
 Frequencies --   628.9321               636.5746               719.5287
 Red. masses --     6.7619                 6.0671                 2.0427
 Frc consts  --     1.5759                 1.4485                 0.6231
 IR Inten    --     3.3924                 0.2660                23.7684

                    31                     32                     33
                     A                      A                      A
 Frequencies --   731.8639               745.3097               762.0261
 Red. masses --     3.9527                 5.4919                 5.8212
 Frc consts  --     1.2474                 1.7974                 1.9916
 IR Inten    --     8.5127                 0.0954                 9.2608

                    34                     35                     36
                     A                      A                      A
 Frequencies --   763.3923               786.6749               816.5813
 Red. masses --     1.4364                 1.8126                 3.2544
 Frc consts  --     0.4932                 0.6609                 1.2786
 IR Inten    --    43.3007                12.4576                 2.2360

                    37                     38                     39
                     A                      A                      A
 Frequencies --   845.0090               869.8365               878.9337
 Red. masses --     3.8236                 1.2449                 1.7156
 Frc consts  --     1.6086                 0.5549                 0.7809
 IR Inten    --    10.1029                 0.9998                 1.1198

                    40                     41                     42
                     A                      A                      A
 Frequencies --   911.5536               939.2555               950.1021
 Red. masses --     3.0361                 1.4097                 1.7466
 Frc consts  --     1.4864                 0.7327                 0.9289
 IR Inten    --     7.9337                 5.0214                 1.4046

                    43                     44                     45
                     A                      A                      A
 Frequencies --   952.4235               956.0631               979.1317
 Red. masses --     1.4113                 1.6300                 1.3260
 Frc consts  --     0.7543                 0.8778                 0.7490
 IR Inten    --     1.8952                 3.2298                 1.0782

                    46                     47                     48
                     A                      A                      A
 Frequencies --   982.2030               982.7745              1001.8084
 Red. masses --     1.2578                 1.1994                 1.2437
 Frc consts  --     0.7149                 0.6826                 0.7354
 IR Inten    --     0.0840                 0.0412                 1.2272

                    49                     50                     51
                     A                      A                      A
 Frequencies --  1017.6896              1027.4601              1058.8860
 Red. masses --     6.2281                 7.1900                 1.4820
 Frc consts  --     3.8005                 4.4721                 0.9790
 IR Inten    --     1.3049                11.7433                15.4665

                    52                     53                     54
                     A                      A                      A
 Frequencies --  1062.1981              1065.3485              1077.9117
 Red. masses --     1.4744                 2.0864                 1.9694
 Frc consts  --     0.9801                 1.3952                 1.3482
 IR Inten    --     9.6155                 0.1348                 7.6103

                    55                     56                     57
                     A                      A                      A
 Frequencies --  1109.9360              1136.5588              1154.2477
 Red. masses --     1.6223                 1.8804                 3.5629
 Frc consts  --     1.1775                 1.4312                 2.7967
 IR Inten    --     2.8768                13.9282               469.0728

                    58                     59                     60
                     A                      A                      A
 Frequencies --  1192.7506              1193.2936              1216.9518
 Red. masses --     1.0980                 1.0979                 1.1417
 Frc consts  --     0.9204                 0.9211                 0.9962
 IR Inten    --     0.3707                 0.0487                 0.6353

                    61                     62                     63
                     A                      A                      A
 Frequencies --  1223.5737              1242.5508              1264.7281
 Red. masses --     3.0667                 2.6683                 2.7971
 Frc consts  --     2.7051                 2.4273                 2.6360
 IR Inten    --   152.5324                 1.9050                 9.9385

                    64                     65                     66
                     A                      A                      A
 Frequencies --  1286.1011              1308.9218              1313.1493
 Red. masses --     1.9132                 3.1533                 2.9572
 Frc consts  --     1.8645                 3.1830                 3.0044
 IR Inten    --    27.4745                29.3519                 6.6289

                    67                     68                     69
                     A                      A                      A
 Frequencies --  1337.8053              1345.0874              1369.1140
 Red. masses --     2.6840                 7.3382                 1.6139
 Frc consts  --     2.8302                 7.8224                 1.7824
 IR Inten    --     0.3560                 0.4329                 0.3050

                    70                     71                     72
                     A                      A                      A
 Frequencies --  1421.4135              1431.3778              1459.3057
 Red. masses --     1.2061                 1.2295                 1.2226
 Frc consts  --     1.4358                 1.4842                 1.5340
 IR Inten    --     3.6864                 3.8208                15.4641

                    73                     74                     75
                     A                      A                      A
 Frequencies --  1480.4151              1499.1282              1508.0958
 Red. masses --     2.1540                 2.3192                 1.0490
 Frc consts  --     2.7814                 3.0709                 1.4057
 IR Inten    --    19.4920                 5.3617                 0.0329

                    76                     77                     78
                     A                      A                      A
 Frequencies --  1515.8741              1520.0651              1528.6791
 Red. masses --     1.0458                 1.0464                 1.9914
 Frc consts  --     1.4159                 1.4246                 2.7418
 IR Inten    --     0.8955                 0.3850                39.2129

                    79                     80                     81
                     A                      A                      A
 Frequencies --  1529.6718              1532.6032              1549.9807
 Red. masses --     1.1150                 1.0676                 1.0832
 Frc consts  --     1.5372                 1.4775                 1.5332
 IR Inten    --    14.1442                 8.3617                28.9579

                    82                     83                     84
                     A                      A                      A
 Frequencies --  1553.2380              1627.5685              1639.3232
 Red. masses --     2.4739                 5.4280                 5.8767
 Frc consts  --     3.5165                 8.4716                 9.3049
 IR Inten    --     4.3578                 1.6203                 4.8623

                    85                     86                     87
                     A                      A                      A
 Frequencies --  1661.3446              1663.7076              1824.6730
 Red. masses --     5.8793                 5.9042                12.6648
 Frc consts  --     9.5608                 9.6286                24.8438
 IR Inten    --     1.7339                 3.5789               171.7326

                    88                     89                     90
                     A                      A                      A
 Frequencies --  3049.3810              3054.3338              3061.6186
 Red. masses --     1.0352                 1.0369                 1.0368
 Frc consts  --     5.6718                 5.6992                 5.7261
 IR Inten    --    21.8888                13.2551                27.5224

                    91                     92                     93
                     A                      A                      A
 Frequencies --  3113.5761              3118.8013              3128.0010
 Red. masses --     1.1026                 1.1021                 1.1018
 Frc consts  --     6.2980                 6.3163                 6.3518
 IR Inten    --    16.3859                13.6724                44.8627

                    94                     95                     96
                     A                      A                      A
 Frequencies --  3136.8868              3140.1057              3148.9092
 Red. masses --     1.1020                 1.1023                 1.1008
 Frc consts  --     6.3890                 6.4040                 6.4309
 IR Inten    --    17.6495                21.5692                21.7333

                    97                     98                     99
                     A                      A                      A
 Frequencies --  3180.3423              3187.9729              3189.2234
 Red. masses --     1.0848                 1.0878                 1.0858
 Frc consts  --     6.4646                 6.5136                 6.5066
 IR Inten    --     1.2650                 6.2134                 1.3069

                   100                    101                    102
                     A                      A                      A
 Frequencies --  3197.8788              3199.7106              3207.1747
 Red. masses --     1.0919                 1.0899                 1.0952
 Frc consts  --     6.5787                 6.5745                 6.6374
 IR Inten    --    30.3441                 3.6560                26.0337

                   103                    104                    105
                     A                      A                      A
 Frequencies --  3209.8016              3214.0128              3219.0859
 Red. masses --     1.0938                 1.0957                 1.0968
 Frc consts  --     6.6393                 6.6689                 6.6961
 IR Inten    --    25.9252                 8.4599                12.8115

 - Thermochemistry -
 -------------------
 Temperature   298.150 Kelvin.  Pressure   1.00000 Atm.
 Atom     1 has atomic number  8 and mass  15.99491

 Molecular mass:   254.13068 amu.
 Principal axes and moments of inertia in atomic units:
                           1         2         3
     Eigenvalues --  4018.045405200.560258130.51966
           X            0.99936  -0.03535  -0.00453
           Y            0.03534   0.99937  -0.00134
           Z            0.00458   0.00118   0.99999
 This molecule is an asymmetric top.
 Rotational symmetry number  1.
 Warning -- assumption of classical behavior for rotation
           may cause significant error
 Rotational temperatures (Kelvin)      0.02156     0.01665     0.01065
 Rotational constants (GHZ):           0.44916     0.34703     0.22197
 Zero-point vibrational energy     810481.5 (Joules/Mol)
                                  193.70972 (Kcal/Mol)
 Warning -- explicit consideration of  26 degrees of freedom as
           vibrations may cause significant error
 Vibrational temperatures:     43.80    48.56    78.88    91.99   111.75
          (Kelvin)            134.20   153.23   267.69   286.68   313.08
                              322.28   376.08   382.92   407.98   425.78
                              470.26   506.80   515.67   543.54   605.20
                              640.12   669.82   719.67   787.67   808.25
                              835.47   897.24   904.89   915.89  1035.24
                             1052.99  1072.33  1096.38  1098.35  1131.85
                             1174.88  1215.78  1251.50  1264.59  1311.52
                             1351.38  1366.98  1370.32  1375.56  1408.75
                             1413.17  1413.99  1441.38  1464.23  1478.28
                             1523.50  1528.26  1532.80  1550.87  1596.95
                             1635.25  1660.70  1716.10  1716.88  1750.92
                             1760.45  1787.75  1819.66  1850.41  1883.24
                             1889.33  1924.80  1935.28  1969.85  2045.09
                             2059.43  2099.61  2129.98  2156.91  2169.81
                             2181.00  2187.03  2199.43  2200.85  2205.07
                             2230.07  2234.76  2341.71  2358.62  2390.30
                             2393.70  2625.29  4387.37  4394.50  4404.98
                             4479.74  4487.25  4500.49  4513.27  4517.91
                             4530.57  4575.80  4586.78  4588.58  4601.03
                             4603.66  4614.40  4618.18  4624.24  4631.54

 Zero-point correction=                           0.308696 (Hartree/Particle)
 Thermal correction to Energy=                    0.326283
 Thermal correction to Enthalpy=                  0.327227
 Thermal correction to Gibbs Free Energy=         0.262327
 Sum of electronic and zero-point Energies=           -808.813017
 Sum of electronic and thermal Energies=              -808.795430
 Sum of electronic and thermal Enthalpies=            -808.794486
 Sum of electronic and thermal Free Energies=         -808.859386

                     E (Thermal)             CV                S
                      KCal/Mol        Cal/Mol-Kelvin    Cal/Mol-Kelvin
 Total                  204.745             68.131            136.593
 Electronic               0.000              0.000              0.000
 Translational            0.889              2.981             42.498
 Rotational               0.889              2.981             33.496
 Vibrational            202.968             62.170             60.599
 Vibration     1          0.594              1.984              5.800
 Vibration     2          0.594              1.983              5.596
 Vibration     3          0.596              1.976              4.635
 Vibration     4          0.597              1.972              4.332
 Vibration     5          0.599              1.964              3.949
 Vibration     6          0.602              1.954              3.590
 Vibration     7          0.605              1.944              3.332
 Vibration     8          0.632              1.859              2.267
 Vibration     9          0.637              1.841              2.140
 Vibration    10          0.646              1.814              1.979
 Vibration    11          0.649              1.805              1.927
 Vibration    12          0.669              1.743              1.652
 Vibration    13          0.672              1.735              1.621
 Vibration    14          0.682              1.704              1.512
 Vibration    15          0.690              1.681              1.440
 Vibration    16          0.711              1.622              1.276
 Vibration    17          0.729              1.571              1.156
 Vibration    18          0.733              1.558              1.129
 Vibration    19          0.748              1.518              1.048
 Vibration    20          0.783              1.425              0.890
 Vibration    21          0.804              1.372              0.811
 Vibration    22          0.823              1.326              0.750
 Vibration    23          0.856              1.250              0.658
 Vibration    24          0.903              1.145              0.549
 Vibration    25          0.917              1.114              0.520
 Vibration    26          0.937              1.073              0.484

 Normal termination of Gaussian 09 at Wed Sep 29 13:47:49 2021.
 Gaussian 09:  AM64L-G09RevA.02 11-Jun-2009

 ----------------------------------------------------------------------
 #p TD(NStates=10, Root=1) b3lyp/6-31G* volume pop=NPA density=current
 Geom=AllCheck Guess=Read
 ----------------------------------------------------------------------

 O=C(C(C)(C)C)Oc1ccccc1c1ccccc1_conf_0
 -------------------------------------
 Redundant internal coordinates taken from checkpoint file:
 C17H18O2_22f3_conf_0.chk
 Charge =  0 Multiplicity = 1

                         Standard orientation:
 ---------------------------------------------------------------------
 Center     Atomic      Atomic             Coordinates (Angstroms)
 Number     Number       Type             X           Y           Z
 ---------------------------------------------------------------------
      1          8           0        1.679945    0.648926    1.545605
      2          6           0        1.771846    0.299277    0.392756
      3          6           0        2.923726   -0.504746   -0.217893
      4          6           0        2.368050   -1.751525   -0.939721
      5          6           0        3.660638    0.399989   -1.233069
      6          6           0        3.880977   -0.921982    0.909648
      7          8           0        0.826771    0.597692   -0.554726
      8          6           0       -0.242982    1.432695   -0.209147
      9          6           0       -0.029597    2.808802   -0.207814
     10          6           0       -1.099438    3.675719    0.004343
     11          6           0       -2.380006    3.157053    0.201824
     12          6           0       -2.578090    1.777904    0.197817
     13          6           0       -1.514650    0.880242    0.003933
     14          6           0       -1.766513   -0.587549    0.021555
     15          6           0       -2.721033   -1.148556   -0.840353
     16          6           0       -2.996797   -2.515861   -0.806458
     17          6           0       -2.325775   -3.343585    0.094756
     18          6           0       -1.379644   -2.794519    0.963007
     19          6           0       -1.100846   -1.428177    0.928042
     20          1           0        1.696950   -1.474278   -1.756541
     21          1           0        1.812313   -2.396954   -0.250766
     22          1           0        3.198898   -2.334104   -1.354401
     23          1           0        2.997637    0.707013   -2.047172
     24          1           0        4.506816   -0.146178   -1.665511
     25          1           0        4.055481    1.300889   -0.748789
     26          1           0        3.375315   -1.556501    1.644336
     27          1           0        4.273459   -0.050267    1.441182
     28          1           0        4.723636   -1.483516    0.490846
     29          1           0        0.972106    3.186197   -0.387655
     30          1           0       -0.932265    4.749037    0.008670
     31          1           0       -3.222115    3.823824    0.364309
     32          1           0       -3.571272    1.371683    0.368029
     33          1           0       -3.238209   -0.507548   -1.549499
     34          1           0       -3.734640   -2.933859   -1.486346
     35          1           0       -2.541301   -4.408386    0.123611
     36          1           0       -0.863610   -3.429943    1.678257
     37          1           0       -0.382116   -1.001135    1.621057
 ---------------------------------------------------------------------

 SCF Done:  E(RB3LYP) =  -809.121712881     A.U. after    1 cycles

 Excitation energies and oscillator strengths:

 Excited State   1:      Singlet-A      5.1096 eV  242.65 nm  f=0.0279  <S**2>=0.000
      67 -> 69         0.45676
      68 -> 69         0.26676
      68 -> 70        -0.43518
 This state for optimization and/or second-order correction.
 Total Energy, E(TD-HF/TD-KS) =  -808.933937263
 Copying the excited state density for this state as the 1-particle RhoCI density.

 Excited State   2:      Singlet-A      5.1974 eV  238.55 nm  f=0.1225  <S**2>=0.000
      66 -> 69         0.36302
      67 -> 69        -0.10497
      68 -> 69         0.47472
      68 -> 70         0.17592
      68 -> 71        -0.24231
      68 -> 72        -0.11225

 Excited State   3:      Singlet-A      5.2430 eV  236.48 nm  f=0.1052  <S**2>=0.000
      66 -> 69        -0.36778
      67 -> 69        -0.14488
      68 -> 69         0.40685
      68 -> 70         0.10654
      68 -> 71         0.35741

 Excited State   4:      Singlet-A      5.5635 eV  222.85 nm  f=0.0211  <S**2>=0.000
      64 -> 69        -0.22440
      64 -> 71        -0.19784
      64 -> 72         0.38897
      65 -> 69         0.17761
      65 -> 72        -0.19997
      67 -> 69         0.13481
      67 -> 72        -0.15768
      68 -> 70         0.11190
      68 -> 71         0.17125
      68 -> 72        -0.22297

 Excited State   5:      Singlet-A      5.7695 eV  214.90 nm  f=0.0470  <S**2>=0.000
      64 -> 69         0.19826
      64 -> 72        -0.24333
      65 -> 69         0.14952
      65 -> 70        -0.13518
      65 -> 71        -0.12569
      66 -> 69         0.11440
      67 -> 69         0.32139
      68 -> 70         0.30719
      68 -> 71         0.23243
      68 -> 73        -0.20439

 Excited State   6:      Singlet-A      5.8123 eV  213.31 nm  f=0.0308  <S**2>=0.000
      64 -> 69        -0.11408
      65 -> 69         0.21671
      66 -> 69        -0.19033
      66 -> 73        -0.10438
      67 -> 69         0.19088
      68 -> 70         0.19190
      68 -> 71        -0.31390
      68 -> 72         0.39610
      68 -> 73        -0.10841

 Excited State   7:      Singlet-A      5.9088 eV  209.83 nm  f=0.0328  <S**2>=0.000
      65 -> 69         0.31694
      65 -> 71         0.13164
      66 -> 69         0.25119
      66 -> 70        -0.10121
      66 -> 73         0.16563
      67 -> 69        -0.15271
      68 -> 70        -0.22743
      68 -> 71         0.17680
      68 -> 72         0.31051
      68 -> 73        -0.22750

 Excited State   8:      Singlet-A      5.9507 eV  208.35 nm  f=0.0114  <S**2>=0.000
      64 -> 69        -0.20259
      65 -> 69        -0.30702
      65 -> 70        -0.17446
      66 -> 69         0.16589
      67 -> 69         0.10420
      67 -> 70        -0.12948
      67 -> 73        -0.12629
      68 -> 70         0.11665
      68 -> 71         0.17770
      68 -> 72         0.35317
      68 -> 73         0.25849

 Excited State   9:      Singlet-A      6.0250 eV  205.78 nm  f=0.0167  <S**2>=0.000
      66 -> 70         0.56395
      66 -> 71         0.27167
      67 -> 70        -0.29364

 Excited State  10:      Singlet-A      6.0638 eV  204.47 nm  f=0.0214  <S**2>=0.000
      64 -> 69         0.18639
      66 -> 69        -0.14611
      66 -> 70        -0.18406
      66 -> 71         0.17804
      66 -> 73        -0.13800
      67 -> 70        -0.27630
      67 -> 71         0.46713
      67 -> 72        -0.15189
      68 -> 73        -0.11109

 The electronic state is 1-A.
 Alpha  occ. eigenvalues --  -19.19640 -19.13906 -10.31512 -10.25147 -10.21305
 Alpha  occ. eigenvalues --  -10.20375 -10.19980 -10.19570 -10.19478 -10.19441
 Alpha  occ. eigenvalues --  -10.19249 -10.19037 -10.18993 -10.18961 -10.18937
 Alpha  occ. eigenvalues --  -10.18729 -10.18309 -10.17794 -10.17392  -1.10540
 Alpha  occ. eigenvalues --   -1.02111  -0.86763  -0.84651  -0.82227  -0.77786
 Alpha  occ. eigenvalues --   -0.75151  -0.74267  -0.72369  -0.69054  -0.68621
 Alpha  occ. eigenvalues --   -0.65870  -0.62659  -0.60688  -0.59356  -0.57985
 Alpha  occ. eigenvalues --   -0.55235  -0.52090  -0.49303  -0.48781  -0.48296
 Alpha  occ. eigenvalues --   -0.47569  -0.45774  -0.45045  -0.44364  -0.43765
 Alpha  occ. eigenvalues --   -0.43170  -0.42225  -0.42024  -0.41642  -0.41119
 Alpha  occ. eigenvalues --   -0.39025  -0.38385  -0.37829  -0.36818  -0.36666
 Alpha  occ. eigenvalues --   -0.36647  -0.35522  -0.35042  -0.33981  -0.33948
 Alpha  occ. eigenvalues --   -0.33377  -0.33179  -0.30809  -0.27090  -0.26571
 Alpha  occ. eigenvalues --   -0.24956  -0.24728  -0.23143
 Alpha virt. eigenvalues --   -0.02233  -0.00551   0.00079   0.01015   0.01760
 Alpha virt. eigenvalues --    0.08125   0.08993   0.10149   0.12728   0.13775
 Alpha virt. eigenvalues --    0.13909   0.14866   0.15033   0.15159   0.15592

 Mulliken atomic charges:
              1
     1  O   -0.469268
     2  C    0.646424
     3  C   -0.011581
     4  C   -0.449888
     5  C   -0.454298
     6  C   -0.434407
     7  O   -0.527692
     8  C    0.322615
     9  C   -0.153095
    10  C   -0.147794
    11  C   -0.111978
    12  C   -0.205233
    13  C    0.043071
    14  C    0.074904
    15  C   -0.153725
    16  C   -0.140684
    17  C   -0.128461
    18  C   -0.136438
    19  C   -0.184399
    20  H    0.168006
    21  H    0.156098
    22  H    0.144199
    23  H    0.162869
    24  H    0.151776
    25  H    0.151366
    26  H    0.153860
    27  H    0.158186
    28  H    0.138157
    29  H    0.140590
    30  H    0.137305
    31  H    0.140440
    32  H    0.138481
    33  H    0.134764
    34  H    0.128761
    35  H    0.128833
    36  H    0.131940
    37  H    0.156291
 Sum of Mulliken atomic charges =  -0.00000

 Dipole moment (field-independent basis, Debye):
    X=              0.2440    Y=             -0.0920    Z=             -1.7016  Tot=              1.7215
 Quadrupole moment (field-independent basis, Debye-Ang):
   XX=           -102.2551   YY=           -100.6755   ZZ=           -116.5337
   XY=             -2.2739   XZ=             -1.5586   YZ=             -2.1130

 Summary of Natural Population Analysis:

                                       Natural Population
                Natural  -----------------------------------------------
    Atom  No    Charge         Core      Valence    Rydberg      Total
 -----------------------------------------------------------------------
      O    1   -0.57667      1.99977     6.55709    0.01982     8.57667
      C    2    0.83799      1.99927     3.11307    0.04966     5.16201
      C    3   -0.15055      1.99904     4.13922    0.01230     6.15055
      C    4   -0.67036      1.99938     4.66091    0.01007     6.67036
      C    5   -0.66924      1.99938     4.66015    0.00971     6.66924
      C    6   -0.66946      1.99940     4.65904    0.01102     6.66946
      O    7   -0.53449      1.99968     6.52358    0.01122     8.53449
      C    8    0.36313      1.99864     3.61456    0.02367     5.63687
      C    9   -0.26916      1.99902     4.25318    0.01697     6.26916
      C   10   -0.24293      1.99913     4.22732    0.01647     6.24293
      C   11   -0.18557      1.99911     4.17050    0.01595     6.18557
      C   12   -0.25219      1.99908     4.23632    0.01680     6.25219
      C   13   -0.07888      1.99893     4.06172    0.01823     6.07888
      C   14   -0.05302      1.99901     4.03650    0.01750     6.05302
      C   15   -0.19785      1.99903     4.18521    0.01360     6.19785
      C   16   -0.24840      1.99911     4.23410    0.01519     6.24840
      C   17   -0.23349      1.99910     4.21950    0.01489     6.23349
      C   18   -0.22039      1.99910     4.20667    0.01462     6.22039
      C   19   -0.24375      1.99904     4.22929    0.01543     6.24375
      H   20    0.24698      0.00000     0.75198    0.00104     0.75302
      H   21    0.23977      0.00000     0.75898    0.00125     0.76023
      H   22    0.23276      0.00000     0.76615    0.00109     0.76724
      H   23    0.24270      0.00000     0.75615    0.00116     0.75730
      H   24    0.23703      0.00000     0.76194    0.00103     0.76297
      H   25    0.23540      0.00000     0.76366    0.00095     0.76460
      H   26    0.24134      0.00000     0.75763    0.00103     0.75866
      H   27    0.24406      0.00000     0.75486    0.00108     0.75594
      H   28    0.23061      0.00000     0.76848    0.00092     0.76939
      H   29    0.24344      0.00000     0.75558    0.00097     0.75656
      H   30    0.23731      0.00000     0.76186    0.00083     0.76269
      H   31    0.23635      0.00000     0.76281    0.00084     0.76365
      H   32    0.23931      0.00000     0.75973    0.00095     0.76069
      H   33    0.23742      0.00000     0.76134    0.00123     0.76258
      H   34    0.23538      0.00000     0.76373    0.00089     0.76462
      H   35    0.23355      0.00000     0.76558    0.00087     0.76645
      H   36    0.23584      0.00000     0.76328    0.00088     0.76416
      H   37    0.24602      0.00000     0.75239    0.00160     0.75398
 =======================================================================
   * Total *    0.00000     37.98422    97.67407    0.34171   136.00000

 Normal termination of Gaussian 09 at Wed Sep 29 21:21:28 2021.
