 Gaussian 09, Revision A.02,

 -----------------------------------
 #p opt b3lyp/6-31G* scf=(xqc,tight)
 -----------------------------------

 --------------------------------------
 CN(C(=O)Oc1cc2ccccc2c2c1cccc2)C_conf_0
 --------------------------------------
 Symbolic Z-matrix:
 Charge =  0 Multiplicity = 1

 SCF Done:  E(RB3LYP) =  -862.071490329     A.U. after   15 cycles
 SCF Done:  E(RB3LYP) =  -862.080820427     A.U. after   13 cycles
 SCF Done:  E(RB3LYP) =  -862.081220883     A.U. after   12 cycles
 SCF Done:  E(RB3LYP) =  -862.081656789     A.U. after   12 cycles
 SCF Done:  E(RB3LYP) =  -862.082159208     A.U. after   12 cycles
 SCF Done:  E(RB3LYP) =  -862.082255435     A.U. after   12 cycles
 SCF Done:  E(RB3LYP) =  -862.082344108     A.U. after   12 cycles
 SCF Done:  E(RB3LYP) =  -862.082393655     A.U. after   11 cycles
 SCF Done:  E(RB3LYP) =  -862.082464707     A.U. after   12 cycles
 SCF Done:  E(RB3LYP) =  -862.082483867     A.U. after   10 cycles
 SCF Done:  E(RB3LYP) =  -862.082655842     A.U. after   11 cycles
 SCF Done:  E(RB3LYP) =  -862.082655768     A.U. after   10 cycles
 SCF Done:  E(RB3LYP) =  -862.082664070     A.U. after   10 cycles
 SCF Done:  E(RB3LYP) =  -862.082664420     A.U. after    7 cycles
 SCF Done:  E(RB3LYP) =  -862.082664638     A.U. after    9 cycles
 SCF Done:  E(RB3LYP) =  -862.082664873     A.U. after    7 cycles
 SCF Done:  E(RB3LYP) =  -862.082664936     A.U. after    7 cycles
 SCF Done:  E(RB3LYP) =  -862.082664978     A.U. after    7 cycles
 Optimization completed.
    -- Stationary point found.
 Normal termination of Gaussian 09 at Thu Sep 30 10:14:10 2021.

 ----------------------------------------------------------------------
 #p freq b3lyp/6-31G* volume NMR pop=NPA density=current Geom=AllCheck
 Guess=Read
 ----------------------------------------------------------------------

 CN(C(=O)Oc1cc2ccccc2c2c1cccc2)C_conf_0
 --------------------------------------
 Redundant internal coordinates taken from checkpoint file:
 C17H15NO2_4d27_conf_0.chk
 Charge =  0 Multiplicity = 1

 SCF Done:  E(RB3LYP) =  -862.082664978     A.U. after    1 cycles

  1  C    Isotropic =   154.9094   Anisotropy =    51.7919

  2  N    Isotropic =   179.7476   Anisotropy =    84.8537

  3  C    Isotropic =    46.8075   Anisotropy =    80.4747

  4  O    Isotropic =    66.9057   Anisotropy =   390.0337

  5  O    Isotropic =   151.0562   Anisotropy =   150.8213

  6  C    Isotropic =    49.9740   Anisotropy =    92.3888

  7  C    Isotropic =    75.3256   Anisotropy =   123.1726

  8  C    Isotropic =    64.1450   Anisotropy =   188.8253

  9  C    Isotropic =    66.8296   Anisotropy =   144.3852

 10  C    Isotropic =    69.7591   Anisotropy =   163.1889

 11  C    Isotropic =    70.7983   Anisotropy =   160.1917

 12  C    Isotropic =    73.0672   Anisotropy =   159.7654

 13  C    Isotropic =    67.7631   Anisotropy =   181.6521

 14  C    Isotropic =    64.2138   Anisotropy =   180.6401

 15  C    Isotropic =    69.0170   Anisotropy =   175.6472

 16  C    Isotropic =    72.6578   Anisotropy =   161.6974

 17  C    Isotropic =    70.4108   Anisotropy =   163.1784

 18  C    Isotropic =    70.0988   Anisotropy =   161.8463

 19  C    Isotropic =    72.7590   Anisotropy =   160.4047

 20  C    Isotropic =   155.4709   Anisotropy =    48.9440

 21  H    Isotropic =    28.0742   Anisotropy =     7.0920

 22  H    Isotropic =    29.7510   Anisotropy =     9.5238

 23  H    Isotropic =    29.8568   Anisotropy =     9.3420

 24  H    Isotropic =    24.6885   Anisotropy =    11.1797

 25  H    Isotropic =    24.5383   Anisotropy =     8.1102

 26  H    Isotropic =    24.7230   Anisotropy =     5.1704

 27  H    Isotropic =    24.6609   Anisotropy =     5.4480

 28  H    Isotropic =    23.7152   Anisotropy =     9.7429

 29  H    Isotropic =    24.0621   Anisotropy =    10.6575

 30  H    Isotropic =    24.6741   Anisotropy =     5.9753

 31  H    Isotropic =    24.5873   Anisotropy =     5.4554

 32  H    Isotropic =    23.6485   Anisotropy =     9.6251

 33  H    Isotropic =    29.3668   Anisotropy =     9.2556

 34  H    Isotropic =    28.1047   Anisotropy =     4.4104

 35  H    Isotropic =    29.7224   Anisotropy =     8.8547

  Exact polarizability: 266.358 -27.440 247.456  -7.334  -6.086  80.976
 Approx polarizability: 399.048 -49.546 423.836 -18.609  -9.975 129.613

                     1                      2                      3
                     A                      A                      A
 Frequencies --    23.9233                35.2353                59.5074
 Red. masses --     4.2631                 3.8086                 3.9783
 Frc consts  --     0.0014                 0.0028                 0.0083
 IR Inten    --     1.1305                 2.1027                 0.9095

                     4                      5                      6
                     A                      A                      A
 Frequencies --    81.9435                98.9401               102.1795
 Red. masses --     1.4705                 4.1353                 3.4891
 Frc consts  --     0.0058                 0.0239                 0.0215
 IR Inten    --     0.0121                 1.2433                 0.1329

                     7                      8                      9
                     A                      A                      A
 Frequencies --   114.6047               141.7544               171.6472
 Red. masses --     2.7802                 1.3466                 4.1824
 Frc consts  --     0.0215                 0.0159                 0.0726
 IR Inten    --     1.3235                 0.1893                 0.1314

                    10                     11                     12
                     A                      A                      A
 Frequencies --   204.0373               222.0782               244.0225
 Red. masses --     4.6127                 2.0751                 4.0730
 Frc consts  --     0.1131                 0.0603                 0.1429
 IR Inten    --     1.2430                 4.4289                 0.9290

                    13                     14                     15
                     A                      A                      A
 Frequencies --   265.5911               283.9237               328.2978
 Red. masses --     4.8257                 6.0924                 4.6459
 Frc consts  --     0.2006                 0.2894                 0.2950
 IR Inten    --     0.3371                 0.8280                 0.7314

                    16                     17                     18
                     A                      A                      A
 Frequencies --   381.6356               413.0552               427.7914
 Red. masses --     3.7224                 6.0307                 3.4223
 Frc consts  --     0.3194                 0.6062                 0.3690
 IR Inten    --    22.1986                 1.7253                 2.7127

                    19                     20                     21
                     A                      A                      A
 Frequencies --   435.4660               453.0554               477.3150
 Red. masses --     3.4905                 3.7197                 4.9756
 Frc consts  --     0.3900                 0.4498                 0.6679
 IR Inten    --     1.9969                 1.7937                 2.9509

                    22                     23                     24
                     A                      A                      A
 Frequencies --   521.6777               564.2001               573.7474
 Red. masses --     3.1473                 4.8134                 5.6334
 Frc consts  --     0.5047                 0.9027                 1.0926
 IR Inten    --     1.9269                 0.5886                 4.4188

                    25                     26                     27
                     A                      A                      A
 Frequencies --   580.7043               616.6108               631.8834
 Red. masses --     4.7208                 4.4316                 6.8105
 Frc consts  --     0.9379                 0.9927                 1.6021
 IR Inten    --     1.3972                 2.0663                 4.7092

                    28                     29                     30
                     A                      A                      A
 Frequencies --   647.9677               694.6311               729.3360
 Red. masses --     4.7223                 6.3319                 5.5494
 Frc consts  --     1.1682                 1.8001                 1.7392
 IR Inten    --     4.3122                 4.6883                 2.8070

                    31                     32                     33
                     A                      A                      A
 Frequencies --   737.0283               740.2926               757.5533
 Red. masses --     7.8574                 3.3268                 1.4683
 Frc consts  --     2.5148                 1.0742                 0.4965
 IR Inten    --     7.7629                29.8322                18.1552

                    34                     35                     36
                     A                      A                      A
 Frequencies --   775.2303               795.5204               815.6920
 Red. masses --     1.7219                 2.2353                 5.5240
 Frc consts  --     0.6097                 0.8335                 2.1655
 IR Inten    --    45.5781                 0.2329                 1.7678

                    37                     38                     39
                     A                      A                      A
 Frequencies --   844.5005               868.2584               878.3687
 Red. masses --     2.9134                 1.8017                 1.6746
 Frc consts  --     1.2242                 0.8003                 0.7612
 IR Inten    --    18.1036                 4.9041                 2.0258

                    40                     41                     42
                     A                      A                      A
 Frequencies --   894.1642               904.6746               938.8356
 Red. masses --     1.8151                 3.4409                 1.3680
 Frc consts  --     0.8550                 1.6593                 0.7104
 IR Inten    --    13.4664                 4.9362                 0.7588

                    43                     44                     45
                     A                      A                      A
 Frequencies --   952.7834               982.2632               986.6321
 Red. masses --     1.3361                 1.2785                 1.2598
 Frc consts  --     0.7146                 0.7268                 0.7225
 IR Inten    --     2.1828                 0.1412                 0.0775

                    46                     47                     48
                     A                      A                      A
 Frequencies --  1012.8476              1018.0702              1070.9167
 Red. masses --     3.5789                 6.9156                 2.0372
 Frc consts  --     2.1632                 4.2231                 1.3765
 IR Inten    --    14.3668                 0.9358                 3.4404

                    49                     50                     51
                     A                      A                      A
 Frequencies --  1073.4073              1094.2897              1106.9685
 Red. masses --     2.4896                 1.3705                 3.0313
 Frc consts  --     1.6901                 0.9669                 2.1885
 IR Inten    --    12.0802                 7.9599                25.8148

                    52                     53                     54
                     A                      A                      A
 Frequencies --  1138.7284              1143.7648              1180.9474
 Red. masses --     2.2920                 1.2224                 1.5109
 Frc consts  --     1.7511                 0.9422                 1.2415
 IR Inten    --     6.4163                 1.0470               105.6221

                    55                     56                     57
                     A                      A                      A
 Frequencies --  1182.7049              1192.4987              1195.0364
 Red. masses --     2.0365                 1.4823                 1.3509
 Frc consts  --     1.6783                 1.2420                 1.1366
 IR Inten    --   587.4436               208.7662                96.6665

                    58                     59                     60
                     A                      A                      A
 Frequencies --  1199.8006              1229.8353              1261.7487
 Red. masses --     1.0876                 1.4662                 3.0335
 Frc consts  --     0.9224                 1.3065                 2.8454
 IR Inten    --     8.4193                20.1441               148.0742

                    61                     62                     63
                     A                      A                      A
 Frequencies --  1277.0404              1297.0003              1314.1590
 Red. masses --     1.6121                 5.1738                 1.8589
 Frc consts  --     1.5490                 5.1279                 1.8915
 IR Inten    --     2.5916                47.1112                 2.5029

                    64                     65                     66
                     A                      A                      A
 Frequencies --  1342.4860              1381.9618              1390.5878
 Red. masses --     3.0609                 5.9193                 5.3990
 Frc consts  --     3.2503                 6.6606                 6.1512
 IR Inten    --    74.0477                 0.6254                 0.0945

                    67                     68                     69
                     A                      A                      A
 Frequencies --  1426.3510              1447.4691              1460.0355
 Red. masses --     2.5345                 2.4683                 1.1957
 Frc consts  --     3.0380                 3.0470                 1.5018
 IR Inten    --   297.5848                42.6728                22.2218

                    70                     71                     72
                     A                      A                      A
 Frequencies --  1470.7411              1489.4402              1493.7108
 Red. masses --     2.5611                 1.6109                 1.7135
 Frc consts  --     3.2640                 2.1055                 2.2526
 IR Inten    --    11.8830                39.8381                14.9241

                    73                     74                     75
                     A                      A                      A
 Frequencies --  1499.5290              1520.5563              1530.1248
 Red. masses --     2.3431                 1.0455                 1.0470
 Frc consts  --     3.1042                 1.4243                 1.4443
 IR Inten    --     8.7188                 7.2897                17.5537

                    76                     77                     78
                     A                      A                      A
 Frequencies --  1531.9218              1547.9324              1564.2557
 Red. masses --     1.0481                 2.9830                 1.2222
 Frc consts  --     1.4492                 4.2112                 1.7620
 IR Inten    --    14.1147                18.1799                55.3214

                    79                     80                     81
                     A                      A                      A
 Frequencies --  1581.8886              1624.4009              1662.5633
 Red. masses --     3.3933                 6.8574                 5.2826
 Frc consts  --     5.0030                10.6610                 8.6031
 IR Inten    --     1.4017                 0.5924                14.7040

                    82                     83                     84
                     A                      A                      A
 Frequencies --  1671.2971              1677.9244              1821.9660
 Red. masses --     5.8408                 7.1450                11.0029
 Frc consts  --     9.6124                11.8521                21.5197
 IR Inten    --     3.8157                30.1603               344.0265

                    85                     86                     87
                     A                      A                      A
 Frequencies --  3026.2613              3034.9610              3080.6305
 Red. masses --     1.0449                 1.0430                 1.0994
 Frc consts  --     5.6382                 5.6604                 6.1475
 IR Inten    --    32.9214               107.0459                73.1541

                    88                     89                     90
                     A                      A                      A
 Frequencies --  3083.1997              3181.9413              3186.5933
 Red. masses --     1.1013                 1.0855                 1.0860
 Frc consts  --     6.1682                 6.4753                 6.4974
 IR Inten    --     2.0915                 1.3143                 1.6821

                    91                     92                     93
                     A                      A                      A
 Frequencies --  3190.9915              3194.6633              3200.7808
 Red. masses --     1.0891                 1.0963                 1.0912
 Frc consts  --     6.5337                 6.5920                 6.5868
 IR Inten    --    13.6585                 0.8082                39.0995

                    94                     95                     96
                     A                      A                      A
 Frequencies --  3205.2149              3205.5226              3212.9216
 Red. masses --     1.0949                 1.0941                 1.0963
 Frc consts  --     6.6272                 6.6237                 6.6680
 IR Inten    --     4.5159                10.1274                16.1724

                    97                     98                     99
                     A                      A                      A
 Frequencies --  3226.3916              3230.8801              3239.6354
 Red. masses --     1.0902                 1.0927                 1.0917
 Frc consts  --     6.6867                 6.7202                 6.7506
 IR Inten    --    38.2023                10.6583                 4.4656

 - Thermochemistry -
 -------------------
 Temperature   298.150 Kelvin.  Pressure   1.00000 Atm.
 Atom     1 has atomic number  6 and mass  12.00000

 Molecular mass:   265.11028 amu.
 Principal axes and moments of inertia in atomic units:
                           1         2         3
     Eigenvalues --  3336.657127677.65429**********
           X            0.99999  -0.00145  -0.00362
           Y            0.00145   1.00000  -0.00109
           Z            0.00362   0.00108   0.99999
 This molecule is an asymmetric top.
 Rotational symmetry number  1.
 Warning -- assumption of classical behavior for rotation
           may cause significant error
 Rotational temperatures (Kelvin)      0.02596     0.01128     0.00815
 Rotational constants (GHZ):           0.54088     0.23506     0.16984
 Zero-point vibrational energy     741840.6 (Joules/Mol)
                                  177.30415 (Kcal/Mol)
 Warning -- explicit consideration of  26 degrees of freedom as
           vibrations may cause significant error
 Vibrational temperatures:     34.42    50.70    85.62   117.90   142.35
          (Kelvin)            147.01   164.89   203.95   246.96   293.56
                              319.52   351.09   382.13   408.50   472.35
                              549.09   594.29   615.50   626.54   651.84
                              686.75   750.58   811.76   825.49   835.50
                              887.16   909.14   932.28   999.42  1049.35
                             1060.42  1065.11  1089.95  1115.38  1144.57
                             1173.60  1215.05  1249.23  1263.78  1286.50
                             1301.62  1350.77  1370.84  1413.26  1419.54
                             1457.26  1464.77  1540.81  1544.39  1574.44
                             1592.68  1638.37  1645.62  1699.12  1701.65
                             1715.74  1719.39  1726.24  1769.46  1815.37
                             1837.37  1866.09  1890.78  1931.54  1988.33
                             2000.74  2052.20  2082.58  2100.66  2116.07
                             2142.97  2149.11  2157.49  2187.74  2201.51
                             2204.09  2227.13  2250.61  2275.98  2337.15
                             2392.05  2404.62  2414.16  2621.40  4354.11
                             4366.63  4432.33  4436.03  4578.10  4584.79
                             4591.12  4596.40  4605.20  4611.58  4612.03
                             4622.67  4642.05  4648.51  4661.11

 Zero-point correction=                           0.282552 (Hartree/Particle)
 Thermal correction to Energy=                    0.299558
 Thermal correction to Enthalpy=                  0.300502
 Thermal correction to Gibbs Free Energy=         0.236368
 Sum of electronic and zero-point Energies=           -861.800113
 Sum of electronic and thermal Energies=              -861.783107
 Sum of electronic and thermal Enthalpies=            -861.782163
 Sum of electronic and thermal Free Energies=         -861.846297

                     E (Thermal)             CV                S
                      KCal/Mol        Cal/Mol-Kelvin    Cal/Mol-Kelvin
 Total                  187.975             65.646            134.981
 Electronic               0.000              0.000              0.000
 Translational            0.889              2.981             42.624
 Rotational               0.889              2.981             33.964
 Vibrational            186.198             59.685             58.393
 Vibration     1          0.593              1.985              6.279
 Vibration     2          0.594              1.982              5.510
 Vibration     3          0.597              1.974              4.473
 Vibration     4          0.600              1.962              3.844
 Vibration     5          0.604              1.950              3.475
 Vibration     6          0.604              1.947              3.412
 Vibration     7          0.608              1.937              3.189
 Vibration     8          0.615              1.911              2.780
 Vibration     9          0.626              1.877              2.417
 Vibration    10          0.640              1.834              2.096
 Vibration    11          0.648              1.807              1.942
 Vibration    12          0.659              1.773              1.773
 Vibration    13          0.671              1.736              1.625
 Vibration    14          0.682              1.703              1.510
 Vibration    15          0.712              1.619              1.268
 Vibration    16          0.751              1.509              1.033
 Vibration    17          0.777              1.442              0.916
 Vibration    18          0.789              1.410              0.866
 Vibration    19          0.796              1.393              0.841
 Vibration    20          0.812              1.354              0.787
 Vibration    21          0.834              1.300              0.717
 Vibration    22          0.877              1.202              0.606
 Vibration    23          0.920              1.109              0.516
 Vibration    24          0.930              1.088              0.497
 Vibration    25          0.937              1.073              0.484
 Vibration    26          0.976              0.997              0.422

 Optimization completed.
    -- Stationary point found.
 Normal termination of Gaussian 09 at Thu Sep 30 12:42:53 2021.
 Gaussian 09:  AM64L-G09RevA.02 11-Jun-2009

 ----------------------------------------------------------------------
 #p TD(NStates=10, Root=1) b3lyp/6-31G* volume pop=NPA density=current
 Geom=AllCheck Guess=Read
 ----------------------------------------------------------------------

 CN(C(=O)Oc1cc2ccccc2c2c1cccc2)C_conf_0
 --------------------------------------
 Redundant internal coordinates taken from checkpoint file:
 C17H15NO2_4d27_conf_0.chk
 Charge =  0 Multiplicity = 1

                         Standard orientation:
 ---------------------------------------------------------------------
 Center     Atomic      Atomic             Coordinates (Angstroms)
 Number     Number       Type             X           Y           Z
 ---------------------------------------------------------------------
      1          6           0       -5.051867   -1.203447   -0.586484
      2          7           0       -3.974453   -0.504291    0.096907
      3          6           0       -2.688661   -0.765304   -0.282133
      4          8           0       -2.349187   -1.599380   -1.097642
      5          8           0       -1.809637    0.056102    0.398377
      6          6           0       -0.436721   -0.086112    0.226542
      7          6           0        0.190324   -1.289494    0.290888
      8          6           0        1.616013   -1.373493    0.181825
      9          6           0        2.260898   -2.631557    0.241139
     10          6           0        3.634486   -2.732671    0.146949
     11          6           0        4.408451   -1.567879   -0.010970
     12          6           0        3.799056   -0.327660   -0.071949
     13          6           0        2.394640   -0.189854    0.022170
     14          6           0        1.712801    1.096248   -0.038774
     15          6           0        0.289242    1.145861    0.057886
     16          6           0       -0.377869    2.390542   -0.011940
     17          6           0        0.330203    3.565619   -0.170252
     18          6           0        1.733004    3.528736   -0.260906
     19          6           0        2.402853    2.320972   -0.196646
     20          6           0       -4.367776    0.530518    1.041380
     21          1           0       -4.620864   -1.949483   -1.252184
     22          1           0       -5.659743   -0.501615   -1.173878
     23          1           0       -5.704673   -1.697510    0.144133
     24          1           0       -0.383913   -2.200521    0.406261
     25          1           0        1.650272   -3.523183    0.360296
     26          1           0        4.116243   -3.705508    0.193061
     27          1           0        5.489969   -1.640849   -0.086622
     28          1           0        4.422462    0.551273   -0.195793
     29          1           0       -1.459448    2.406110    0.057616
     30          1           0       -0.195413    4.515048   -0.225043
     31          1           0        2.294665    4.450855   -0.383406
     32          1           0        3.484673    2.322233   -0.271391
     33          1           0       -4.816739    1.390438    0.523737
     34          1           0       -3.506104    0.869020    1.611907
     35          1           0       -5.114089    0.123811    1.734724
 ---------------------------------------------------------------------

 SCF Done:  E(RB3LYP) =  -862.082664978     A.U. after    1 cycles

 Excitation energies and oscillator strengths:

 Excited State   1:      Singlet-A      3.9548 eV  313.51 nm  f=0.0048  <S**2>=0.000
      69 -> 71         0.39817
      70 -> 72         0.57895
 This state for optimization and/or second-order correction.
 Total Energy, E(TD-HF/TD-KS) =  -861.937330470
 Copying the excited state density for this state as the 1-particle RhoCI density.

 Excited State   2:      Singlet-A      4.1786 eV  296.71 nm  f=0.1015  <S**2>=0.000
      69 -> 72        -0.29641
      70 -> 71         0.63248

 Excited State   3:      Singlet-A      4.7359 eV  261.80 nm  f=0.1371  <S**2>=0.000
      69 -> 71         0.54347
      70 -> 72        -0.38067
      70 -> 73        -0.15991

 Excited State   4:      Singlet-A      5.0475 eV  245.64 nm  f=0.5428  <S**2>=0.000
      67 -> 71         0.17128
      68 -> 71         0.16858
      69 -> 72         0.54724
      69 -> 73         0.13814
      70 -> 71         0.24450
      70 -> 73        -0.20010

 Excited State   5:      Singlet-A      5.1578 eV  240.38 nm  f=0.1685  <S**2>=0.000
      67 -> 71         0.30484
      68 -> 71         0.38027
      69 -> 72        -0.26436
      69 -> 73        -0.13367
      70 -> 71        -0.12788
      70 -> 73        -0.37680

 Excited State   6:      Singlet-A      5.1820 eV  239.26 nm  f=0.0410  <S**2>=0.000
      67 -> 71        -0.27983
      68 -> 71         0.56880
      70 -> 73         0.29669

 Excited State   7:      Singlet-A      5.2392 eV  236.65 nm  f=0.0351  <S**2>=0.000
      65 -> 71        -0.16211
      67 -> 72         0.47552
      68 -> 72         0.18706
      69 -> 72        -0.12397
      69 -> 73         0.39789
      70 -> 74        -0.11156

 Excited State   8:      Singlet-A      5.4235 eV  228.61 nm  f=0.0004  <S**2>=0.000
      67 -> 72        -0.16262
      68 -> 72         0.67738

 Excited State   9:      Singlet-A      5.6578 eV  219.14 nm  f=0.1189  <S**2>=0.000
      66 -> 71         0.51275
      67 -> 71        -0.36293
      70 -> 73        -0.25670

 Excited State  10:      Singlet-A      5.7686 eV  214.93 nm  f=0.0033  <S**2>=0.000
      65 -> 71         0.45456
      66 -> 71        -0.24337
      67 -> 72         0.14432
      69 -> 73         0.12559
      70 -> 74         0.42393

 The electronic state is 1-A.
 Alpha  occ. eigenvalues --  -19.19666 -19.11784 -14.37232 -10.33526 -10.24902
 Alpha  occ. eigenvalues --  -10.22504 -10.21897 -10.20155 -10.19986 -10.19754
 Alpha  occ. eigenvalues --  -10.19676 -10.19014 -10.18957 -10.18930 -10.18838
 Alpha  occ. eigenvalues --  -10.18787 -10.18737 -10.18682 -10.18614 -10.18569
 Alpha  occ. eigenvalues --   -1.10692  -1.01659  -0.94384  -0.87754  -0.84404
 Alpha  occ. eigenvalues --   -0.80577  -0.77220  -0.75583  -0.73207  -0.72453
 Alpha  occ. eigenvalues --   -0.72024  -0.69914  -0.63832  -0.62830  -0.61116
 Alpha  occ. eigenvalues --   -0.58374  -0.56988  -0.54021  -0.52879  -0.51750
 Alpha  occ. eigenvalues --   -0.48915  -0.48606  -0.48200  -0.47450  -0.46163
 Alpha  occ. eigenvalues --   -0.44336  -0.43570  -0.42911  -0.42577  -0.42027
 Alpha  occ. eigenvalues --   -0.41835  -0.40983  -0.40835  -0.40025  -0.39995
 Alpha  occ. eigenvalues --   -0.39326  -0.37839  -0.36416  -0.35846  -0.35464
 Alpha  occ. eigenvalues --   -0.33889  -0.32756  -0.32211  -0.29347  -0.27860
 Alpha  occ. eigenvalues --   -0.27398  -0.25665  -0.24594  -0.22090  -0.20511
 Alpha virt. eigenvalues --   -0.03526  -0.02974   0.01010   0.03881   0.04940
 Alpha virt. eigenvalues --    0.08318   0.08886   0.09597   0.10419   0.11787
 Alpha virt. eigenvalues --    0.12461   0.13861   0.14682   0.14929   0.15420

 Mulliken atomic charges:
              1
     1  C   -0.319738
     2  N   -0.436092
     3  C    0.785287
     4  O   -0.503843
     5  O   -0.555225
     6  C    0.312096
     7  C   -0.206792
     8  C    0.131053
     9  C   -0.202164
    10  C   -0.143572
    11  C   -0.127759
    12  C   -0.200239
    13  C    0.078964
    14  C    0.040657
    15  C    0.095406
    16  C   -0.195611
    17  C   -0.145843
    18  C   -0.125529
    19  C   -0.205354
    20  C   -0.317019
    21  H    0.207239
    22  H    0.157926
    23  H    0.156845
    24  H    0.162462
    25  H    0.133130
    26  H    0.127057
    27  H    0.131875
    28  H    0.134230
    29  H    0.131865
    30  H    0.121716
    31  H    0.128224
    32  H    0.129963
    33  H    0.159440
    34  H    0.200068
    35  H    0.159276
 Sum of Mulliken atomic charges =  -0.00000

 Dipole moment (field-independent basis, Debye):
    X=             -2.4932    Y=              0.5815    Z=              1.5461  Tot=              2.9907
 Quadrupole moment (field-independent basis, Debye-Ang):
   XX=            -87.8348   YY=           -109.0595   ZZ=           -120.6379
   XY=             -2.0103   XZ=             -4.5608   YZ=             -3.5182

 Summary of Natural Population Analysis:

                                       Natural Population
                Natural  -----------------------------------------------
    Atom  No    Charge         Core      Valence    Rydberg      Total
 -----------------------------------------------------------------------
      C    1   -0.46947      1.99947     4.45814    0.01186     6.46947
      N    2   -0.48538      1.99932     5.47507    0.01099     7.48538
      C    3    0.94283      1.99937     3.01280    0.04500     5.05717
      O    4   -0.63894      1.99978     6.61998    0.01919     8.63894
      O    5   -0.55200      1.99969     6.54227    0.01004     8.55200
      C    6    0.36262      1.99867     3.61678    0.02193     5.63738
      C    7   -0.20226      1.99896     4.18971    0.01359     6.20226
      C    8   -0.05972      1.99903     4.04591    0.01478     6.05972
      C    9   -0.19495      1.99907     4.18163    0.01425     6.19495
      C   10   -0.26160      1.99911     4.24678    0.01571     6.26160
      C   11   -0.20075      1.99911     4.18699    0.01464     6.20075
      C   12   -0.22222      1.99908     4.20900    0.01414     6.22222
      C   13   -0.03767      1.99901     4.02398    0.01468     6.03767
      C   14   -0.03732      1.99903     4.02330    0.01499     6.03732
      C   15   -0.09363      1.99896     4.07996    0.01470     6.09363
      C   16   -0.21057      1.99908     4.19672    0.01478     6.21057
      C   17   -0.26293      1.99910     4.24802    0.01580     6.26293
      C   18   -0.20524      1.99911     4.19147    0.01466     6.20524
      C   19   -0.23008      1.99908     4.21677    0.01423     6.23008
      C   20   -0.47210      1.99946     4.46105    0.01159     6.47210
      H   21    0.26387      0.00000     0.73467    0.00146     0.73613
      H   22    0.22056      0.00000     0.77804    0.00140     0.77944
      H   23    0.22216      0.00000     0.77661    0.00122     0.77784
      H   24    0.25657      0.00000     0.74207    0.00136     0.74343
      H   25    0.23306      0.00000     0.76588    0.00106     0.76694
      H   26    0.23486      0.00000     0.76434    0.00080     0.76514
      H   27    0.23527      0.00000     0.76392    0.00081     0.76473
      H   28    0.22927      0.00000     0.76976    0.00097     0.77073
      H   29    0.23833      0.00000     0.76041    0.00126     0.76167
      H   30    0.23226      0.00000     0.76694    0.00080     0.76774
      H   31    0.23403      0.00000     0.76515    0.00082     0.76597
      H   32    0.22742      0.00000     0.77160    0.00098     0.77258
      H   33    0.22098      0.00000     0.77737    0.00165     0.77902
      H   34    0.25649      0.00000     0.74262    0.00089     0.74351
      H   35    0.22624      0.00000     0.77244    0.00131     0.77376
 =======================================================================
   * Total *   -0.00000     39.98349    99.67816    0.33836   140.00000

 Normal termination of Gaussian 09 at Thu Sep 30 19:13:46 2021.
