 Gaussian 09, Revision A.02,

 -----------------------------------
 #p opt b3lyp/6-31G* scf=(xqc,tight)
 -----------------------------------

 ------------------------------------------
 CC(=O)Oc1ccc2c(c1)oc(cc2=O)c1ccccc1_conf_0
 ------------------------------------------
 Symbolic Z-matrix:
 Charge =  0 Multiplicity = 1

 SCF Done:  E(RB3LYP) =  -955.940238902     A.U. after   16 cycles
 SCF Done:  E(RB3LYP) =  -955.946473001     A.U. after   13 cycles
 SCF Done:  E(RB3LYP) =  -955.946654615     A.U. after   13 cycles
 SCF Done:  E(RB3LYP) =  -955.946608707     A.U. after   13 cycles
 SCF Done:  E(RB3LYP) =  -955.946958935     A.U. after   12 cycles
 SCF Done:  E(RB3LYP) =  -955.947109334     A.U. after   12 cycles
 SCF Done:  E(RB3LYP) =  -955.947158204     A.U. after   11 cycles
 SCF Done:  E(RB3LYP) =  -955.947173897     A.U. after   12 cycles
 SCF Done:  E(RB3LYP) =  -955.947191485     A.U. after   10 cycles
 SCF Done:  E(RB3LYP) =  -955.947199285     A.U. after   11 cycles
 SCF Done:  E(RB3LYP) =  -955.947203420     A.U. after   10 cycles
 SCF Done:  E(RB3LYP) =  -955.947207003     A.U. after   10 cycles
 SCF Done:  E(RB3LYP) =  -955.947210307     A.U. after   10 cycles
 SCF Done:  E(RB3LYP) =  -955.947211172     A.U. after    9 cycles
 SCF Done:  E(RB3LYP) =  -955.947211660     A.U. after    8 cycles
 SCF Done:  E(RB3LYP) =  -955.947212307     A.U. after    9 cycles
 SCF Done:  E(RB3LYP) =  -955.947212880     A.U. after    9 cycles
 SCF Done:  E(RB3LYP) =  -955.947213015     A.U. after    8 cycles
 Optimization completed.
    -- Stationary point found.
 Normal termination of Gaussian 09 at Fri Oct  1 02:38:32 2021.

 ----------------------------------------------------------------------
 #p freq b3lyp/6-31G* volume NMR pop=NPA density=current Geom=AllCheck
 Guess=Read
 ----------------------------------------------------------------------

 CC(=O)Oc1ccc2c(c1)oc(cc2=O)c1ccccc1_conf_0
 ------------------------------------------
 Redundant internal coordinates taken from checkpoint file:
 C17H12O4_84e2_conf_0.chk
 Charge =  0 Multiplicity = 1

 SCF Done:  E(RB3LYP) =  -955.947213015     A.U. after    1 cycles

  1  C    Isotropic =   169.0632   Anisotropy =    39.7990

  2  C    Isotropic =    31.2002   Anisotropy =    78.4680

  3  O    Isotropic =   -81.9184   Anisotropy =   569.3387

  4  O    Isotropic =   100.9082   Anisotropy =   164.5867

  5  C    Isotropic =    41.9562   Anisotropy =   112.5736

  6  C    Isotropic =    76.0687   Anisotropy =   148.8912

  7  C    Isotropic =    66.9634   Anisotropy =   176.2011

  8  C    Isotropic =    72.1590   Anisotropy =   155.3056

  9  C    Isotropic =    40.3017   Anisotropy =   119.6719

 10  C    Isotropic =    86.6247   Anisotropy =   113.2057

 11  O    Isotropic =   144.1220   Anisotropy =   245.5563

 12  C    Isotropic =    33.8906   Anisotropy =   109.9483

 13  C    Isotropic =    84.5657   Anisotropy =   103.6871

 14  C    Isotropic =    24.1761   Anisotropy =   143.9203

 15  O    Isotropic =  -164.0046   Anisotropy =   836.4657

 16  C    Isotropic =    63.2472   Anisotropy =   159.7123

 17  C    Isotropic =    69.5615   Anisotropy =   170.0905

 18  C    Isotropic =    67.6165   Anisotropy =   166.6689

 19  C    Isotropic =    65.7593   Anisotropy =   170.6182

 20  C    Isotropic =    67.5873   Anisotropy =   166.2165

 21  C    Isotropic =    69.6922   Anisotropy =   162.7823

 22  H    Isotropic =    30.4544   Anisotropy =     7.6758

 23  H    Isotropic =    29.9646   Anisotropy =     6.0887

 24  H    Isotropic =    29.9496   Anisotropy =     5.5575

 25  H    Isotropic =    24.8310   Anisotropy =     7.8747

 26  H    Isotropic =    24.0134   Anisotropy =     6.1989

 27  H    Isotropic =    25.4937   Anisotropy =     7.9152

 28  H    Isotropic =    25.9336   Anisotropy =     7.6430

 29  H    Isotropic =    24.2888   Anisotropy =     9.3566

 30  H    Isotropic =    24.8018   Anisotropy =     5.3006

 31  H    Isotropic =    24.8513   Anisotropy =     4.3927

 32  H    Isotropic =    24.8337   Anisotropy =     4.8978

 33  H    Isotropic =    24.5564   Anisotropy =     8.2523

  Exact polarizability: 300.555 -13.545 215.036  -2.523  -0.810  77.271
 Approx polarizability: 392.546 -24.835 405.222  -8.216   5.044 128.029

                     1                      2                      3
                     A                      A                      A
 Frequencies --    22.4597                29.3751                52.7833
 Red. masses --     6.3363                 3.7968                 2.8528
 Frc consts  --     0.0019                 0.0019                 0.0047
 IR Inten    --     1.0292                 1.0413                 1.1967

                     4                      5                      6
                     A                      A                      A
 Frequencies --    59.1362                68.4094                82.0905
 Red. masses --     5.4138                 5.7416                 1.2791
 Frc consts  --     0.0112                 0.0158                 0.0051
 IR Inten    --     0.0967                 0.3026                 0.0447

                     7                      8                      9
                     A                      A                      A
 Frequencies --   112.0937               128.5269               158.0767
 Red. masses --     5.4619                 5.4540                 6.5876
 Frc consts  --     0.0404                 0.0531                 0.0970
 IR Inten    --     0.9154                 2.8539                 2.5101

                    10                     11                     12
                     A                      A                      A
 Frequencies --   201.6371               237.4168               260.3522
 Red. masses --     5.3932                 6.8920                 5.7779
 Frc consts  --     0.1292                 0.2289                 0.2308
 IR Inten    --     1.9778                 4.0231                 4.1863

                    13                     14                     15
                     A                      A                      A
 Frequencies --   276.9406               290.0751               316.4001
 Red. masses --     6.0604                 7.3789                 5.5594
 Frc consts  --     0.2739                 0.3658                 0.3279
 IR Inten    --     2.5048                 0.3737                 0.3179

                    16                     17                     18
                     A                      A                      A
 Frequencies --   366.1015               392.2297               413.1370
 Red. masses --     5.9259                 4.7877                 2.9761
 Frc consts  --     0.4680                 0.4340                 0.2993
 IR Inten    --     9.2613                 3.0618                 0.1004

                    19                     20                     21
                     A                      A                      A
 Frequencies --   457.0686               481.8796               504.2026
 Red. masses --     3.6815                 3.7422                 8.1004
 Frc consts  --     0.4531                 0.5120                 1.2133
 IR Inten    --     0.6897                 4.2276                 1.4013

                    22                     23                     24
                     A                      A                      A
 Frequencies --   507.8203               582.1109               587.6613
 Red. masses --     5.4902                 3.1757                 7.3384
 Frc consts  --     0.8342                 0.6340                 1.4932
 IR Inten    --     2.6269                 5.7627                 1.2643

                    25                     26                     27
                     A                      A                      A
 Frequencies --   603.7254               617.2913               633.0061
 Red. masses --     5.8087                 5.4271                 6.4239
 Frc consts  --     1.2474                 1.2184                 1.5166
 IR Inten    --     3.0487                 4.3751                 0.3638

                    28                     29                     30
                     A                      A                      A
 Frequencies --   652.1156               660.5229               674.9445
 Red. masses --     5.5552                 5.0657                 3.4976
 Frc consts  --     1.3919                 1.3022                 0.9388
 IR Inten    --    17.9267                 8.6506                13.4802

                    31                     32                     33
                     A                      A                      A
 Frequencies --   699.6909               705.5931               746.0643
 Red. masses --     6.4428                 1.7787                 4.2479
 Frc consts  --     1.8584                 0.5217                 1.3931
 IR Inten    --     7.4690                26.1997                 1.5390

                    34                     35                     36
                     A                      A                      A
 Frequencies --   761.2213               783.8675               789.8806
 Red. masses --     3.2506                 4.6539                 2.1938
 Frc consts  --     1.1098                 1.6848                 0.8064
 IR Inten    --     2.3528                17.5378                25.5644

                    37                     38                     39
                     A                      A                      A
 Frequencies --   842.4959               857.2564               867.0991
 Red. masses --     1.5517                 1.2964                 1.6851
 Frc consts  --     0.6489                 0.5613                 0.7465
 IR Inten    --    14.3983                 1.6558                11.4249

                    40                     41                     42
                     A                      A                      A
 Frequencies --   875.1915               901.8078               921.0976
 Red. masses --     1.5596                 3.8947                 6.1488
 Frc consts  --     0.7038                 1.8662                 3.0736
 IR Inten    --    24.7870                25.3721                17.9234

                    43                     44                     45
                     A                      A                      A
 Frequencies --   939.8863               974.0568               981.6241
 Red. masses --     1.4343                 1.3523                 1.7397
 Frc consts  --     0.7465                 0.7560                 0.9877
 IR Inten    --     1.9172                 0.5485                11.1973

                    46                     47                     48
                     A                      A                      A
 Frequencies --   985.4686              1002.6327              1017.5941
 Red. masses --     2.2002                 1.2673                 6.0040
 Frc consts  --     1.2589                 0.7506                 3.6630
 IR Inten    --     9.3846                 0.2563                 3.5836

                    49                     50                     51
                     A                      A                      A
 Frequencies --  1030.6454              1053.1589              1069.0608
 Red. masses --     1.8783                 2.9526                 2.0453
 Frc consts  --     1.1756                 1.9295                 1.3773
 IR Inten    --    99.5893                35.9579                10.9527

                    52                     53                     54
                     A                      A                      A
 Frequencies --  1074.5711              1110.9268              1118.0701
 Red. masses --     1.7349                 3.6899                 1.5884
 Frc consts  --     1.1803                 2.6831                 1.1699
 IR Inten    --     9.7311                12.2108                 4.9715

                    55                     56                     57
                     A                      A                      A
 Frequencies --  1166.1858              1179.5036              1196.3017
 Red. masses --     1.4358                 2.2064                 1.0986
 Frc consts  --     1.1505                 1.8086                 0.9264
 IR Inten    --   108.9917               185.3541                 0.0574

                    58                     59                     60
                     A                      A                      A
 Frequencies --  1220.0979              1236.1813              1259.5825
 Red. masses --     1.1541                 3.8385                 2.1443
 Frc consts  --     1.0122                 3.4560                 2.0044
 IR Inten    --    36.4350               809.1850                 4.9710

                    61                     62                     63
                     A                      A                      A
 Frequencies --  1273.5551              1285.0017              1308.2534
 Red. masses --     3.9430                 2.5479                 2.0869
 Frc consts  --     3.7680                 2.4788                 2.1045
 IR Inten    --    29.5952                59.9758                 7.1297

                    64                     65                     66
                     A                      A                      A
 Frequencies --  1340.8860              1372.1174              1377.2841
 Red. masses --     3.0633                 2.0278                 5.6143
 Frc consts  --     3.2450                 2.2493                 6.2747
 IR Inten    --    55.4593                 1.1053                45.6595

                    67                     68                     69
                     A                      A                      A
 Frequencies --  1400.3929              1424.2310              1480.1563
 Red. masses --     4.7358                 1.3103                 4.6468
 Frc consts  --     5.4719                 1.5660                 5.9981
 IR Inten    --   319.0427                54.7773               127.4314

                    70                     71                     72
                     A                      A                      A
 Frequencies --  1495.6868              1498.9478              1503.3056
 Red. masses --     2.2842                 1.0491                 1.0466
 Frc consts  --     3.0107                 1.3887                 1.3935
 IR Inten    --    38.3227                12.6538                 8.4048

                    73                     74                     75
                     A                      A                      A
 Frequencies --  1532.6645              1544.7317              1618.7499
 Red. masses --     3.0111                 2.2216                 7.7066
 Frc consts  --     4.1675                 3.1233                11.8980
 IR Inten    --    16.2439                11.6770                13.5782

                    76                     77                     78
                     A                      A                      A
 Frequencies --  1634.5029              1662.6034              1664.2527
 Red. masses --     5.6122                 5.4694                 7.9295
 Frc consts  --     8.8339                 8.9077                12.9400
 IR Inten    --    19.5198                 0.9656               126.5963

                    79                     80                     81
                     A                      A                      A
 Frequencies --  1674.1839              1744.9958              1858.1499
 Red. masses --     7.3189                11.1443                11.6009
 Frc consts  --    12.0866                19.9937                23.5995
 IR Inten    --   157.0300               406.1207               214.2830

                    82                     83                     84
                     A                      A                      A
 Frequencies --  3073.5768              3136.0774              3186.9532
 Red. masses --     1.0371                 1.1006                 1.1034
 Frc consts  --     5.7725                 6.3776                 6.6031
 IR Inten    --     1.1805                 4.0470                 7.2508

                    85                     86                     87
                     A                      A                      A
 Frequencies --  3189.0499              3198.6403              3209.3109
 Red. masses --     1.0855                 1.0892                 1.0931
 Frc consts  --     6.5046                 6.5655                 6.6335
 IR Inten    --     0.5673                 9.5683                27.7709

                    88                     89                     90
                     A                      A                      A
 Frequencies --  3218.2779              3224.6485              3233.0061
 Red. masses --     1.0957                 1.0899                 1.0926
 Frc consts  --     6.6862                 6.6771                 6.7285
 IR Inten    --    14.1792                 0.8542                 4.3349

                    91                     92                     93
                     A                      A                      A
 Frequencies --  3237.4964              3247.1195              3257.4080
 Red. masses --     1.0924                 1.0909                 1.0935
 Frc consts  --     6.7458                 6.7768                 6.8363
 IR Inten    --     0.3178                 2.6255                 2.1570

 - Thermochemistry -
 -------------------
 Temperature   298.150 Kelvin.  Pressure   1.00000 Atm.
 Atom     1 has atomic number  6 and mass  12.00000

 Molecular mass:   280.07356 amu.
 Principal axes and moments of inertia in atomic units:
                           1         2         3
     Eigenvalues --  2792.52704********************
           X            0.99999   0.00416   0.00223
           Y           -0.00415   0.99999  -0.00129
           Z           -0.00224   0.00129   1.00000
 This molecule is an asymmetric top.
 Rotational symmetry number  1.
 Warning -- assumption of classical behavior for rotation
           may cause significant error
 Rotational temperatures (Kelvin)      0.03102     0.00690     0.00574
 Rotational constants (GHZ):           0.64628     0.14382     0.11962
 Zero-point vibrational energy     657363.7 (Joules/Mol)
                                  157.11369 (Kcal/Mol)
 Warning -- explicit consideration of  26 degrees of freedom as
           vibrations may cause significant error
 Vibrational temperatures:     32.31    42.26    75.94    85.08    98.43
          (Kelvin)            118.11   161.28   184.92   227.44   290.11
                              341.59   374.59   398.46   417.35   455.23
                              526.74   564.33   594.41   657.62   693.32
                              725.43   730.64   837.53   845.51   868.63
                              888.14   910.75   938.25   950.34   971.09
                             1006.70  1015.19  1073.42  1095.23  1127.81
                             1136.46  1212.16  1233.40  1247.56  1259.20
                             1297.50  1325.25  1352.29  1401.45  1412.34
                             1417.87  1442.56  1464.09  1482.87  1515.26
                             1538.14  1546.07  1598.37  1608.65  1677.88
                             1697.04  1721.21  1755.45  1778.59  1812.26
                             1832.36  1848.83  1882.28  1929.23  1974.17
                             1981.60  2014.85  2049.15  2129.61  2151.96
                             2156.65  2162.92  2205.16  2222.52  2329.02
                             2351.68  2392.11  2394.49  2408.77  2510.66
                             2673.46  4422.19  4512.11  4585.31  4588.33
                             4602.12  4617.48  4630.38  4639.54  4651.57
                             4658.03  4671.87  4686.68

 Zero-point correction=                           0.250377 (Hartree/Particle)
 Thermal correction to Energy=                    0.267647
 Thermal correction to Enthalpy=                  0.268592
 Thermal correction to Gibbs Free Energy=         0.202690
 Sum of electronic and zero-point Energies=           -955.696836
 Sum of electronic and thermal Energies=              -955.679566
 Sum of electronic and thermal Enthalpies=            -955.678621
 Sum of electronic and thermal Free Energies=         -955.744523

                     E (Thermal)             CV                S
                      KCal/Mol        Cal/Mol-Kelvin    Cal/Mol-Kelvin
 Total                  167.951             66.154            138.702
 Electronic               0.000              0.000              0.000
 Translational            0.889              2.981             42.788
 Rotational               0.889              2.981             34.624
 Vibrational            166.174             60.192             61.290
 Vibration     1          0.593              1.985              6.404
 Vibration     2          0.593              1.984              5.871
 Vibration     3          0.596              1.976              4.710
 Vibration     4          0.597              1.974              4.486
 Vibration     5          0.598              1.969              4.199
 Vibration     6          0.600              1.961              3.840
 Vibration     7          0.607              1.939              3.232
 Vibration     8          0.611              1.925              2.968
 Vibration     9          0.621              1.894              2.573
 Vibration    10          0.639              1.838              2.118
 Vibration    11          0.656              1.783              1.822
 Vibration    12          0.668              1.745              1.659
 Vibration    13          0.678              1.716              1.552
 Vibration    14          0.686              1.692              1.474
 Vibration    15          0.703              1.642              1.329
 Vibration    16          0.739              1.542              1.096
 Vibration    17          0.760              1.487              0.992
 Vibration    18          0.777              1.442              0.916
 Vibration    19          0.815              1.345              0.775
 Vibration    20          0.838              1.290              0.705
 Vibration    21          0.859              1.241              0.648
 Vibration    22          0.863              1.233              0.639
 Vibration    23          0.939              1.070              0.481
 Vibration    24          0.945              1.058              0.471
 Vibration    25          0.962              1.024              0.443
 Vibration    26          0.977              0.995              0.421

 Optimization completed.
    -- Stationary point found.
 Normal termination of Gaussian 09 at Fri Oct  1 04:11:03 2021.
 Gaussian 09:  AM64L-G09RevA.02 11-Jun-2009

 ----------------------------------------------------------------------
 #p TD(NStates=10, Root=1) b3lyp/6-31G* volume pop=NPA density=current
 Geom=AllCheck Guess=Read
 ----------------------------------------------------------------------

 CC(=O)Oc1ccc2c(c1)oc(cc2=O)c1ccccc1_conf_0
 ------------------------------------------
 Redundant internal coordinates taken from checkpoint file:
 C17H12O4_84e2_conf_0.chk
 Charge =  0 Multiplicity = 1

                         Standard orientation:
 ---------------------------------------------------------------------
 Center     Atomic      Atomic             Coordinates (Angstroms)
 Number     Number       Type             X           Y           Z
 ---------------------------------------------------------------------
      1          6           0       -5.838159   -2.215569   -0.247254
      2          6           0       -4.927723   -1.104334    0.211261
      3          8           0       -5.159491   -0.304017    1.080448
      4          8           0       -3.760410   -1.140364   -0.518437
      5          6           0       -2.750919   -0.207217   -0.305543
      6          6           0       -2.999854    1.172265   -0.216966
      7          6           0       -1.923828    2.035710   -0.088719
      8          6           0       -0.604598    1.557595   -0.052038
      9          6           0       -0.395860    0.176598   -0.147460
     10          6           0       -1.460486   -0.717806   -0.274427
     11          8           0        0.860805   -0.370731   -0.128493
     12          6           0        1.955500    0.437188    0.003374
     13          6           0        1.840207    1.785276    0.117355
     14          6           0        0.552453    2.469943    0.085112
     15          8           0        0.432449    3.691671    0.171782
     16          6           0        3.213220   -0.333420    0.020608
     17          6           0        3.203538   -1.706605    0.318588
     18          6           0        4.393637   -2.430165    0.354081
     19          6           0        5.609681   -1.799066    0.087773
     20          6           0        5.628178   -0.436494   -0.219682
     21          6           0        4.441786    0.290511   -0.256488
     22          1           0       -6.762815   -2.185219    0.329550
     23          1           0       -5.346094   -3.184533   -0.114166
     24          1           0       -6.057976   -2.105054   -1.314166
     25          1           0       -4.015163    1.545432   -0.240146
     26          1           0       -2.069397    3.108628   -0.015058
     27          1           0       -1.282542   -1.783998   -0.353655
     28          1           0        2.722153    2.397995    0.255926
     29          1           0        2.261476   -2.199763    0.529292
     30          1           0        4.369892   -3.489875    0.592638
     31          1           0        6.536672   -2.365117    0.114071
     32          1           0        6.568547    0.060385   -0.441027
     33          1           0        4.467785    1.342180   -0.523105
 ---------------------------------------------------------------------

 SCF Done:  E(RB3LYP) =  -955.947213015     A.U. after    2 cycles

 Excitation energies and oscillator strengths:

 Excited State   1:      Singlet-A      3.4833 eV  355.93 nm  f=0.0005  <S**2>=0.000
      72 -> 74         0.66321
      72 -> 75        -0.10049
      73 -> 74         0.17303
 This state for optimization and/or second-order correction.
 Total Energy, E(TD-HF/TD-KS) =  -955.819202334
 Copying the excited state density for this state as the 1-particle RhoCI density.

 Excited State   2:      Singlet-A      4.2376 eV  292.58 nm  f=0.1624  <S**2>=0.000
      70 -> 74         0.17827
      71 -> 75         0.13312
      72 -> 74        -0.17289
      73 -> 74         0.63355

 Excited State   3:      Singlet-A      4.3880 eV  282.55 nm  f=0.3900  <S**2>=0.000
      71 -> 74         0.68679

 Excited State   4:      Singlet-A      4.6523 eV  266.50 nm  f=0.0001  <S**2>=0.000
      72 -> 74         0.11242
      72 -> 75         0.64623
      72 -> 78         0.10846
      73 -> 75         0.21555

 Excited State   5:      Singlet-A      4.6999 eV  263.80 nm  f=0.0287  <S**2>=0.000
      69 -> 74         0.56604
      70 -> 74         0.28586
      71 -> 76         0.14110
      73 -> 76        -0.21888

 Excited State   6:      Singlet-A      4.7189 eV  262.74 nm  f=0.0786  <S**2>=0.000
      69 -> 74        -0.28489
      70 -> 74         0.60113
      73 -> 74        -0.15181

 Excited State   7:      Singlet-A      4.8975 eV  253.16 nm  f=0.0312  <S**2>=0.000
      71 -> 75         0.13689
      71 -> 77         0.12672
      72 -> 75        -0.20641
      73 -> 75         0.61158

 Excited State   8:      Singlet-A      5.2806 eV  234.79 nm  f=0.0503  <S**2>=0.000
      69 -> 74        -0.10225
      70 -> 75         0.36828
      70 -> 77        -0.14531
      71 -> 75         0.43178
      71 -> 77         0.14262
      73 -> 75        -0.19639
      73 -> 76        -0.18430

 Excited State   9:      Singlet-A      5.3861 eV  230.19 nm  f=0.0099  <S**2>=0.000
      72 -> 76        -0.27421
      72 -> 77         0.55865
      72 -> 78        -0.14834
      73 -> 76        -0.12762
      73 -> 77         0.22743

 Excited State  10:      Singlet-A      5.3977 eV  229.70 nm  f=0.0234  <S**2>=0.000
      68 -> 74         0.45622
      68 -> 75        -0.27065
      68 -> 78         0.21936
      70 -> 75        -0.17716
      70 -> 78         0.13397
      71 -> 75         0.24516
      73 -> 76        -0.15212

 The electronic state is 1-A.
 Alpha  occ. eigenvalues --  -19.22991 -19.21380 -19.15385 -19.11290 -10.33630
 Alpha  occ. eigenvalues --  -10.28377 -10.27563 -10.27276 -10.26396 -10.21914
 Alpha  occ. eigenvalues --  -10.20911 -10.20880 -10.20811 -10.20624 -10.20598
 Alpha  occ. eigenvalues --  -10.20590 -10.20483 -10.20437 -10.20432 -10.20341
 Alpha  occ. eigenvalues --  -10.19489  -1.12126  -1.12014  -1.03898  -1.01264
 Alpha  occ. eigenvalues --   -0.88102  -0.86921  -0.81778  -0.79629  -0.76978
 Alpha  occ. eigenvalues --   -0.76338  -0.75838  -0.74286  -0.67674  -0.66737
 Alpha  occ. eigenvalues --   -0.62511  -0.62154  -0.60838  -0.58773  -0.54518
 Alpha  occ. eigenvalues --   -0.53557  -0.52947  -0.51198  -0.49833  -0.48790
 Alpha  occ. eigenvalues --   -0.48306  -0.47510  -0.46820  -0.45973  -0.45468
 Alpha  occ. eigenvalues --   -0.44651  -0.44181  -0.43524  -0.42392  -0.41679
 Alpha  occ. eigenvalues --   -0.41141  -0.41101  -0.38976  -0.38770  -0.38278
 Alpha  occ. eigenvalues --   -0.38194  -0.36832  -0.36384  -0.35918  -0.34954
 Alpha  occ. eigenvalues --   -0.33185  -0.29679  -0.28908  -0.26546  -0.25887
 Alpha  occ. eigenvalues --   -0.24789  -0.23887  -0.23514
 Alpha virt. eigenvalues --   -0.06734  -0.03469  -0.01453  -0.00930  -0.00099
 Alpha virt. eigenvalues --    0.02588   0.08169   0.08723   0.09178   0.10159
 Alpha virt. eigenvalues --    0.11088   0.12837   0.13808   0.14378   0.14782

 Mulliken atomic charges:
              1
     1  C   -0.525984
     2  C    0.591433
     3  O   -0.438336
     4  O   -0.518106
     5  C    0.356324
     6  C   -0.137503
     7  C   -0.218055
     8  C    0.090890
     9  C    0.321577
    10  C   -0.245431
    11  O   -0.542985
    12  C    0.300090
    13  C   -0.267045
    14  C    0.400569
    15  O   -0.352521
    16  C    0.076705
    17  C   -0.170804
    18  C   -0.132473
    19  C   -0.132706
    20  C   -0.137196
    21  C   -0.178363
    22  H    0.188121
    23  H    0.188229
    24  H    0.187983
    25  H    0.162622
    26  H    0.158855
    27  H    0.161506
    28  H    0.165442
    29  H    0.138470
    30  H    0.128223
    31  H    0.125336
    32  H    0.128179
    33  H    0.126953
 Sum of Mulliken atomic charges =  -0.00000

 Dipole moment (field-independent basis, Debye):
    X=             -0.8813    Y=             -1.4100    Z=             -1.3006  Tot=              2.1110
 Quadrupole moment (field-independent basis, Debye-Ang):
   XX=           -106.5077   YY=           -111.0685   ZZ=           -124.5386
   XY=              8.6753   XZ=              7.6689   YZ=             -1.8450

 Summary of Natural Population Analysis:

                                       Natural Population
                Natural  -----------------------------------------------
    Atom  No    Charge         Core      Valence    Rydberg      Total
 -----------------------------------------------------------------------
      C    1   -0.77648      1.99933     4.77044    0.00671     6.77648
      C    2    0.82807      1.99945     3.12936    0.04313     5.17193
      O    3   -0.57045      1.99978     6.55045    0.02022     8.57045
      O    4   -0.54724      1.99970     6.53620    0.01135     8.54724
      C    5    0.31165      1.99874     3.66804    0.02157     5.68835
      C    6   -0.26672      1.99901     4.25437    0.01334     6.26672
      C    7   -0.21692      1.99907     4.20312    0.01473     6.21692
      C    8   -0.15953      1.99882     4.14784    0.01287     6.15953
      C    9    0.36286      1.99872     3.61727    0.02115     5.63714
      C   10   -0.31213      1.99893     4.29836    0.01484     6.31213
      O   11   -0.47316      1.99969     6.46181    0.01166     8.47316
      C   12    0.33438      1.99877     3.64451    0.02234     5.66562
      C   13   -0.37926      1.99889     4.36908    0.01129     6.37926
      C   14    0.37461      1.99913     3.59428    0.03198     5.62539
      O   15   -0.25310      1.99982     6.23603    0.01724     8.25310
      C   16   -0.11325      1.99898     4.09884    0.01544     6.11325
      C   17   -0.22152      1.99905     4.20903    0.01343     6.22152
      C   18   -0.22817      1.99910     4.21524    0.01383     6.22817
      C   19   -0.24761      1.99910     4.23450    0.01401     6.24761
      C   20   -0.22974      1.99910     4.21660    0.01403     6.22974
      C   21   -0.22227      1.99905     4.21082    0.01240     6.22227
      H   22    0.25979      0.00000     0.73931    0.00089     0.74021
      H   23    0.26106      0.00000     0.73811    0.00082     0.73894
      H   24    0.26095      0.00000     0.73823    0.00082     0.73905
      H   25    0.26319      0.00000     0.73588    0.00094     0.73681
      H   26    0.25232      0.00000     0.74693    0.00074     0.74768
      H   27    0.26555      0.00000     0.73319    0.00127     0.73445
      H   28    0.26345      0.00000     0.73566    0.00089     0.73655
      H   29    0.24373      0.00000     0.75507    0.00120     0.75627
      H   30    0.23604      0.00000     0.76312    0.00084     0.76396
      H   31    0.23414      0.00000     0.76504    0.00082     0.76586
      H   32    0.23607      0.00000     0.76309    0.00084     0.76393
      H   33    0.22968      0.00000     0.76937    0.00096     0.77032
 =======================================================================
   * Total *   -0.00000     41.98223   103.64916    0.36860   146.00000

 Normal termination of Gaussian 09 at Fri Oct  1 06:47:41 2021.
