 Gaussian 09, Revision A.02,

 -----------------------------------
 #p opt b3lyp/6-31G* scf=(xqc,tight)
 -----------------------------------

 -------------------------------------
 COc1ccc(cc1)C(n1cncc1)c1ccccc1_conf_0
 -------------------------------------
 Symbolic Z-matrix:
 Charge =  0 Multiplicity = 1

 SCF Done:  E(RB3LYP) =  -842.145196302     A.U. after   14 cycles
 SCF Done:  E(RB3LYP) =  -842.147741465     A.U. after   13 cycles
 SCF Done:  E(RB3LYP) =  -842.148148405     A.U. after   12 cycles
 SCF Done:  E(RB3LYP) =  -842.148248707     A.U. after   11 cycles
 SCF Done:  E(RB3LYP) =  -842.148314041     A.U. after   10 cycles
 SCF Done:  E(RB3LYP) =  -842.148328563     A.U. after   10 cycles
 SCF Done:  E(RB3LYP) =  -842.148330439     A.U. after    9 cycles
 SCF Done:  E(RB3LYP) =  -842.148331115     A.U. after    8 cycles
 SCF Done:  E(RB3LYP) =  -842.148331795     A.U. after    7 cycles
 SCF Done:  E(RB3LYP) =  -842.148332121     A.U. after    8 cycles
 SCF Done:  E(RB3LYP) =  -842.148332228     A.U. after    7 cycles
 SCF Done:  E(RB3LYP) =  -842.148332239     A.U. after    7 cycles
 SCF Done:  E(RB3LYP) =  -842.148332228     A.U. after    7 cycles
 Optimization completed on the basis of negligible forces.
    -- Stationary point found.
 Normal termination of Gaussian 09 at Thu Sep 30 14:14:09 2021.

 ----------------------------------------------------------------------
 #p freq b3lyp/6-31G* volume NMR pop=NPA density=current Geom=AllCheck
 Guess=Read
 ----------------------------------------------------------------------

 COc1ccc(cc1)C(n1cncc1)c1ccccc1_conf_0
 -------------------------------------
 Redundant internal coordinates taken from checkpoint file:
 C17H16N2O_4034_conf_0.chk
 Charge =  0 Multiplicity = 1

 SCF Done:  E(RB3LYP) =  -842.148332228     A.U. after    1 cycles

  1  C    Isotropic =   137.3539   Anisotropy =    65.5645

  2  O    Isotropic =   235.0398   Anisotropy =    84.3540

  3  C    Isotropic =    38.8327   Anisotropy =   128.4428

  4  C    Isotropic =    86.0584   Anisotropy =   142.4233

  5  C    Isotropic =    64.2856   Anisotropy =   152.3926

  6  C    Isotropic =    64.2012   Anisotropy =   164.2090

  7  C    Isotropic =    65.0742   Anisotropy =   168.7783

  8  C    Isotropic =    78.0677   Anisotropy =   135.0331

  9  C    Isotropic =   124.6837   Anisotropy =    18.5695

 10  N    Isotropic =    75.6524   Anisotropy =   135.0471

 11  C    Isotropic =    61.4644   Anisotropy =    80.2191

 12  N    Isotropic =    -9.7900   Anisotropy =   384.2208

 13  C    Isotropic =    67.0244   Anisotropy =   106.5119

 14  C    Isotropic =    78.2516   Anisotropy =   109.0028

 15  C    Isotropic =    54.2116   Anisotropy =   172.1510

 16  C    Isotropic =    69.1306   Anisotropy =   157.9225

 17  C    Isotropic =    68.3886   Anisotropy =   164.7926

 18  C    Isotropic =    69.3462   Anisotropy =   166.1970

 19  C    Isotropic =    67.6968   Anisotropy =   166.4381

 20  C    Isotropic =    70.2106   Anisotropy =   169.5789

 21  H    Isotropic =    28.2733   Anisotropy =     8.4057

 22  H    Isotropic =    28.6304   Anisotropy =     8.1841

 23  H    Isotropic =    28.6271   Anisotropy =     8.0370

 24  H    Isotropic =    25.7452   Anisotropy =     7.1575

 25  H    Isotropic =    24.9278   Anisotropy =     8.4974

 26  H    Isotropic =    25.4212   Anisotropy =    11.4273

 27  H    Isotropic =    25.5651   Anisotropy =     6.4119

 28  H    Isotropic =    25.8886   Anisotropy =     4.2433

 29  H    Isotropic =    25.1261   Anisotropy =     6.3617

 30  H    Isotropic =    25.3981   Anisotropy =     4.5039

 31  H    Isotropic =    25.9161   Anisotropy =     8.4983

 32  H    Isotropic =    25.1872   Anisotropy =     9.4159

 33  H    Isotropic =    25.0035   Anisotropy =     4.8981

 34  H    Isotropic =    25.0455   Anisotropy =     3.4912

 35  H    Isotropic =    25.0189   Anisotropy =     5.6394

 36  H    Isotropic =    25.6149   Anisotropy =    12.3830

  Exact polarizability: 226.199   4.366 178.732  11.148   1.149 147.368
 Approx polarizability: 311.160  -1.969 273.647  18.767   8.814 267.654

                     1                      2                      3
                     A                      A                      A
 Frequencies --    19.5316                29.0424                46.7624
 Red. masses --     3.6848                 3.8586                 4.6638
 Frc consts  --     0.0008                 0.0019                 0.0060
 IR Inten    --     0.0817                 1.1243                 0.2074

                     4                      5                      6
                     A                      A                      A
 Frequencies --    53.8871                65.2633                76.4700
 Red. masses --     4.8025                 4.8717                 4.3124
 Frc consts  --     0.0082                 0.0122                 0.0149
 IR Inten    --     1.7556                 0.0523                 0.6239

                     7                      8                      9
                     A                      A                      A
 Frequencies --    97.4147               171.8139               187.6314
 Red. masses --     3.8355                 4.1900                 4.2509
 Frc consts  --     0.0214                 0.0729                 0.0882
 IR Inten    --     3.2023                 0.7108                 0.2804

                    10                     11                     12
                     A                      A                      A
 Frequencies --   227.0776               247.5944               259.3098
 Red. masses --     4.5320                 1.5504                 2.7195
 Frc consts  --     0.1377                 0.0560                 0.1077
 IR Inten    --     1.5609                 0.1590                 0.2163

                    13                     14                     15
                     A                      A                      A
 Frequencies --   279.3710               314.9752               340.4094
 Red. masses --     4.0456                 4.3592                 4.8218
 Frc consts  --     0.1860                 0.2548                 0.3292
 IR Inten    --     3.2687                 1.8683                 0.8381

                    16                     17                     18
                     A                      A                      A
 Frequencies --   375.2981               414.2205               427.4704
 Red. masses --     5.5938                 2.9916                 3.1399
 Frc consts  --     0.4642                 0.3024                 0.3380
 IR Inten    --     1.6576                 0.2156                 0.1739

                    19                     20                     21
                     A                      A                      A
 Frequencies --   461.7654               504.0105               542.1678
 Red. masses --     4.3937                 3.6219                 2.7484
 Frc consts  --     0.5520                 0.5421                 0.4760
 IR Inten    --     0.3624                 1.4627                 6.0042

                    22                     23                     24
                     A                      A                      A
 Frequencies --   576.4927               627.8512               632.5567
 Red. masses --     4.6347                 4.9932                 6.2301
 Frc consts  --     0.9075                 1.1597                 1.4687
 IR Inten    --    22.0727                 7.3997                 0.6229

                    25                     26                     27
                     A                      A                      A
 Frequencies --   649.3904               661.8245               678.4969
 Red. masses --     5.3901                 5.7340                 3.8574
 Frc consts  --     1.3392                 1.4798                 1.0463
 IR Inten    --     5.5280                 3.1640                17.8667

                    28                     29                     30
                     A                      A                      A
 Frequencies --   712.2216               723.1232               735.6966
 Red. masses --     2.5351                 2.8516                 1.2460
 Frc consts  --     0.7577                 0.8785                 0.3973
 IR Inten    --    17.8164                 4.5136                16.1462

                    31                     32                     33
                     A                      A                      A
 Frequencies --   751.2736               796.2887               803.1816
 Red. masses --     1.9868                 3.4382                 1.4590
 Frc consts  --     0.6607                 1.2845                 0.5546
 IR Inten    --    24.7826                15.8221                20.8153

                    34                     35                     36
                     A                      A                      A
 Frequencies --   808.8439               830.7421               849.9515
 Red. masses --     2.5193                 1.3944                 1.4448
 Frc consts  --     0.9711                 0.5670                 0.6150
 IR Inten    --    38.0112                 0.5515                 4.6703

                    37                     38                     39
                     A                      A                      A
 Frequencies --   855.7924               860.7241               862.9026
 Red. masses --     2.6042                 2.1268                 1.2994
 Frc consts  --     1.1237                 0.9283                 0.5700
 IR Inten    --     6.1916                 8.8762                 1.0796

                    40                     41                     42
                     A                      A                      A
 Frequencies --   886.7015               916.2706               936.3405
 Red. masses --     3.7789                 6.3030                 1.4687
 Frc consts  --     1.7505                 3.1178                 0.7587
 IR Inten    --    16.4775                16.4375                 1.9983

                    43                     44                     45
                     A                      A                      A
 Frequencies --   947.2885               971.5765               973.6507
 Red. masses --     1.3486                 1.3425                 1.3019
 Frc consts  --     0.7130                 0.7467                 0.7272
 IR Inten    --     0.4532                 0.0279                 0.0040

                    46                     47                     48
                     A                      A                      A
 Frequencies --   998.2769              1018.0404              1032.0381
 Red. masses --     1.2525                 6.1726                 2.8508
 Frc consts  --     0.7354                 3.7692                 1.7890
 IR Inten    --     0.2506                 1.3198                 0.3413

                    49                     50                     51
                     A                      A                      A
 Frequencies --  1042.5817              1059.4318              1077.6736
 Red. masses --     3.9633                 2.2472                 6.1689
 Frc consts  --     2.5382                 1.4860                 4.2212
 IR Inten    --    18.4175                 5.4621                60.3729

                    52                     53                     54
                     A                      A                      A
 Frequencies --  1102.8900              1117.1481              1147.1393
 Red. masses --     1.3931                 1.5801                 1.3392
 Frc consts  --     0.9984                 1.1618                 1.0383
 IR Inten    --    47.0742                 1.6315                 7.4165

                    55                     56                     57
                     A                      A                      A
 Frequencies --  1150.4463              1184.6582              1193.7675
 Red. masses --     1.8926                 1.2698                 1.1182
 Frc consts  --     1.4759                 1.0500                 0.9389
 IR Inten    --    12.3506                 0.7638                 0.0216

                    58                     59                     60
                     A                      A                      A
 Frequencies --  1201.0733              1211.7312              1217.0387
 Red. masses --     2.8650                 1.1948                 1.1998
 Frc consts  --     2.4350                 1.0336                 1.0471
 IR Inten    --     0.9057                52.9806                 2.9823

                    61                     62                     63
                     A                      A                      A
 Frequencies --  1218.0396              1224.2219              1252.6073
 Red. masses --     1.3944                 2.0255                 1.6840
 Frc consts  --     1.2189                 1.7886                 1.5568
 IR Inten    --     6.1491                 1.8930                21.8102

                    64                     65                     66
                     A                      A                      A
 Frequencies --  1274.5471              1298.0764              1309.1304
 Red. masses --     2.8123                 2.8420                 2.5877
 Frc consts  --     2.6917                 2.8215                 2.6129
 IR Inten    --    70.8652               118.7077               185.4551

                    67                     68                     69
                     A                      A                      A
 Frequencies --  1316.6546              1347.6725              1352.0968
 Red. masses --     1.9005                 2.4266                 2.3034
 Frc consts  --     1.9411                 2.5967                 2.4811
 IR Inten    --     6.4168                 2.3677                34.2100

                    70                     71                     72
                     A                      A                      A
 Frequencies --  1369.2414              1379.5952              1394.0939
 Red. masses --     1.8892                 2.2099                 3.9859
 Frc consts  --     2.0868                 2.4782                 4.5642
 IR Inten    --     3.2764                33.8435                 9.2939

                    73                     74                     75
                     A                      A                      A
 Frequencies --  1433.3330              1469.9354              1497.6823
 Red. masses --     2.0902                 2.8463                 2.1864
 Frc consts  --     2.5300                 3.6235                 2.8894
 IR Inten    --    24.9470                 1.0664                22.4956

                    76                     77                     78
                     A                      A                      A
 Frequencies --  1499.8386              1521.6188              1529.2835
 Red. masses --     1.2058                 1.0482                 3.3756
 Frc consts  --     1.5981                 1.4298                 4.6513
 IR Inten    --    15.2841                 5.8310                39.2855

                    79                     80                     81
                     A                      A                      A
 Frequencies --  1534.5721              1545.5246              1557.8805
 Red. masses --     1.0660                 2.1766                 3.8801
 Frc consts  --     1.4790                 3.0632                 5.5484
 IR Inten    --    45.2049                14.0275                21.7086

                    82                     83                     84
                     A                      A                      A
 Frequencies --  1566.3294              1632.6442              1644.9439
 Red. masses --     2.4022                 6.4877                 5.4906
 Frc consts  --     3.4723                10.1889                 8.7533
 IR Inten    --   112.5201                 7.5831                 1.8589

                    85                     86                     87
                     A                      A                      A
 Frequencies --  1663.8004              1672.5551              3028.1341
 Red. masses --     5.4502                 5.6734                 1.0347
 Frc consts  --     8.8893                 9.3510                 5.5901
 IR Inten    --     3.3278                83.0891                58.4630

                    88                     89                     90
                     A                      A                      A
 Frequencies --  3050.2514              3088.2684              3160.7282
 Red. masses --     1.0839                 1.1069                 1.0999
 Frc consts  --     5.9417                 6.2198                 6.4741
 IR Inten    --    10.9703                40.1512                26.8763

                    91                     92                     93
                     A                      A                      A
 Frequencies --  3176.1363              3179.9359              3186.6042
 Red. masses --     1.0866                 1.0894                 1.0870
 Frc consts  --     6.4586                 6.4907                 6.5034
 IR Inten    --     6.6952                10.9908                 0.8200

                    94                     95                     96
                     A                      A                      A
 Frequencies --  3196.5071              3202.6754              3208.0566
 Red. masses --     1.0917                 1.0878                 1.0948
 Frc consts  --     6.5719                 6.5738                 6.6385
 IR Inten    --    24.1407                 5.5006                25.8643

                    97                     98                     99
                     A                      A                      A
 Frequencies --  3215.8696              3218.9837              3227.5787
 Red. masses --     1.0951                 1.0942                 1.0913
 Frc consts  --     6.6726                 6.6802                 6.6982
 IR Inten    --    10.5263                 5.8594                11.8016

                   100                    101                    102
                     A                      A                      A
 Frequencies --  3256.6759              3259.8822              3304.8292
 Red. masses --     1.0941                 1.0948                 1.1009
 Frc consts  --     6.8368                 6.8550                 7.0846
 IR Inten    --     7.2859                 5.7326                 1.8058

 - Thermochemistry -
 -------------------
 Temperature   298.150 Kelvin.  Pressure   1.00000 Atm.
 Atom     1 has atomic number  6 and mass  12.00000

 Molecular mass:   264.12626 amu.
 Principal axes and moments of inertia in atomic units:
                           1         2         3
     Eigenvalues --  3817.005867873.70641**********
           X            0.99986   0.01523   0.00674
           Y           -0.01521   0.99988  -0.00278
           Z           -0.00679   0.00267   0.99997
 This molecule is an asymmetric top.
 Rotational symmetry number  1.
 Warning -- assumption of classical behavior for rotation
           may cause significant error
 Rotational temperatures (Kelvin)      0.02269     0.01100     0.00828
 Rotational constants (GHZ):           0.47282     0.22921     0.17244
 Zero-point vibrational energy     774053.5 (Joules/Mol)
                                  185.00323 (Kcal/Mol)
 Warning -- explicit consideration of  22 degrees of freedom as
           vibrations may cause significant error
 Vibrational temperatures:     28.10    41.79    67.28    77.53    93.90
          (Kelvin)            110.02   140.16   247.20   269.96   326.71
                              356.23   373.09   401.95   453.18   489.77
                              539.97   595.97   615.03   664.38   725.16
                              780.06   829.44   903.34   910.11   934.33
                              952.22   976.20  1024.73  1040.41  1058.50
                             1080.91  1145.68  1155.60  1163.74  1195.25
                             1222.89  1231.29  1238.39  1241.52  1275.76
                             1318.31  1347.18  1362.94  1397.88  1400.86
                             1436.30  1464.73  1484.87  1500.04  1524.28
                             1550.53  1586.81  1607.32  1650.48  1655.23
                             1704.46  1717.56  1728.07  1743.41  1751.05
                             1752.49  1761.38  1802.22  1833.79  1867.64
                             1883.54  1894.37  1939.00  1945.36  1970.03
                             1984.93  2005.79  2062.24  2114.91  2154.83
                             2157.93  2189.27  2200.30  2207.90  2223.66
                             2241.44  2253.60  2349.01  2366.70  2393.83
                             2406.43  4356.80  4388.63  4443.32  4547.58
                             4569.75  4575.21  4584.81  4599.06  4607.93
                             4615.67  4626.91  4631.39  4643.76  4685.62
                             4690.24  4754.91

 Zero-point correction=                           0.294821 (Hartree/Particle)
 Thermal correction to Energy=                    0.311541
 Thermal correction to Enthalpy=                  0.312485
 Thermal correction to Gibbs Free Energy=         0.247602
 Sum of electronic and zero-point Energies=           -841.853511
 Sum of electronic and thermal Energies=              -841.836791
 Sum of electronic and thermal Enthalpies=            -841.835847
 Sum of electronic and thermal Free Energies=         -841.900731

                     E (Thermal)             CV                S
                      KCal/Mol        Cal/Mol-Kelvin    Cal/Mol-Kelvin
 Total                  195.495             64.880            136.559
 Electronic               0.000              0.000              0.000
 Translational            0.889              2.981             42.613
 Rotational               0.889              2.981             34.108
 Vibrational            193.718             58.919             59.838
 Vibration     1          0.593              1.986              6.681
 Vibration     2          0.593              1.984              5.894
 Vibration     3          0.595              1.979              4.950
 Vibration     4          0.596              1.976              4.669
 Vibration     5          0.597              1.971              4.291
 Vibration     6          0.599              1.965              3.980
 Vibration     7          0.603              1.951              3.505
 Vibration     8          0.626              1.877              2.416
 Vibration     9          0.632              1.857              2.251
 Vibration    10          0.651              1.800              1.902
 Vibration    11          0.661              1.767              1.748
 Vibration    12          0.668              1.747              1.666
 Vibration    13          0.680              1.712              1.538
 Vibration    14          0.702              1.645              1.336
 Vibration    15          0.720              1.595              1.210
 Vibration    16          0.746              1.523              1.058
 Vibration    17          0.778              1.439              0.912
 Vibration    18          0.789              1.410              0.867
 Vibration    19          0.819              1.335              0.761
 Vibration    20          0.859              1.241              0.648
 Vibration    21          0.897              1.157              0.561
 Vibration    22          0.933              1.082              0.492

 Optimization completed on the basis of negligible forces.
    -- Stationary point found.
 Normal termination of Gaussian 09 at Thu Sep 30 15:56:42 2021.
 Gaussian 09:  AM64L-G09RevA.02 11-Jun-2009

 ----------------------------------------------------------------------
 #p TD(NStates=10, Root=1) b3lyp/6-31G* volume pop=NPA density=current
 Geom=AllCheck Guess=Read
 ----------------------------------------------------------------------

 COc1ccc(cc1)C(n1cncc1)c1ccccc1_conf_0
 -------------------------------------
 Redundant internal coordinates taken from checkpoint file:
 C17H16N2O_4034_conf_0.chk
 Charge =  0 Multiplicity = 1

                         Standard orientation:
 ---------------------------------------------------------------------
 Center     Atomic      Atomic             Coordinates (Angstroms)
 Number     Number       Type             X           Y           Z
 ---------------------------------------------------------------------
      1          6           0        5.726541   -0.268702    0.072979
      2          8           0        4.641106   -0.750907   -0.704505
      3          6           0        3.373397   -0.470071   -0.290213
      4          6           0        3.052960    0.256993    0.862962
      5          6           0        1.712884    0.479048    1.184873
      6          6           0        0.675758   -0.008363    0.385709
      7          6           0        1.014302   -0.740211   -0.762824
      8          6           0        2.342323   -0.967415   -1.100833
      9          6           0       -0.772683    0.294103    0.761049
     10          7           0       -1.176069    1.625403    0.278391
     11          6           0       -2.071400    2.455813    0.898610
     12          7           0       -2.316502    3.545297    0.202963
     13          6           0       -1.549409    3.416730   -0.933710
     14          6           0       -0.839357    2.241581   -0.913579
     15          6           0       -1.757135   -0.802790    0.350005
     16          6           0       -1.708122   -2.031453    1.024039
     17          6           0       -2.582611   -3.062860    0.689172
     18          6           0       -3.522487   -2.880877   -0.328966
     19          6           0       -3.578243   -1.661735   -1.002711
     20          6           0       -2.702169   -0.626043   -0.664704
     21          1           0        6.631318   -0.599112   -0.440133
     22          1           0        5.712586   -0.686621    1.088195
     23          1           0        5.723743    0.827500    0.133753
     24          1           0        3.827814    0.648709    1.511827
     25          1           0        1.476868    1.051604    2.079290
     26          1           0        0.229110   -1.145277   -1.394318
     27          1           0        2.607776   -1.534435   -1.987574
     28          1           0       -0.812055    0.370520    1.854427
     29          1           0       -2.508777    2.203826    1.856473
     30          1           0       -1.542946    4.183200   -1.697461
     31          1           0       -0.127495    1.805761   -1.596689
     32          1           0       -0.975805   -2.180304    1.814750
     33          1           0       -2.533555   -4.007151    1.224987
     34          1           0       -4.207199   -3.683110   -0.590409
     35          1           0       -4.308348   -1.508067   -1.792903
     36          1           0       -2.761178    0.322835   -1.188799
 ---------------------------------------------------------------------

 SCF Done:  E(RB3LYP) =  -842.148332228     A.U. after    1 cycles

 Excitation energies and oscillator strengths:

 Excited State   1:      Singlet-A      4.8319 eV  256.59 nm  f=0.0038  <S**2>=0.000
      70 -> 71         0.70141
 This state for optimization and/or second-order correction.
 Total Energy, E(TD-HF/TD-KS) =  -841.970761497
 Copying the excited state density for this state as the 1-particle RhoCI density.

 Excited State   2:      Singlet-A      4.9811 eV  248.91 nm  f=0.0096  <S**2>=0.000
      69 -> 71         0.40719
      70 -> 72         0.53214

 Excited State   3:      Singlet-A      4.9995 eV  247.99 nm  f=0.0356  <S**2>=0.000
      69 -> 71         0.46603
      69 -> 73        -0.14633
      70 -> 72        -0.44897

 Excited State   4:      Singlet-A      5.1587 eV  240.34 nm  f=0.0052  <S**2>=0.000
      70 -> 73         0.68890

 Excited State   5:      Singlet-A      5.2667 eV  235.41 nm  f=0.0372  <S**2>=0.000
      69 -> 72         0.66229
      69 -> 73         0.14436
      70 -> 74         0.13870

 Excited State   6:      Singlet-A      5.3028 eV  233.81 nm  f=0.0015  <S**2>=0.000
      67 -> 72        -0.15700
      69 -> 72        -0.10724
      69 -> 73        -0.20498
      70 -> 74         0.61437

 Excited State   7:      Singlet-A      5.3609 eV  231.28 nm  f=0.0427  <S**2>=0.000
      67 -> 72         0.19377
      68 -> 71        -0.15464
      68 -> 74         0.11439
      69 -> 71         0.14477
      69 -> 73         0.41923
      69 -> 74        -0.22962
      70 -> 73        -0.11270
      70 -> 74         0.30346

 Excited State   8:      Singlet-A      5.5329 eV  224.09 nm  f=0.0793  <S**2>=0.000
      66 -> 71        -0.12518
      67 -> 72        -0.29496
      68 -> 71         0.38332
      68 -> 73         0.11689
      68 -> 74        -0.16597
      69 -> 71         0.18855
      69 -> 72        -0.11733
      69 -> 73         0.35072

 Excited State   9:      Singlet-A      5.7079 eV  217.21 nm  f=0.1162  <S**2>=0.000
      65 -> 71         0.11315
      66 -> 71        -0.10041
      67 -> 71         0.11944
      68 -> 71        -0.13486
      68 -> 72         0.13462
      69 -> 73         0.14972
      69 -> 74         0.60508

 Excited State  10:      Singlet-A      5.8797 eV  210.87 nm  f=0.0071  <S**2>=0.000
      66 -> 71         0.10998
      67 -> 72         0.20842
      68 -> 71         0.48107
      68 -> 73        -0.36034
      68 -> 74         0.21584

 The electronic state is 1-A.
 Alpha  occ. eigenvalues --  -19.18605 -14.38385 -14.29991 -10.25637 -10.25111
 Alpha  occ. eigenvalues --  -10.24810 -10.22494 -10.20369 -10.20185 -10.20110
 Alpha  occ. eigenvalues --  -10.20095 -10.19806 -10.19703 -10.19471 -10.19409
 Alpha  occ. eigenvalues --  -10.19334 -10.19268 -10.19247 -10.19138 -10.18602
 Alpha  occ. eigenvalues --   -1.07211  -1.00597  -0.88916  -0.85613  -0.85287
 Alpha  occ. eigenvalues --   -0.78643  -0.76087  -0.75077  -0.74716  -0.73271
 Alpha  occ. eigenvalues --   -0.71515  -0.67594  -0.62212  -0.61122  -0.60169
 Alpha  occ. eigenvalues --   -0.59139  -0.58049  -0.56165  -0.54189  -0.53112
 Alpha  occ. eigenvalues --   -0.51619  -0.49190  -0.47697  -0.47561  -0.46251
 Alpha  occ. eigenvalues --   -0.45374  -0.44993  -0.43932  -0.43075  -0.42489
 Alpha  occ. eigenvalues --   -0.42362  -0.41982  -0.41075  -0.39633  -0.39022
 Alpha  occ. eigenvalues --   -0.38336  -0.37948  -0.36798  -0.35807  -0.34769
 Alpha  occ. eigenvalues --   -0.34362  -0.33259  -0.32640  -0.26426  -0.26018
 Alpha  occ. eigenvalues --   -0.25606  -0.25353  -0.24946  -0.22379  -0.21618
 Alpha virt. eigenvalues --   -0.01542  -0.00937  -0.00328   0.00283   0.03629
 Alpha virt. eigenvalues --    0.07789   0.08716   0.09419   0.10018   0.10806
 Alpha virt. eigenvalues --    0.12931   0.13088   0.14108   0.14299   0.14738

 Mulliken atomic charges:
              1
     1  C   -0.198781
     2  O   -0.512205
     3  C    0.370989
     4  C   -0.219436
     5  C   -0.273714
     6  C    0.147227
     7  C   -0.226348
     8  C   -0.243131
     9  C   -0.178603
    10  N   -0.369970
    11  C    0.312695
    12  N   -0.403124
    13  C    0.031662
    14  C    0.138596
    15  C    0.174416
    16  C   -0.172726
    17  C   -0.155321
    18  C   -0.118670
    19  C   -0.148592
    20  C   -0.215590
    21  H    0.152500
    22  H    0.143100
    23  H    0.136641
    24  H    0.092547
    25  H    0.061375
    26  H    0.108524
    27  H    0.094425
    28  H    0.153280
    29  H    0.245790
    30  H    0.227055
    31  H    0.282720
    32  H    0.132706
    33  H    0.120205
    34  H    0.120709
    35  H    0.111656
    36  H    0.077396
 Sum of Mulliken atomic charges =  -0.00000

 Dipole moment (field-independent basis, Debye):
    X=             -4.3236    Y=              7.0550    Z=             -0.2199  Tot=              8.2774
 Quadrupole moment (field-independent basis, Debye-Ang):
   XX=           -120.7177   YY=           -107.1596   ZZ=           -109.1845
   XY=             -1.2150   XZ=              4.2194   YZ=             -7.2915

 Summary of Natural Population Analysis:

                                       Natural Population
                Natural  -----------------------------------------------
    Atom  No    Charge         Core      Valence    Rydberg      Total
 -----------------------------------------------------------------------
      C    1   -0.31070      1.99943     4.29765    0.01361     6.31070
      O    2   -0.52528      1.99974     6.51389    0.01165     8.52528
      C    3    0.32661      1.99879     3.65147    0.02314     5.67339
      C    4   -0.36339      1.99903     4.34949    0.01488     6.36339
      C    5   -0.35678      1.99904     4.33885    0.01889     6.35678
      C    6   -0.14514      1.99898     4.12855    0.01761     6.14514
      C    7   -0.26270      1.99904     4.24815    0.01552     6.26270
      C    8   -0.39453      1.99904     4.37602    0.01947     6.39453
      C    9   -0.06702      1.99904     4.04515    0.02283     6.06702
      N   10   -0.36814      1.99936     5.35480    0.01398     7.36814
      C   11    0.37895      1.99936     3.59636    0.02533     5.62105
      N   12   -0.49747      1.99952     5.47442    0.02352     7.49747
      C   13    0.07638      1.99923     3.90372    0.02067     5.92362
      C   14    0.14724      1.99917     3.83840    0.01520     5.85276
      C   15   -0.04896      1.99899     4.03419    0.01577     6.04896
      C   16   -0.24728      1.99901     4.23301    0.01526     6.24728
      C   17   -0.26663      1.99910     4.25167    0.01586     6.26663
      C   18   -0.21880      1.99910     4.20607    0.01364     6.21880
      C   19   -0.26375      1.99910     4.24864    0.01600     6.26375
      C   20   -0.29432      1.99901     4.28035    0.01495     6.29432
      H   21    0.21758      0.00000     0.78185    0.00057     0.78242
      H   22    0.19795      0.00000     0.79947    0.00258     0.80205
      H   23    0.19426      0.00000     0.80305    0.00268     0.80574
      H   24    0.22006      0.00000     0.77910    0.00084     0.77994
      H   25    0.20095      0.00000     0.79829    0.00076     0.79905
      H   26    0.22772      0.00000     0.77106    0.00122     0.77228
      H   27    0.22774      0.00000     0.77116    0.00110     0.77226
      H   28    0.25706      0.00000     0.73733    0.00561     0.74294
      H   29    0.26196      0.00000     0.73804    0.00000     0.73804
      H   30    0.26093      0.00000     0.73907    0.00000     0.73907
      H   31    0.29674      0.00000     0.70311    0.00015     0.70326
      H   32    0.23983      0.00000     0.75913    0.00104     0.76017
      H   33    0.23289      0.00000     0.76627    0.00084     0.76711
      H   34    0.23178      0.00000     0.76737    0.00085     0.76822
      H   35    0.22820      0.00000     0.77094    0.00086     0.77180
      H   36    0.20561      0.00000     0.79369    0.00070     0.79439
 =======================================================================
   * Total *   -0.00045     39.98308    99.64979    0.36758   140.00045

 Normal termination of Gaussian 09 at Thu Sep 30 23:13:46 2021.
