 Gaussian 09, Revision A.02,

 -----------------------------------
 #p opt b3lyp/6-31G* scf=(xqc,tight)
 -----------------------------------

 -----------------------------------------------
 COc1ccc2c(c1)ccc(c2)[C@@H](C(=O)OC(C)C)C_conf_0
 -----------------------------------------------
 Symbolic Z-matrix:
 Charge =  0 Multiplicity = 1

 SCF Done:  E(RB3LYP) =  -885.545381092     A.U. after   15 cycles
 SCF Done:  E(RB3LYP) =  -885.552090245     A.U. after   12 cycles
 SCF Done:  E(RB3LYP) =  -885.551966136     A.U. after   12 cycles
 SCF Done:  E(RB3LYP) =  -885.552860527     A.U. after   12 cycles
 SCF Done:  E(RB3LYP) =  -885.553736113     A.U. after   12 cycles
 SCF Done:  E(RB3LYP) =  -885.554284699     A.U. after   13 cycles
 SCF Done:  E(RB3LYP) =  -885.554639162     A.U. after   13 cycles
 SCF Done:  E(RB3LYP) =  -885.554810275     A.U. after   11 cycles
 SCF Done:  E(RB3LYP) =  -885.554844417     A.U. after   13 cycles
 SCF Done:  E(RB3LYP) =  -885.554867609     A.U. after   11 cycles
 SCF Done:  E(RB3LYP) =  -885.554871390     A.U. after   10 cycles
 SCF Done:  E(RB3LYP) =  -885.554872065     A.U. after    8 cycles
 SCF Done:  E(RB3LYP) =  -885.554872288     A.U. after    8 cycles
 SCF Done:  E(RB3LYP) =  -885.554872373     A.U. after    8 cycles
 SCF Done:  E(RB3LYP) =  -885.554872416     A.U. after    7 cycles
 Optimization completed.
    -- Stationary point found.
 Normal termination of Gaussian 09 at Thu Sep 30 22:14:59 2021.

 ----------------------------------------------------------------------
 #p freq b3lyp/6-31G* volume NMR pop=NPA density=current Geom=AllCheck
 Guess=Read
 ----------------------------------------------------------------------

 COc1ccc2c(c1)ccc(c2)[C@@H](C(=O)OC(C)C)C_conf_0
 -----------------------------------------------
 Redundant internal coordinates taken from checkpoint file:
 C17H20O3_bb26_conf_0.chk
 Charge =  0 Multiplicity = 1

 SCF Done:  E(RB3LYP) =  -885.554872416     A.U. after    1 cycles

  1  C    Isotropic =   137.3665   Anisotropy =    65.2375

  2  O    Isotropic =   240.4366   Anisotropy =    70.5403

  3  C    Isotropic =    41.1391   Anisotropy =   122.3295

  4  C    Isotropic =    84.7353   Anisotropy =   144.8626

  5  C    Isotropic =    66.4417   Anisotropy =   143.8951

  6  C    Isotropic =    68.0338   Anisotropy =   188.6188

  7  C    Isotropic =    62.7886   Anisotropy =   194.0899

  8  C    Isotropic =    82.2482   Anisotropy =   113.1952

  9  C    Isotropic =    68.1762   Anisotropy =   141.5967

 10  C    Isotropic =    70.9793   Anisotropy =   164.9814

 11  C    Isotropic =    59.7737   Anisotropy =   166.6600

 12  C    Isotropic =    67.8716   Anisotropy =   121.8648

 13  C    Isotropic =   141.2800   Anisotropy =    12.2396

 14  C    Isotropic =    23.5656   Anisotropy =    86.0463

 15  O    Isotropic =   -46.6992   Anisotropy =   570.3182

 16  O    Isotropic =   106.9665   Anisotropy =   117.3713

 17  C    Isotropic =   122.8295   Anisotropy =    59.5051

 18  C    Isotropic =   168.3428   Anisotropy =    31.4713

 19  C    Isotropic =   168.3229   Anisotropy =    29.8273

 20  C    Isotropic =   167.7629   Anisotropy =    26.6299

 21  H    Isotropic =    28.2272   Anisotropy =     8.3919

 22  H    Isotropic =    28.5308   Anisotropy =     8.3646

 23  H    Isotropic =    28.5165   Anisotropy =     8.3121

 24  H    Isotropic =    25.3793   Anisotropy =     8.0397

 25  H    Isotropic =    24.6513   Anisotropy =     7.8926

 26  H    Isotropic =    25.2221   Anisotropy =     8.1731

 27  H    Isotropic =    24.7215   Anisotropy =     7.6978

 28  H    Isotropic =    24.4794   Anisotropy =     9.5942

 29  H    Isotropic =    24.9110   Anisotropy =     9.2502

 30  H    Isotropic =    28.7058   Anisotropy =     3.6678

 31  H    Isotropic =    27.1692   Anisotropy =     2.5084

 32  H    Isotropic =    31.1982   Anisotropy =     6.6610

 33  H    Isotropic =    30.4054   Anisotropy =     6.5555

 34  H    Isotropic =    31.2713   Anisotropy =     9.4749

 35  H    Isotropic =    30.9987   Anisotropy =     6.3692

 36  H    Isotropic =    31.3406   Anisotropy =     9.2458

 37  H    Isotropic =    31.1423   Anisotropy =     7.2258

 38  H    Isotropic =    30.1544   Anisotropy =     6.4284

 39  H    Isotropic =    30.7952   Anisotropy =     9.7063

 40  H    Isotropic =    31.1986   Anisotropy =     7.3776

  Exact polarizability: 289.588  33.865 137.685   0.065  17.448 164.165
 Approx polarizability: 391.392  63.026 199.303   1.973  48.985 297.176

                     1                      2                      3
                     A                      A                      A
 Frequencies --    18.9749                27.4515                44.6146
 Red. masses --     4.2773                 3.9155                 3.3222
 Frc consts  --     0.0009                 0.0017                 0.0039
 IR Inten    --     0.4583                 0.4357                 0.0999

                     4                      5                      6
                     A                      A                      A
 Frequencies --    54.7986                80.4907                91.9424
 Red. masses --     3.4125                 4.4450                 4.8786
 Frc consts  --     0.0060                 0.0170                 0.0243
 IR Inten    --     1.5642                 3.5308                 0.6104

                     7                      8                      9
                     A                      A                      A
 Frequencies --   123.3649               137.0255               160.4489
 Red. masses --     4.5423                 3.9783                 3.2824
 Frc consts  --     0.0407                 0.0440                 0.0498
 IR Inten    --     0.7080                 1.8593                 0.8690

                    10                     11                     12
                     A                      A                      A
 Frequencies --   185.2797               190.6557               220.8131
 Red. masses --     2.9082                 4.0866                 1.1653
 Frc consts  --     0.0588                 0.0875                 0.0335
 IR Inten    --     1.7514                 0.7600                 0.1911

                    13                     14                     15
                     A                      A                      A
 Frequencies --   227.7809               235.4755               245.5886
 Red. masses --     1.0604                 1.6630                 2.1767
 Frc consts  --     0.0324                 0.0543                 0.0773
 IR Inten    --     0.2606                 1.2474                 4.1060

                    16                     17                     18
                     A                      A                      A
 Frequencies --   266.1723               269.3655               302.4644
 Red. masses --     1.8298                 1.2490                 3.6387
 Frc consts  --     0.0764                 0.0534                 0.1961
 IR Inten    --     1.5254                 1.4139                 2.8964

                    19                     20                     21
                     A                      A                      A
 Frequencies --   320.1380               344.5734               390.8296
 Red. masses --     4.3348                 3.8458                 4.1008
 Frc consts  --     0.2618                 0.2690                 0.3691
 IR Inten    --     5.0029                 0.8504                 0.6353

                    22                     23                     24
                     A                      A                      A
 Frequencies --   415.8315               419.2256               435.3668
 Red. masses --     3.4140                 3.2869                 4.4766
 Frc consts  --     0.3478                 0.3404                 0.4999
 IR Inten    --     0.2236                 5.8003                 4.3604

                    25                     26                     27
                     A                      A                      A
 Frequencies --   460.9095               478.1185               487.9296
 Red. masses --     3.8521                 2.9760                 2.6614
 Frc consts  --     0.4821                 0.4008                 0.3733
 IR Inten    --     1.1128                 1.5011                 6.0287

                    28                     29                     30
                     A                      A                      A
 Frequencies --   531.4601               551.8484               588.8232
 Red. masses --     6.0927                 4.3711                 3.5201
 Frc consts  --     1.0139                 0.7843                 0.7191
 IR Inten    --     3.1194                13.1189                 4.8924

                    31                     32                     33
                     A                      A                      A
 Frequencies --   610.8972               675.2894               690.4076
 Red. masses --     3.8394                 4.2031                 4.7640
 Frc consts  --     0.8442                 1.1293                 1.3379
 IR Inten    --     2.6942                 2.4451                 0.1817

                    34                     35                     36
                     A                      A                      A
 Frequencies --   705.0062               757.8391               767.3727
 Red. masses --     3.9942                 5.6593                 3.2112
 Frc consts  --     1.1697                 1.9150                 1.1141
 IR Inten    --     4.8982                 7.8329                 1.8954

                    37                     38                     39
                     A                      A                      A
 Frequencies --   805.7741               817.4921               821.4035
 Red. masses --     3.4233                 1.5168                 3.8327
 Frc consts  --     1.3096                 0.5972                 1.5236
 IR Inten    --    11.9786                25.6147                 1.1855

                    40                     41                     42
                     A                      A                      A
 Frequencies --   837.6908               841.2554               889.6742
 Red. masses --     1.6255                 2.9413                 1.5954
 Frc consts  --     0.6721                 1.2264                 0.7440
 IR Inten    --     2.1261                 5.2919                29.9357

                    43                     44                     45
                     A                      A                      A
 Frequencies --   891.9693               905.1151               930.0946
 Red. masses --     3.1776                 1.4990                 3.8432
 Frc consts  --     1.4895                 0.7235                 1.9588
 IR Inten    --    10.4451                12.5646                17.3374

                    46                     47                     48
                     A                      A                      A
 Frequencies --   949.2051               949.7758               953.2668
 Red. masses --     1.2508                 1.3152                 2.9977
 Frc consts  --     0.6640                 0.6990                 1.6049
 IR Inten    --     1.1319                 1.3207                 7.4623

                    49                     50                     51
                     A                      A                      A
 Frequencies --   964.0054               978.1202               980.9172
 Red. masses --     1.3917                 2.1580                 1.6943
 Frc consts  --     0.7620                 1.2164                 0.9605
 IR Inten    --     0.5638                 0.8445                 0.9590

                    52                     53                     54
                     A                      A                      A
 Frequencies --  1016.6475              1080.8727              1101.2764
 Red. masses --     1.9161                 3.5279                 1.6010
 Frc consts  --     1.1669                 2.4284                 1.1440
 IR Inten    --     2.1501                49.8885                24.9564

                    55                     56                     57
                     A                      A                      A
 Frequencies --  1112.9163              1150.2565              1171.0793
 Red. masses --     2.7460                 1.9641                 1.6483
 Frc consts  --     2.0039                 1.5311                 1.3319
 IR Inten    --    24.0554               197.8240                22.9978

                    58                     59                     60
                     A                      A                      A
 Frequencies --  1174.8234              1183.6929              1191.4944
 Red. masses --     2.0335                 1.2680                 1.4551
 Frc consts  --     1.6537                 1.0468                 1.2171
 IR Inten    --    11.0298                 0.6790                11.6307

                    61                     62                     63
                     A                      A                      A
 Frequencies --  1196.3217              1205.2398              1217.5175
 Red. masses --     1.5909                 1.4082                 1.9019
 Frc consts  --     1.3415                 1.2052                 1.6610
 IR Inten    --    65.5403                66.7829                55.2369

                    64                     65                     66
                     A                      A                      A
 Frequencies --  1218.8554              1223.8618              1277.1503
 Red. masses --     1.7292                 2.7024                 2.2742
 Frc consts  --     1.5135                 2.3849                 2.1856
 IR Inten    --     7.4673               308.4960                38.8677

                    67                     68                     69
                     A                      A                      A
 Frequencies --  1297.6949              1316.0069              1319.5628
 Red. masses --     1.6947                 2.6884                 1.8023
 Frc consts  --     1.6814                 2.7432                 1.8490
 IR Inten    --    11.1987               303.2550                55.4082

                    70                     71                     72
                     A                      A                      A
 Frequencies --  1367.1804              1386.6077              1392.8432
 Red. masses --     1.4072                 1.5487                 1.8830
 Frc consts  --     1.5497                 1.7544                 2.1523
 IR Inten    --    62.9396                23.1602                23.2982

                    73                     74                     75
                     A                      A                      A
 Frequencies --  1405.7518              1412.7721              1429.0451
 Red. masses --     1.4756                 3.1225                 4.7586
 Frc consts  --     1.7181                 3.6719                 5.7256
 IR Inten    --    19.8060                 8.9209                 9.6127

                    76                     77                     78
                     A                      A                      A
 Frequencies --  1430.8344              1435.4290              1446.2293
 Red. masses --     1.3484                 1.2333                 1.2684
 Frc consts  --     1.6265                 1.4972                 1.5631
 IR Inten    --    18.8858                 7.6748                 5.4838

                    79                     80                     81
                     A                      A                      A
 Frequencies --  1465.6748              1500.1110              1513.0967
 Red. masses --     3.2631                 1.2424                 1.0543
 Frc consts  --     4.1301                 1.6472                 1.4221
 IR Inten    --     3.6873                20.8770                 1.6422

                    82                     83                     84
                     A                      A                      A
 Frequencies --  1518.1721              1520.6590              1522.4353
 Red. masses --     1.0446                 1.0786                 1.0490
 Frc consts  --     1.4185                 1.4695                 1.4325
 IR Inten    --     1.2705                 7.5352                 5.1322

                    85                     86                     87
                     A                      A                      A
 Frequencies --  1526.4321              1527.5955              1532.6397
 Red. masses --     1.0498                 1.0541                 1.3404
 Frc consts  --     1.4411                 1.4492                 1.8551
 IR Inten    --     5.5118                 6.5185                57.3231

                    88                     89                     90
                     A                      A                      A
 Frequencies --  1538.5587              1541.2229              1559.7717
 Red. masses --     1.5279                 1.0504                 3.3171
 Frc consts  --     2.1310                 1.4701                 4.7548
 IR Inten    --     3.5123                 7.8615                67.0358

                    91                     92                     93
                     A                      A                      A
 Frequencies --  1619.9665              1665.8777              1690.9805
 Red. masses --     6.8870                 5.6101                 6.3274
 Frc consts  --    10.6485                 9.1730                10.6599
 IR Inten    --     3.9544                99.3991                59.4969

                    94                     95                     96
                     A                      A                      A
 Frequencies --  1801.7934              3024.0390              3054.8912
 Red. masses --    11.2465                 1.0349                 1.0356
 Frc consts  --    21.5119                 5.5759                 5.6940
 IR Inten    --   178.5146                76.3307                12.6035

                    97                     98                     99
                     A                      A                      A
 Frequencies --  3059.3767              3060.7632              3082.4801
 Red. masses --     1.0362                 1.0364                 1.1067
 Frc consts  --     5.7142                 5.7207                 6.1956
 IR Inten    --    23.0642                29.7881                45.0101

                   100                    101                    102
                     A                      A                      A
 Frequencies --  3082.6719              3097.0424              3121.1177
 Red. masses --     1.0845                 1.0873                 1.1028
 Frc consts  --     6.0721                 6.1443                 6.3295
 IR Inten    --     9.0436                 0.6810                 1.8480

                   103                    104                    105
                     A                      A                      A
 Frequencies --  3128.0100              3131.8619              3136.7267
 Red. masses --     1.1021                 1.1008                 1.1026
 Frc consts  --     6.3535                 6.3617                 6.3919
 IR Inten    --    34.9901                50.1270                24.6746

                   106                    107                    108
                     A                      A                      A
 Frequencies --  3146.6191              3150.3354              3155.2470
 Red. masses --     1.1021                 1.1023                 1.0994
 Frc consts  --     6.4293                 6.4455                 6.4486
 IR Inten    --    16.5410                13.8325                30.8859

                   109                    110                    111
                     A                      A                      A
 Frequencies --  3171.3799              3182.5857              3183.1341
 Red. masses --     1.0898                 1.0885                 1.0885
 Frc consts  --     6.4580                 6.4959                 6.4979
 IR Inten    --    13.1517                20.3309                 2.9125

                   112                    113                    114
                     A                      A                      A
 Frequencies --  3204.1681              3208.3425              3226.9535
 Red. masses --     1.0905                 1.0935                 1.0914
 Frc consts  --     6.5966                 6.6318                 6.6959
 IR Inten    --     7.0070                 8.5469                14.8322

 - Thermochemistry -
 -------------------
 Temperature   298.150 Kelvin.  Pressure   1.00000 Atm.
 Atom     1 has atomic number  6 and mass  12.00000

 Molecular mass:   272.14124 amu.
 Principal axes and moments of inertia in atomic units:
                           1         2         3
     Eigenvalues --  2351.01333********************
           X            0.99999  -0.00321   0.00162
           Y            0.00323   0.99994  -0.01012
           Z           -0.00159   0.01012   0.99995
 This molecule is an asymmetric top.
 Rotational symmetry number  1.
 Warning -- assumption of classical behavior for rotation
           may cause significant error
 Rotational temperatures (Kelvin)      0.03684     0.00652     0.00616
 Rotational constants (GHZ):           0.76764     0.13591     0.12830
 Zero-point vibrational energy     884309.7 (Joules/Mol)
                                  211.35508 (Kcal/Mol)
 Warning -- explicit consideration of  31 degrees of freedom as
           vibrations may cause significant error
 Vibrational temperatures:     27.30    39.50    64.19    78.84   115.81
          (Kelvin)            132.28   177.49   197.15   230.85   266.58
                              274.31   317.70   327.73   338.80   353.35
                              382.96   387.56   435.18   460.61   495.76
                              562.32   598.29   603.17   626.39   663.15
                              687.90   702.02   764.65   793.99   847.18
                              878.94   971.59   993.34  1014.35  1090.36
                             1104.08  1159.33  1176.19  1181.81  1205.25
                             1210.38  1280.04  1283.34  1302.26  1338.20
                             1365.69  1366.51  1371.54  1386.99  1407.30
                             1411.32  1462.73  1555.13  1584.49  1601.24
                             1654.96  1684.92  1690.31  1703.07  1714.29
                             1721.24  1734.07  1751.73  1753.66  1760.86
                             1837.53  1867.09  1893.44  1898.55  1967.07
                             1995.02  2003.99  2022.56  2032.66  2056.07
                             2058.65  2065.26  2080.80  2108.78  2158.32
                             2177.01  2184.31  2187.89  2190.44  2196.19
                             2197.87  2205.12  2213.64  2217.47  2244.16
                             2330.77  2396.82  2432.94  2592.38  4350.91
                             4395.30  4401.76  4403.75  4435.00  4435.27
                             4455.95  4490.59  4500.50  4506.05  4513.04
                             4527.28  4532.62  4539.69  4562.90  4579.03
                             4579.81  4610.08  4616.08  4642.86

 Zero-point correction=                           0.336816 (Hartree/Particle)
 Thermal correction to Energy=                    0.356351
 Thermal correction to Enthalpy=                  0.357295
 Thermal correction to Gibbs Free Energy=         0.287405
 Sum of electronic and zero-point Energies=           -885.218057
 Sum of electronic and thermal Energies=              -885.198522
 Sum of electronic and thermal Enthalpies=            -885.197577
 Sum of electronic and thermal Free Energies=         -885.267467

                     E (Thermal)             CV                S
                      KCal/Mol        Cal/Mol-Kelvin    Cal/Mol-Kelvin
 Total                  223.613             74.140            147.095
 Electronic               0.000              0.000              0.000
 Translational            0.889              2.981             42.702
 Rotational               0.889              2.981             34.439
 Vibrational            221.836             68.178             69.954
 Vibration     1          0.593              1.986              6.739
 Vibration     2          0.593              1.984              6.006
 Vibration     3          0.595              1.980              5.043
 Vibration     4          0.596              1.976              4.636
 Vibration     5          0.600              1.962              3.879
 Vibration     6          0.602              1.955              3.618
 Vibration     7          0.610              1.930              3.047
 Vibration     8          0.614              1.916              2.845
 Vibration     9          0.622              1.891              2.544
 Vibration    10          0.631              1.860              2.275
 Vibration    11          0.634              1.853              2.221
 Vibration    12          0.648              1.809              1.952
 Vibration    13          0.651              1.799              1.896
 Vibration    14          0.655              1.787              1.837
 Vibration    15          0.660              1.770              1.762
 Vibration    16          0.672              1.735              1.621
 Vibration    17          0.674              1.730              1.600
 Vibration    18          0.694              1.669              1.403
 Vibration    19          0.706              1.635              1.309
 Vibration    20          0.723              1.586              1.191
 Vibration    21          0.759              1.490              0.997
 Vibration    22          0.779              1.436              0.906
 Vibration    23          0.782              1.428              0.895
 Vibration    24          0.796              1.393              0.841
 Vibration    25          0.819              1.337              0.763
 Vibration    26          0.835              1.299              0.715
 Vibration    27          0.844              1.277              0.689
 Vibration    28          0.886              1.180              0.584
 Vibration    29          0.907              1.136              0.540
 Vibration    30          0.946              1.056              0.469
 Vibration    31          0.970              1.009              0.431

 Optimization completed.
    -- Stationary point found.
 Normal termination of Gaussian 09 at Fri Oct  1 00:27:10 2021.
 Gaussian 09:  AM64L-G09RevA.02 11-Jun-2009

 ----------------------------------------------------------------------
 #p TD(NStates=10, Root=1) b3lyp/6-31G* volume pop=NPA density=current
 Geom=AllCheck Guess=Read
 ----------------------------------------------------------------------

 COc1ccc2c(c1)ccc(c2)[C@@H](C(=O)OC(C)C)C_conf_0
 -----------------------------------------------
 Redundant internal coordinates taken from checkpoint file:
 C17H20O3_bb26_conf_0.chk
 Charge =  0 Multiplicity = 1

                         Standard orientation:
 ---------------------------------------------------------------------
 Center     Atomic      Atomic             Coordinates (Angstroms)
 Number     Number       Type             X           Y           Z
 ---------------------------------------------------------------------
      1          6           0        6.544102    1.052235    0.024428
      2          8           0        5.527618    0.498665   -0.794751
      3          6           0        4.283293    0.309023   -0.261227
      4          6           0        3.938950    0.644410    1.074518
      5          6           0        2.658039    0.417924    1.531341
      6          6           0        1.662234   -0.147610    0.697446
      7          6           0        2.015970   -0.483204   -0.650479
      8          6           0        3.333312   -0.243382   -1.102194
      9          6           0        1.011927   -1.049022   -1.486461
     10          6           0       -0.259193   -1.274516   -1.016853
     11          6           0       -0.616905   -0.948240    0.323764
     12          6           0        0.336822   -0.390691    1.148049
     13          6           0       -2.022742   -1.239918    0.841404
     14          6           0       -3.052074   -0.563860   -0.062687
     15          8           0       -3.524402   -1.064423   -1.064052
     16          8           0       -3.344949    0.676962    0.376272
     17          6           0       -4.258272    1.477685   -0.433606
     18          6           0       -5.697137    1.137602   -0.058483
     19          6           0       -3.885429    2.929816   -0.170296
     20          6           0       -2.306621   -2.749300    0.937506
     21          1           0        7.436414    1.102850   -0.602502
     22          1           0        6.753358    0.419645    0.897437
     23          1           0        6.287169    2.063923    0.365960
     24          1           0        4.675283    1.078562    1.741130
     25          1           0        2.400433    0.677314    2.555666
     26          1           0        3.616979   -0.492738   -2.120575
     27          1           0        1.267030   -1.301006   -2.513113
     28          1           0       -1.014306   -1.694851   -1.674928
     29          1           0        0.082726   -0.128475    2.173495
     30          1           0       -2.114961   -0.786260    1.833423
     31          1           0       -4.078937    1.215062   -1.480110
     32          1           0       -5.874493    1.332746    1.005213
     33          1           0       -5.910153    0.085681   -0.267327
     34          1           0       -6.393601    1.750621   -0.641785
     35          1           0       -4.031901    3.184080    0.885397
     36          1           0       -4.513093    3.593944   -0.774546
     37          1           0       -2.837885    3.114554   -0.427618
     38          1           0       -2.276900   -3.214101   -0.051378
     39          1           0       -3.298593   -2.933548    1.365077
     40          1           0       -1.558355   -3.231340    1.574301
 ---------------------------------------------------------------------

 SCF Done:  E(RB3LYP) =  -885.554872416     A.U. after    1 cycles

 Excitation energies and oscillator strengths:

 Excited State   1:      Singlet-A      4.0171 eV  308.64 nm  f=0.0661  <S**2>=0.000
      72 -> 74         0.12580
      72 -> 75         0.14607
      73 -> 74         0.65989
      73 -> 75        -0.13720
 This state for optimization and/or second-order correction.
 Total Energy, E(TD-HF/TD-KS) =  -885.407247042
 Copying the excited state density for this state as the 1-particle RhoCI density.

 Excited State   2:      Singlet-A      4.4313 eV  279.79 nm  f=0.0121  <S**2>=0.000
      72 -> 74         0.48492
      73 -> 74        -0.19711
      73 -> 75        -0.46631

 Excited State   3:      Singlet-A      5.1927 eV  238.77 nm  f=0.3313  <S**2>=0.000
      70 -> 74        -0.11083
      71 -> 76        -0.14785
      72 -> 74         0.29468
      73 -> 75         0.35802
      73 -> 76         0.48451

 Excited State   4:      Singlet-A      5.4153 eV  228.95 nm  f=0.0038  <S**2>=0.000
      71 -> 74         0.61069
      71 -> 75         0.12284
      71 -> 76         0.18151
      73 -> 76         0.13348
      73 -> 77        -0.17047

 Excited State   5:      Singlet-A      5.6382 eV  219.90 nm  f=0.5734  <S**2>=0.000
      70 -> 74         0.22191
      72 -> 74        -0.27867
      72 -> 75        -0.22090
      72 -> 76        -0.10677
      73 -> 75        -0.23742
      73 -> 76         0.41979
      73 -> 77         0.25639

 Excited State   6:      Singlet-A      5.6719 eV  218.60 nm  f=0.2280  <S**2>=0.000
      70 -> 74         0.43098
      71 -> 74         0.10376
      71 -> 76         0.10273
      72 -> 74         0.13768
      72 -> 75         0.26134
      73 -> 75         0.19308
      73 -> 77         0.36697

 Excited State   7:      Singlet-A      5.8207 eV  213.00 nm  f=0.2730  <S**2>=0.000
      68 -> 74        -0.16227
      70 -> 74         0.13739
      70 -> 75        -0.11833
      71 -> 75         0.14326
      72 -> 74        -0.17874
      72 -> 75         0.41513
      72 -> 76         0.14250
      72 -> 77        -0.10508
      73 -> 76         0.19953
      73 -> 77        -0.32664

 Excited State   8:      Singlet-A      5.9211 eV  209.39 nm  f=0.0826  <S**2>=0.000
      70 -> 76         0.18316
      71 -> 74        -0.29243
      71 -> 75         0.38542
      71 -> 76         0.35918
      71 -> 77         0.12188
      72 -> 74         0.10733
      72 -> 75        -0.13623
      73 -> 75         0.11069

 Excited State   9:      Singlet-A      6.1951 eV  200.13 nm  f=0.1979  <S**2>=0.000
      70 -> 74         0.27122
      70 -> 75        -0.15569
      72 -> 74         0.10552
      72 -> 75        -0.35573
      72 -> 76         0.37370
      72 -> 77        -0.21519
      73 -> 77        -0.17559

 Excited State  10:      Singlet-A      6.2277 eV  199.09 nm  f=0.1421  <S**2>=0.000
      68 -> 74         0.14614
      70 -> 74        -0.29539
      70 -> 75         0.10665
      71 -> 75         0.14149
      72 -> 76         0.50770
      73 -> 75        -0.10903
      73 -> 77         0.22236

 The electronic state is 1-A.
 Alpha  occ. eigenvalues --  -19.18373 -19.17681 -19.13034 -10.30827 -10.24686
 Alpha  occ. eigenvalues --  -10.24485 -10.24216 -10.20345 -10.19492 -10.19453
 Alpha  occ. eigenvalues --  -10.19286 -10.19151 -10.19114 -10.18635 -10.18451
 Alpha  occ. eigenvalues --  -10.18336 -10.18088 -10.17977 -10.17852 -10.17671
 Alpha  occ. eigenvalues --   -1.09276  -1.06243  -1.00716  -0.86930  -0.82907
 Alpha  occ. eigenvalues --   -0.79807  -0.77882  -0.76882  -0.73116  -0.72682
 Alpha  occ. eigenvalues --   -0.69409  -0.68666  -0.66067  -0.62630  -0.61055
 Alpha  occ. eigenvalues --   -0.59472  -0.57957  -0.54815  -0.52980  -0.51563
 Alpha  occ. eigenvalues --   -0.50510  -0.48407  -0.46837  -0.46820  -0.46249
 Alpha  occ. eigenvalues --   -0.45942  -0.45017  -0.44188  -0.43708  -0.42112
 Alpha  occ. eigenvalues --   -0.41387  -0.41129  -0.40204  -0.39704  -0.39194
 Alpha  occ. eigenvalues --   -0.39062  -0.38597  -0.38453  -0.37842  -0.35904
 Alpha  occ. eigenvalues --   -0.35598  -0.34882  -0.34463  -0.34046  -0.33444
 Alpha  occ. eigenvalues --   -0.32647  -0.31993  -0.29779  -0.29304  -0.27463
 Alpha  occ. eigenvalues --   -0.26157  -0.22921  -0.19880
 Alpha virt. eigenvalues --   -0.03525  -0.00247   0.02101   0.03949   0.09337
 Alpha virt. eigenvalues --    0.09563   0.10509   0.10859   0.11215   0.11972
 Alpha virt. eigenvalues --    0.12296   0.13458   0.14051   0.14512   0.14961

 Mulliken atomic charges:
              1
     1  C   -0.225027
     2  O   -0.466852
     3  C    0.388669
     4  C   -0.217851
     5  C   -0.217515
     6  C    0.162370
     7  C    0.148825
     8  C   -0.258067
     9  C   -0.213559
    10  C   -0.204462
    11  C    0.180379
    12  C   -0.294227
    13  C   -0.249655
    14  C    0.638272
    15  O   -0.490266
    16  O   -0.476852
    17  C    0.128389
    18  C   -0.458213
    19  C   -0.451946
    20  C   -0.436152
    21  H    0.179112
    22  H    0.171389
    23  H    0.171240
    24  H    0.120164
    25  H    0.126801
    26  H    0.144000
    27  H    0.120818
    28  H    0.143286
    29  H    0.118374
    30  H    0.152838
    31  H    0.162535
    32  H    0.149121
    33  H    0.173243
    34  H    0.146468
    35  H    0.153146
    36  H    0.147262
    37  H    0.162311
    38  H    0.174881
    39  H    0.146416
    40  H    0.150333
 Sum of Mulliken atomic charges =  -0.00000

 Dipole moment (field-independent basis, Debye):
    X=              3.1311    Y=              2.3013    Z=              1.6967  Tot=              4.2401
 Quadrupole moment (field-independent basis, Debye-Ang):
   XX=            -87.9609   YY=           -116.9910   ZZ=           -115.5212
   XY=              0.4336   XZ=             -0.8172   YZ=             -1.4453

 Summary of Natural Population Analysis:

                                       Natural Population
                Natural  -----------------------------------------------
    Atom  No    Charge         Core      Valence    Rydberg      Total
 -----------------------------------------------------------------------
      C    1   -0.32288      1.99942     4.30953    0.01393     6.32288
      O    2   -0.45324      1.99975     6.44190    0.01158     8.45324
      C    3    0.36474      1.99879     3.61403    0.02244     5.63526
      C    4   -0.37976      1.99905     4.36604    0.01468     6.37976
      C    5   -0.20758      1.99907     4.19233    0.01617     6.20758
      C    6   -0.03987      1.99903     4.02566    0.01518     6.03987
      C    7   -0.05243      1.99903     4.03829    0.01510     6.05243
      C    8   -0.23642      1.99900     4.22141    0.01601     6.23642
      C    9   -0.22944      1.99906     4.21443    0.01594     6.22944
      C   10   -0.28409      1.99905     4.26967    0.01537     6.28409
      C   11    0.02999      1.99901     3.95335    0.01765     5.97001
      C   12   -0.24750      1.99897     4.23363    0.01490     6.24750
      C   13   -0.35440      1.99906     4.34023    0.01510     6.35440
      C   14    0.83681      1.99939     3.11391    0.04990     5.16319
      O   15   -0.61436      1.99977     6.59507    0.01952     8.61436
      O   16   -0.56093      1.99973     6.54926    0.01194     8.56093
      C   17    0.08109      1.99913     3.90131    0.01847     5.91891
      C   18   -0.70038      1.99940     4.69262    0.00836     6.70038
      C   19   -0.69300      1.99940     4.68484    0.00877     6.69300
      C   20   -0.66224      1.99943     4.65366    0.00916     6.66224
      H   21    0.23275      0.00000     0.76673    0.00052     0.76725
      H   22    0.21659      0.00000     0.78150    0.00191     0.78341
      H   23    0.21645      0.00000     0.78166    0.00189     0.78355
      H   24    0.23274      0.00000     0.76642    0.00085     0.76726
      H   25    0.23226      0.00000     0.76661    0.00113     0.76774
      H   26    0.24395      0.00000     0.75447    0.00159     0.75605
      H   27    0.22894      0.00000     0.76995    0.00111     0.77106
      H   28    0.24529      0.00000     0.75319    0.00152     0.75471
      H   29    0.22667      0.00000     0.77202    0.00130     0.77333
      H   30    0.26295      0.00000     0.73502    0.00203     0.73705
      H   31    0.24280      0.00000     0.75435    0.00285     0.75720
      H   32    0.23015      0.00000     0.76838    0.00147     0.76985
      H   33    0.24872      0.00000     0.75008    0.00120     0.75128
      H   34    0.23572      0.00000     0.76347    0.00081     0.76428
      H   35    0.23301      0.00000     0.76560    0.00139     0.76699
      H   36    0.23598      0.00000     0.76329    0.00073     0.76402
      H   37    0.24369      0.00000     0.75529    0.00102     0.75631
      H   38    0.24625      0.00000     0.75239    0.00136     0.75375
      H   39    0.23389      0.00000     0.76494    0.00117     0.76611
      H   40    0.23709      0.00000     0.76198    0.00093     0.76291
 =======================================================================
   * Total *    0.00000     39.98452   105.65855    0.35693   146.00000

 Normal termination of Gaussian 09 at Fri Oct  1 05:35:28 2021.
