 Gaussian 09, Revision A.02,

 -----------------------------------
 #p opt b3lyp/6-31G* scf=(xqc,tight)
 -----------------------------------

 -----------------------------------
 COc1ccc2c3c1ccc1c3c(cc2)ccc1_conf_0
 -----------------------------------
 Symbolic Z-matrix:
 Charge =  0 Multiplicity = 1

 SCF Done:  E(RB3LYP) =  -730.279229028     A.U. after   16 cycles
 SCF Done:  E(RB3LYP) =  -730.287139950     A.U. after   13 cycles
 SCF Done:  E(RB3LYP) =  -730.287701534     A.U. after   11 cycles
 SCF Done:  E(RB3LYP) =  -730.287830232     A.U. after   11 cycles
 SCF Done:  E(RB3LYP) =  -730.288289691     A.U. after   12 cycles
 SCF Done:  E(RB3LYP) =  -730.287565291     A.U. after   12 cycles
 SCF Done:  E(RB3LYP) =  -730.279729117     A.U. after   13 cycles
 SCF Done:  E(RB3LYP) =  -730.288417515     A.U. after   13 cycles
 SCF Done:  E(RB3LYP) =  -730.285031032     A.U. after   12 cycles
 SCF Done:  E(RB3LYP) =  -730.288483046     A.U. after   12 cycles
 SCF Done:  E(RB3LYP) =  -730.292706941     A.U. after   13 cycles
 SCF Done:  E(RB3LYP) =  -730.292958059     A.U. after   16 cycles
 SCF Done:  E(RB3LYP) =  -730.294626859     A.U. after   16 cycles
 SCF Done:  E(RB3LYP) =  -730.295197182     A.U. after   16 cycles
 SCF Done:  E(RB3LYP) =  -730.295323027     A.U. after   16 cycles
 SCF Done:  E(RB3LYP) =  -730.295362971     A.U. after   10 cycles
 SCF Done:  E(RB3LYP) =  -730.295371361     A.U. after   18 cycles
 SCF Done:  E(RB3LYP) =  -730.295372051     A.U. after   18 cycles
 Optimization completed.
    -- Stationary point found.
 Normal termination of Gaussian 09 at Fri Oct  1 02:35:39 2021.

 ----------------------------------------------------------------------
 #p freq b3lyp/6-31G* volume NMR pop=NPA density=current Geom=AllCheck
 Guess=Read
 ----------------------------------------------------------------------

 COc1ccc2c3c1ccc1c3c(cc2)ccc1_conf_0
 -----------------------------------
 Redundant internal coordinates taken from checkpoint file:
 C17H12O_42f6_conf_0.chk
 Charge =  0 Multiplicity = 1

 SCF Done:  E(RB3LYP) =  -730.295372051     A.U. after    1 cycles

  1  C    Isotropic =   136.8751   Anisotropy =    66.3575

  2  O    Isotropic =   238.4777   Anisotropy =    96.5126

  3  C    Isotropic =    43.5081   Anisotropy =   116.8305

  4  C    Isotropic =    88.6084   Anisotropy =   142.3217

  5  C    Isotropic =    69.7879   Anisotropy =   142.6552

  6  C    Isotropic =    70.6632   Anisotropy =   182.7510

  7  C    Isotropic =    69.5828   Anisotropy =   194.7319

  8  C    Isotropic =    74.7560   Anisotropy =   165.4993

  9  C    Isotropic =    72.5842   Anisotropy =   157.4482

 10  C    Isotropic =    68.9236   Anisotropy =   134.4164

 11  C    Isotropic =    64.5313   Anisotropy =   193.1031

 12  C    Isotropic =    70.7209   Anisotropy =   196.8918

 13  C    Isotropic =    64.3077   Anisotropy =   191.0312

 14  C    Isotropic =    69.8087   Anisotropy =   131.1950

 15  C    Isotropic =    67.6550   Anisotropy =   135.0071

 16  C    Isotropic =    71.5830   Anisotropy =   142.2605

 17  C    Isotropic =    70.2262   Anisotropy =   163.7743

 18  C    Isotropic =    71.5472   Anisotropy =   142.0200

 19  H    Isotropic =    28.2501   Anisotropy =     8.9442

 20  H    Isotropic =    28.2485   Anisotropy =     8.9444

 21  H    Isotropic =    27.8992   Anisotropy =     8.7633

 22  H    Isotropic =    24.9634   Anisotropy =     8.7818

 23  H    Isotropic =    24.2527   Anisotropy =     7.7446

 24  H    Isotropic =    23.7058   Anisotropy =    10.6729

 25  H    Isotropic =    24.3280   Anisotropy =     7.7654

 26  H    Isotropic =    24.5123   Anisotropy =     7.2259

 27  H    Isotropic =    24.4387   Anisotropy =     7.4140

 28  H    Isotropic =    24.3117   Anisotropy =     7.4003

 29  H    Isotropic =    24.2305   Anisotropy =     5.8729

 30  H    Isotropic =    24.2669   Anisotropy =     7.5621

  Exact polarizability: 308.357 -15.421 210.336   0.008   0.001  60.480
 Approx polarizability: 563.667 -44.446 394.562   0.021   0.001  96.977

                     1                      2                      3
                     A                      A                      A
 Frequencies --    61.1995               107.0434               118.2466
 Red. masses --     3.3916                 4.3903                 4.2447
 Frc consts  --     0.0075                 0.0296                 0.0350
 IR Inten    --     2.5474                 0.7321                 2.0397

                     4                      5                      6
                     A                      A                      A
 Frequencies --   191.3004               200.3391               221.5253
 Red. masses --     3.8600                 3.4181                 3.6243
 Frc consts  --     0.0832                 0.0808                 0.1048
 IR Inten    --     2.0844                 0.0106                 4.2348

                     7                      8                      9
                     A                      A                      A
 Frequencies --   249.9297               274.2338               324.5086
 Red. masses --     1.4780                 2.7708                 4.4244
 Frc consts  --     0.0544                 0.1228                 0.2745
 IR Inten    --     0.4572                 0.0207                 0.9244

                    10                     11                     12
                     A                      A                      A
 Frequencies --   335.5147               382.0125               425.5878
 Red. masses --     3.9171                 5.1996                 7.6693
 Frc consts  --     0.2598                 0.4471                 0.8184
 IR Inten    --     1.1228                 0.3707                 0.4503

                    13                     14                     15
                     A                      A                      A
 Frequencies --   439.8664               486.5205               489.9072
 Red. masses --     3.7403                 5.5765                 4.7768
 Frc consts  --     0.4264                 0.7777                 0.6755
 IR Inten    --     0.2621                 1.8796                 3.3064

                    16                     17                     18
                     A                      A                      A
 Frequencies --   510.6141               520.8047               526.3851
 Red. masses --     3.9186                 3.7929                 5.9163
 Frc consts  --     0.6020                 0.6061                 0.9659
 IR Inten    --     0.3770                 0.0619                 2.6895

                    19                     20                     21
                     A                      A                      A
 Frequencies --   556.7012               571.0951               628.6886
 Red. masses --     3.2588                 5.7697                 4.1215
 Frc consts  --     0.5950                 1.1087                 0.9598
 IR Inten    --     0.3684                 3.8531                 0.6677

                    22                     23                     24
                     A                      A                      A
 Frequencies --   632.6326               693.3282               701.9043
 Red. masses --     5.8729                 3.9311                 6.7996
 Frc consts  --     1.3849                 1.1134                 1.9738
 IR Inten    --     7.3388                 3.3251                 2.7668

                    25                     26                     27
                     A                      A                      A
 Frequencies --   716.7281               729.2011               773.8172
 Red. masses --     5.1482                 2.7234                 5.7553
 Frc consts  --     1.5582                 0.8532                 2.0304
 IR Inten    --     5.2832                11.6413                 0.7964

                    28                     29                     30
                     A                      A                      A
 Frequencies --   774.0663               806.1317               832.5941
 Red. masses --     1.2840                 1.4432                 3.3847
 Frc consts  --     0.4533                 0.5526                 1.3824
 IR Inten    --    10.0456                 2.6321                 2.1911

                    31                     32                     33
                     A                      A                      A
 Frequencies --   834.9936               840.6248               861.5291
 Red. masses --     4.6258                 1.7264                 1.9431
 Frc consts  --     1.9002                 0.7188                 0.8497
 IR Inten    --     7.3608                12.1615                82.0007

                    34                     35                     36
                     A                      A                      A
 Frequencies --   890.0867               904.2700               930.0750
 Red. masses --     5.9202                 1.4302                 1.3178
 Frc consts  --     2.7635                 0.6890                 0.6717
 IR Inten    --     4.1933                 0.0283                 0.4408

                    37                     38                     39
                     A                      A                      A
 Frequencies --   966.0862               972.9183               983.0504
 Red. masses --     1.2751                 1.2859                 1.3058
 Frc consts  --     0.7012                 0.7171                 0.7435
 IR Inten    --     0.4632                 0.2696                 0.1925

                    40                     41                     42
                     A                      A                      A
 Frequencies --   993.1711              1055.1536              1108.3430
 Red. masses --     4.7484                 6.3843                 2.2255
 Frc consts  --     2.7596                 4.1879                 1.6107
 IR Inten    --     1.3032                31.9149                13.4070

                    43                     44                     45
                     A                      A                      A
 Frequencies --  1133.9155              1152.0994              1179.0291
 Red. masses --     2.2623                 2.1962                 1.3053
 Frc consts  --     1.7138                 1.7175                 1.0691
 IR Inten    --     0.5978                83.2303                 1.8968

                    46                     47                     48
                     A                      A                      A
 Frequencies --  1184.0657              1188.2038              1206.4216
 Red. masses --     1.2689                 1.4334                 1.5568
 Frc consts  --     1.0482                 1.1924                 1.3350
 IR Inten    --     0.8573                 7.5427                 5.7952

                    49                     50                     51
                     A                      A                      A
 Frequencies --  1212.1789              1233.1407              1251.5835
 Red. masses --     1.3045                 1.3863                 2.1529
 Frc consts  --     1.1293                 1.2420                 1.9869
 IR Inten    --     8.8713                 5.4998                11.1195

                    52                     53                     54
                     A                      A                      A
 Frequencies --  1275.5235              1277.5594              1299.7512
 Red. masses --     2.4763                 1.6916                 3.1322
 Frc consts  --     2.3737                 1.6267                 3.1176
 IR Inten    --     3.1507                 1.5431               365.1461

                    55                     56                     57
                     A                      A                      A
 Frequencies --  1358.2397              1365.5393              1409.9353
 Red. masses --     4.0644                 3.5986                 6.4584
 Frc consts  --     4.4178                 3.9536                 7.5644
 IR Inten    --    29.8806                45.1529                 0.0452

                    58                     59                     60
                     A                      A                      A
 Frequencies --  1431.5406              1449.9047              1459.2987
 Red. masses --     7.0669                 2.2605                 2.3206
 Frc consts  --     8.5327                 2.7998                 2.9116
 IR Inten    --     5.9933                14.7291                 5.0159

                    61                     62                     63
                     A                      A                      A
 Frequencies --  1472.7316              1497.1298              1503.4635
 Red. masses --     2.4021                 2.4545                 1.5605
 Frc consts  --     3.0696                 3.2414                 2.0783
 IR Inten    --    37.6228                 4.0233                 6.7172

                    64                     65                     66
                     A                      A                      A
 Frequencies --  1521.0064              1532.9254              1538.9906
 Red. masses --     1.0483                 1.1807                 2.8137
 Frc consts  --     1.4289                 1.6347                 3.9264
 IR Inten    --     5.5914                89.8806                 6.6469

                    67                     68                     69
                     A                      A                      A
 Frequencies --  1560.8872              1607.1191              1639.1023
 Red. masses --     3.1190                 4.7442                 7.0434
 Frc consts  --     4.4772                 7.2195                11.1492
 IR Inten    --    79.5209                 5.2384                36.8976

                    70                     71                     72
                     A                      A                      A
 Frequencies --  1650.2618              1661.6816              1684.6370
 Red. masses --     6.0153                 5.9571                 6.9574
 Frc consts  --     9.6520                 9.6913                11.6335
 IR Inten    --     3.1725                42.6027                14.5712

                    73                     74                     75
                     A                      A                      A
 Frequencies --  3027.8312              3088.0411              3158.3907
 Red. masses --     1.0344                 1.1069                 1.1000
 Frc consts  --     5.5874                 6.2189                 6.4652
 IR Inten    --    87.3115                41.4280                25.9428

                    76                     77                     78
                     A                      A                      A
 Frequencies --  3175.1615              3177.8463              3183.0505
 Red. masses --     1.0859                 1.0858                 1.0892
 Frc consts  --     6.4500                 6.4607                 6.5021
 IR Inten    --     1.8568                 0.1722                 3.6007

                    79                     80                     81
                     A                      A                      A
 Frequencies --  3184.9679              3186.6628              3195.0433
 Red. masses --     1.0893                 1.0901                 1.0956
 Frc consts  --     6.5103                 6.5220                 6.5897
 IR Inten    --    14.7421                19.1728                44.6267

                    82                     83                     84
                     A                      A                      A
 Frequencies --  3203.4157              3228.2199              3231.4771
 Red. masses --     1.0962                 1.0911                 1.0925
 Frc consts  --     6.6276                 6.6998                 6.7214
 IR Inten    --    45.3709                20.2931                 8.5924

 - Thermochemistry -
 -------------------
 Temperature   298.150 Kelvin.  Pressure   1.00000 Atm.
 Atom     1 has atomic number  6 and mass  12.00000

 Molecular mass:   232.08882 amu.
 Principal axes and moments of inertia in atomic units:
                           1         2         3
     Eigenvalues --  2047.658465287.619677323.74561
           X            1.00000  -0.00108  -0.00000
           Y            0.00108   1.00000   0.00000
           Z            0.00000  -0.00000   1.00000
 This molecule is an asymmetric top.
 Rotational symmetry number  1.
 Warning -- assumption of classical behavior for rotation
           may cause significant error
 Rotational temperatures (Kelvin)      0.04230     0.01638     0.01183
 Rotational constants (GHZ):           0.88137     0.34131     0.24642
 Zero-point vibrational energy     631632.5 (Joules/Mol)
                                  150.96379 (Kcal/Mol)
 Warning -- explicit consideration of  20 degrees of freedom as
           vibrations may cause significant error
 Vibrational temperatures:     88.05   154.01   170.13   275.24   288.24
          (Kelvin)            318.73   359.59   394.56   466.89   482.73
                              549.63   612.33   632.87   699.99   704.87
                              734.66   749.32   757.35   800.97   821.68
                              904.54   910.22   997.54  1009.88  1031.21
                             1049.16  1113.35  1113.71  1159.84  1197.92
                             1201.37  1209.47  1239.55  1280.63  1301.04
                             1338.17  1389.98  1399.81  1414.39  1428.95
                             1518.13  1594.66  1631.45  1657.61  1696.36
                             1703.60  1709.56  1735.77  1744.05  1774.21
                             1800.75  1835.19  1838.12  1870.05  1954.20
                             1964.70  2028.58  2059.67  2086.09  2099.60
                             2118.93  2154.03  2163.15  2188.39  2205.54
                             2214.26  2245.77  2312.28  2358.30  2374.36
                             2390.79  2423.81  4356.37  4443.00  4544.21
                             4568.34  4572.21  4579.69  4582.45  4584.89
                             4596.95  4608.99  4644.68  4649.37

 Zero-point correction=                           0.240576 (Hartree/Particle)
 Thermal correction to Energy=                    0.253248
 Thermal correction to Enthalpy=                  0.254192
 Thermal correction to Gibbs Free Energy=         0.201974
 Sum of electronic and zero-point Energies=           -730.054796
 Sum of electronic and thermal Energies=              -730.042124
 Sum of electronic and thermal Enthalpies=            -730.041180
 Sum of electronic and thermal Free Energies=         -730.093398

                     E (Thermal)             CV                S
                      KCal/Mol        Cal/Mol-Kelvin    Cal/Mol-Kelvin
 Total                  158.915             53.623            109.901
 Electronic               0.000              0.000              0.000
 Translational            0.889              2.981             42.228
 Rotational               0.889              2.981             32.739
 Vibrational            157.138             47.661             34.935
 Vibration     1          0.597              1.973              4.418
 Vibration     2          0.606              1.944              3.322
 Vibration     3          0.608              1.934              3.129
 Vibration     4          0.634              1.852              2.215
 Vibration     5          0.638              1.839              2.130
 Vibration     6          0.648              1.808              1.947
 Vibration     7          0.663              1.763              1.731
 Vibration     8          0.677              1.721              1.569
 Vibration     9          0.709              1.626              1.287
 Vibration    10          0.717              1.605              1.233
 Vibration    11          0.751              1.509              1.031
 Vibration    12          0.787              1.415              0.873
 Vibration    13          0.800              1.383              0.827
 Vibration    14          0.843              1.280              0.693
 Vibration    15          0.846              1.272              0.684
 Vibration    16          0.866              1.226              0.632
 Vibration    17          0.876              1.204              0.608
 Vibration    18          0.881              1.192              0.595
 Vibration    19          0.912              1.125              0.530
 Vibration    20          0.927              1.094              0.502

 Optimization completed.
    -- Stationary point found.
 Normal termination of Gaussian 09 at Fri Oct  1 03:41:39 2021.
 Gaussian 09:  AM64L-G09RevA.02 11-Jun-2009

 ----------------------------------------------------------------------
 #p TD(NStates=10, Root=1) b3lyp/6-31G* volume pop=NPA density=current
 Geom=AllCheck Guess=Read
 ----------------------------------------------------------------------

 COc1ccc2c3c1ccc1c3c(cc2)ccc1_conf_0
 -----------------------------------
 Redundant internal coordinates taken from checkpoint file:
 C17H12O_42f6_conf_0.chk
 Charge =  0 Multiplicity = 1

                         Standard orientation:
 ---------------------------------------------------------------------
 Center     Atomic      Atomic             Coordinates (Angstroms)
 Number     Number       Type             X           Y           Z
 ---------------------------------------------------------------------
      1          6           0       -4.763011   -0.694793    0.000404
      2          8           0       -3.401874   -1.093054    0.000233
      3          6           0       -2.436703   -0.127505    0.000059
      4          6           0       -2.706920    1.244053   -0.000020
      5          6           0       -1.661552    2.166802   -0.000054
      6          6           0       -0.323259    1.756673   -0.000165
      7          6           0       -0.039973    0.355143   -0.000207
      8          6           0       -1.100257   -0.596647   -0.000292
      9          6           0       -0.782101   -1.995926   -0.000486
     10          6           0        0.512805   -2.420758   -0.000355
     11          6           0        1.607784   -1.492292   -0.000055
     12          6           0        1.315921   -0.093973   -0.000084
     13          6           0        2.384912    0.855433    0.000045
     14          6           0        2.064207    2.257827   -0.000027
     15          6           0        0.772392    2.685912   -0.000137
     16          6           0        3.708556    0.389038    0.000253
     17          6           0        3.984493   -0.978220    0.000366
     18          6           0        2.949795   -1.910139    0.000221
     19          1           0       -5.012199   -0.109876   -0.894564
     20          1           0       -5.011667   -0.109687    0.895501
     21          1           0       -5.343699   -1.619004    0.000726
     22          1           0       -3.729052    1.604418    0.000167
     23          1           0       -1.891212    3.229615   -0.000134
     24          1           0       -1.597948   -2.709770   -0.000791
     25          1           0        0.739030   -3.484466   -0.000567
     26          1           0        2.882509    2.973845    0.000023
     27          1           0        0.544897    3.749508   -0.000224
     28          1           0        4.523055    1.109440    0.000314
     29          1           0        5.016584   -1.318859    0.000566
     30          1           0        3.172146   -2.974502    0.000332
 ---------------------------------------------------------------------

 SCF Done:  E(RB3LYP) =  -730.295372051     A.U. after    1 cycles

 Excitation energies and oscillator strengths:

 Excited State   1:      Singlet-A      3.5381 eV  350.42 nm  f=0.2988  <S**2>=0.000
      60 -> 62         0.10042
      60 -> 63         0.18376
      61 -> 62         0.65857
      61 -> 63        -0.13893
 This state for optimization and/or second-order correction.
 Total Energy, E(TD-HF/TD-KS) =  -730.165348632
 Copying the excited state density for this state as the 1-particle RhoCI density.

 Excited State   2:      Singlet-A      3.7307 eV  332.34 nm  f=0.0384  <S**2>=0.000
      60 -> 62        -0.37899
      61 -> 62         0.16487
      61 -> 63         0.56707

 Excited State   3:      Singlet-A      4.2616 eV  290.93 nm  f=0.0027  <S**2>=0.000
      59 -> 62        -0.10011
      60 -> 62         0.11523
      61 -> 64         0.68509

 Excited State   4:      Singlet-A      4.5893 eV  270.16 nm  f=0.2353  <S**2>=0.000
      58 -> 64        -0.11725
      59 -> 62        -0.12536
      60 -> 62         0.54406
      61 -> 63         0.35902
      61 -> 64        -0.13438

 Excited State   5:      Singlet-A      4.6598 eV  266.07 nm  f=0.0114  <S**2>=0.000
      58 -> 62        -0.10871
      59 -> 62         0.67059
      60 -> 62         0.10098

 Excited State   6:      Singlet-A      4.9380 eV  251.08 nm  f=0.0094  <S**2>=0.000
      58 -> 62         0.54744
      60 -> 63         0.10757
      61 -> 65        -0.40592

 Excited State   7:      Singlet-A      5.2963 eV  234.09 nm  f=0.0082  <S**2>=0.000
      58 -> 62        -0.11394
      58 -> 63         0.17226
      59 -> 63        -0.45931
      60 -> 64         0.48414

 Excited State   8:      Singlet-A      5.3692 eV  230.92 nm  f=0.3287  <S**2>=0.000
      57 -> 62        -0.20369
      58 -> 62         0.17140
      58 -> 63        -0.15924
      59 -> 63        -0.15367
      60 -> 63         0.43496
      60 -> 65         0.10302
      61 -> 62        -0.10881
      61 -> 65         0.36884

 Excited State   9:      Singlet-A      5.5434 eV  223.66 nm  f=0.3650  <S**2>=0.000
      57 -> 62         0.14607
      58 -> 62        -0.28112
      59 -> 64         0.16644
      60 -> 63         0.46932
      61 -> 62        -0.12688
      61 -> 65        -0.28122
      61 -> 66         0.10661

 Excited State  10:      Singlet-A      5.6613 eV  219.00 nm  f=0.0502  <S**2>=0.000
      57 -> 62         0.18988
      58 -> 62         0.19185
      58 -> 63         0.50068
      59 -> 63         0.16341
      60 -> 65        -0.22339
      61 -> 65         0.25820

 The electronic state is 1-A.
 Alpha  occ. eigenvalues --  -19.18289 -10.24999 -10.24521 -10.19495 -10.19300
 Alpha  occ. eigenvalues --  -10.19270 -10.19266 -10.19200 -10.19168 -10.19037
 Alpha  occ. eigenvalues --  -10.18976 -10.18732 -10.18638 -10.18507 -10.18474
 Alpha  occ. eigenvalues --  -10.18435 -10.18423 -10.18405  -1.06854  -0.88393
 Alpha  occ. eigenvalues --   -0.84321  -0.82202  -0.79057  -0.76482  -0.74047
 Alpha  occ. eigenvalues --   -0.72577  -0.72199  -0.68618  -0.62680  -0.61932
 Alpha  occ. eigenvalues --   -0.61142  -0.59802  -0.54495  -0.53253  -0.51295
 Alpha  occ. eigenvalues --   -0.50689  -0.49271  -0.47962  -0.47262  -0.45483
 Alpha  occ. eigenvalues --   -0.44155  -0.43678  -0.42070  -0.41029  -0.40508
 Alpha  occ. eigenvalues --   -0.40184  -0.39289  -0.38866  -0.37205  -0.36846
 Alpha  occ. eigenvalues --   -0.36606  -0.33950  -0.33767  -0.32443  -0.31961
 Alpha  occ. eigenvalues --   -0.31190  -0.28585  -0.25436  -0.24611  -0.22502
 Alpha  occ. eigenvalues --   -0.18294
 Alpha virt. eigenvalues --   -0.04769  -0.01852   0.00377   0.02823   0.06514
 Alpha virt. eigenvalues --    0.09335   0.10349   0.10744   0.11998   0.12322
 Alpha virt. eigenvalues --    0.13088   0.14329   0.14953   0.15787   0.16028

 Mulliken atomic charges:
              1
     1  C   -0.221123
     2  O   -0.483478
     3  C    0.299454
     4  C   -0.184432
     5  C   -0.253155
     6  C    0.186657
     7  C   -0.014604
     8  C    0.084100
     9  C   -0.182186
    10  C   -0.209578
    11  C    0.173763
    12  C   -0.022890
    13  C    0.152056
    14  C   -0.188412
    15  C   -0.204856
    16  C   -0.226252
    17  C   -0.120612
    18  C   -0.235403
    19  H    0.162838
    20  H    0.162808
    21  H    0.176959
    22  H    0.132518
    23  H    0.126365
    24  H    0.139022
    25  H    0.124281
    26  H    0.131078
    27  H    0.126196
    28  H    0.123223
    29  H    0.124649
    30  H    0.121015
 Sum of Mulliken atomic charges =  -0.00000

 Dipole moment (field-independent basis, Debye):
    X=             -2.8572    Y=              0.6785    Z=              0.0002  Tot=              2.9366
 Quadrupole moment (field-independent basis, Debye-Ang):
   XX=            -78.9791   YY=            -94.2546   ZZ=           -107.9282
   XY=              0.5799   XZ=             -0.0003   YZ=              0.0004

 Summary of Natural Population Analysis:

                                       Natural Population
                Natural  -----------------------------------------------
    Atom  No    Charge         Core      Valence    Rydberg      Total
 -----------------------------------------------------------------------
      C    1   -0.31902      1.99943     4.30550    0.01409     6.31902
      O    2   -0.48530      1.99974     6.47384    0.01172     8.48530
      C    3    0.36208      1.99876     3.61710    0.02206     5.63792
      C    4   -0.31085      1.99905     4.29857    0.01323     6.31085
      C    5   -0.22790      1.99907     4.21332    0.01552     6.22790
      C    6   -0.03650      1.99902     4.02272    0.01477     6.03650
      C    7   -0.01366      1.99899     4.00105    0.01361     6.01366
      C    8   -0.08730      1.99898     4.07278    0.01554     6.08730
      C    9   -0.21944      1.99907     4.20535    0.01502     6.21944
      C   10   -0.21585      1.99906     4.20258    0.01421     6.21585
      C   11   -0.04737      1.99903     4.03343    0.01491     6.04737
      C   12   -0.01138      1.99899     3.99904    0.01335     6.01138
      C   13   -0.08048      1.99902     4.06638    0.01508     6.08048
      C   14   -0.17618      1.99906     4.16349    0.01363     6.17618
      C   15   -0.22586      1.99906     4.21272    0.01408     6.22586
      C   16   -0.20423      1.99906     4.19105    0.01412     6.20423
      C   17   -0.23308      1.99912     4.21931    0.01465     6.23308
      C   18   -0.23066      1.99906     4.21701    0.01460     6.23066
      H   19    0.20979      0.00000     0.78812    0.00209     0.79021
      H   20    0.20979      0.00000     0.78813    0.00209     0.79021
      H   21    0.23218      0.00000     0.76727    0.00055     0.76782
      H   22    0.23830      0.00000     0.76084    0.00086     0.76170
      H   23    0.23334      0.00000     0.76551    0.00115     0.76666
      H   24    0.24587      0.00000     0.75294    0.00119     0.75413
      H   25    0.23189      0.00000     0.76706    0.00104     0.76811
      H   26    0.23358      0.00000     0.76536    0.00106     0.76642
      H   27    0.23290      0.00000     0.76604    0.00106     0.76710
      H   28    0.22974      0.00000     0.76908    0.00117     0.77026
      H   29    0.23564      0.00000     0.76354    0.00082     0.76436
      H   30    0.22996      0.00000     0.76887    0.00118     0.77004
 =======================================================================
   * Total *   -0.00000     35.98358    85.73799    0.27843   122.00000

 Normal termination of Gaussian 09 at Fri Oct  1 05:58:40 2021.
