 Gaussian 09, Revision A.02,

 -----------------------------------
 #p opt b3lyp/6-31G* scf=(xqc,tight)
 -----------------------------------

 --------------------------------------
 CC(c1ccc(cc1)n1cnc2c1cccc2)(C)C_conf_0
 --------------------------------------
 Symbolic Z-matrix:
 Charge =  0 Multiplicity = 1

 SCF Done:  E(RB3LYP) =  -768.169574468     A.U. after   15 cycles
 SCF Done:  E(RB3LYP) =  -768.172818254     A.U. after   12 cycles
 SCF Done:  E(RB3LYP) =  -768.173506790     A.U. after   12 cycles
 SCF Done:  E(RB3LYP) =  -768.173684461     A.U. after   11 cycles
 SCF Done:  E(RB3LYP) =  -768.173749429     A.U. after   10 cycles
 SCF Done:  E(RB3LYP) =  -768.173760388     A.U. after   10 cycles
 SCF Done:  E(RB3LYP) =  -768.173760899     A.U. after    9 cycles
 SCF Done:  E(RB3LYP) =  -768.173763493     A.U. after    8 cycles
 SCF Done:  E(RB3LYP) =  -768.173763616     A.U. after    7 cycles
 SCF Done:  E(RB3LYP) =  -768.173763695     A.U. after    7 cycles
 Optimization completed.
    -- Stationary point found.
 Normal termination of Gaussian 09 at Mon Oct  4 00:11:01 2021.

 ----------------------------------------------------------------------
 #p freq b3lyp/6-31G* volume NMR pop=NPA density=current Geom=AllCheck
 Guess=Read
 ----------------------------------------------------------------------

 CC(c1ccc(cc1)n1cnc2c1cccc2)(C)C_conf_0
 --------------------------------------
 Redundant internal coordinates taken from checkpoint file:
 C17H18N2_d586_conf_0.chk
 Charge =  0 Multiplicity = 1

 SCF Done:  E(RB3LYP) =  -768.173763695     A.U. after    1 cycles

  1  C    Isotropic =   161.2290   Anisotropy =    30.5936

  2  C    Isotropic =   153.0237   Anisotropy =    10.4203

  3  C    Isotropic =    48.1425   Anisotropy =   185.1573

  4  C    Isotropic =    69.9022   Anisotropy =   159.5176

  5  C    Isotropic =    72.8897   Anisotropy =   149.5206

  6  C    Isotropic =    60.6085   Anisotropy =   126.7832

  7  C    Isotropic =    72.3107   Anisotropy =   140.7014

  8  C    Isotropic =    66.8843   Anisotropy =   164.2541

  9  N    Isotropic =    87.4361   Anisotropy =   100.6301

 10  C    Isotropic =    55.9690   Anisotropy =    77.2128

 11  N    Isotropic =     5.0383   Anisotropy =   358.2332

 12  C    Isotropic =    51.5682   Anisotropy =   133.1066

 13  C    Isotropic =    63.1872   Anisotropy =   132.5544

 14  C    Isotropic =    86.4691   Anisotropy =   143.0146

 15  C    Isotropic =    72.7522   Anisotropy =   158.4277

 16  C    Isotropic =    73.6050   Anisotropy =   157.3778

 17  C    Isotropic =    73.8764   Anisotropy =   149.8558

 18  C    Isotropic =   157.3061   Anisotropy =    39.6884

 19  C    Isotropic =   157.3805   Anisotropy =    39.3999

 20  H    Isotropic =    30.5818   Anisotropy =     7.6880

 21  H    Isotropic =    31.0154   Anisotropy =     7.7412

 22  H    Isotropic =    30.5569   Anisotropy =     8.0095

 23  H    Isotropic =    24.7941   Anisotropy =    10.6023

 24  H    Isotropic =    24.7938   Anisotropy =     9.7467

 25  H    Isotropic =    24.9974   Anisotropy =     8.2414

 26  H    Isotropic =    24.5851   Anisotropy =     9.9870

 27  H    Isotropic =    24.6534   Anisotropy =     6.5256

 28  H    Isotropic =    24.8859   Anisotropy =     9.4951

 29  H    Isotropic =    25.0168   Anisotropy =     5.7559

 30  H    Isotropic =    24.9825   Anisotropy =     4.4879

 31  H    Isotropic =    24.5552   Anisotropy =     4.9748

 32  H    Isotropic =    30.9012   Anisotropy =     7.7824

 33  H    Isotropic =    30.5205   Anisotropy =     7.5619

 34  H    Isotropic =    30.8996   Anisotropy =     8.7381

 35  H    Isotropic =    30.8788   Anisotropy =     7.7368

 36  H    Isotropic =    30.8901   Anisotropy =     8.7184

 37  H    Isotropic =    30.5024   Anisotropy =     7.2657

  Exact polarizability: 287.765  -8.076 180.353   1.907  -4.506 105.384
 Approx polarizability: 388.313  -6.373 319.238   6.736 -15.269 168.828

                     1                      2                      3
                     A                      A                      A
 Frequencies --    32.5987                44.2037                61.9047
 Red. masses --     3.4910                 4.2280                 4.6631
 Frc consts  --     0.0022                 0.0049                 0.0105
 IR Inten    --     0.2210                 0.1722                 0.1346

                     4                      5                      6
                     A                      A                      A
 Frequencies --    69.3338               119.6019               181.6441
 Red. masses --     3.6417                 4.0166                 3.8419
 Frc consts  --     0.0103                 0.0339                 0.0747
 IR Inten    --     0.7956                 0.0826                 0.1946

                     7                      8                      9
                     A                      A                      A
 Frequencies --   213.0749               233.0239               234.2640
 Red. masses --     2.4845                 4.3099                 1.4934
 Frc consts  --     0.0665                 0.1379                 0.0483
 IR Inten    --     0.4262                 1.9423                 0.3230

                    10                     11                     12
                     A                      A                      A
 Frequencies --   250.0521               273.2262               278.9072
 Red. masses --     2.5180                 2.8011                 1.2324
 Frc consts  --     0.0928                 0.1232                 0.0565
 IR Inten    --     0.4209                 0.7262                 0.1247

                    13                     14                     15
                     A                      A                      A
 Frequencies --   320.9383               332.2945               358.6620
 Red. masses --     2.8350                 1.0496                 2.7872
 Frc consts  --     0.1720                 0.0683                 0.2112
 IR Inten    --     0.4679                 0.0280                 0.3950

                    16                     17                     18
                     A                      A                      A
 Frequencies --   384.6098               413.9758               424.2529
 Red. masses --     3.0863                 3.4427                 3.0927
 Frc consts  --     0.2690                 0.3476                 0.3280
 IR Inten    --     0.2348                 1.6885                 1.0814

                    19                     20                     21
                     A                      A                      A
 Frequencies --   437.7131               440.0500               468.7224
 Red. masses --     3.3838                 3.3032                 3.2078
 Frc consts  --     0.3820                 0.3769                 0.4152
 IR Inten    --     4.1231                 1.8662                 0.9680

                    22                     23                     24
                     A                      A                      A
 Frequencies --   506.0930               554.7816               571.8810
 Red. masses --     4.8887                 3.9395                 3.3379
 Frc consts  --     0.7377                 0.7144                 0.6432
 IR Inten    --     2.9181                 3.7079                 6.1542

                    25                     26                     27
                     A                      A                      A
 Frequencies --   590.2259               602.3769               636.4865
 Red. masses --     4.1351                 3.3824                 4.2399
 Frc consts  --     0.8487                 0.7231                 1.0120
 IR Inten    --     0.9696                12.3354                 3.4678

                    28                     29                     30
                     A                      A                      A
 Frequencies --   655.3046               661.7886               750.0034
 Red. masses --     6.0972                 6.0543                 4.4355
 Frc consts  --     1.5427                 1.5623                 1.4700
 IR Inten    --     0.1351                 0.2281                 1.8811

                    31                     32                     33
                     A                      A                      A
 Frequencies --   754.1160               759.9134               778.3083
 Red. masses --     4.8039                 1.5089                 3.2086
 Frc consts  --     1.6096                 0.5134                 1.1452
 IR Inten    --     7.7743                44.8770                11.3947

                    34                     35                     36
                     A                      A                      A
 Frequencies --   801.4333               847.7275               849.6967
 Red. masses --     5.0306                 1.4046                 2.1395
 Frc consts  --     1.9037                 0.5947                 0.9101
 IR Inten    --    15.5659                 0.7146                 2.4162

                    37                     38                     39
                     A                      A                      A
 Frequencies --   853.2988               863.4154               874.0938
 Red. masses --     1.4205                 1.5764                 1.4763
 Frc consts  --     0.6094                 0.6924                 0.6646
 IR Inten    --    13.7210                17.2242                 3.5971

                    40                     41                     42
                     A                      A                      A
 Frequencies --   897.8498               936.3771               937.3903
 Red. masses --     5.9842                 1.6605                 1.4202
 Frc consts  --     2.8423                 0.8578                 0.7353
 IR Inten    --     7.9288                 2.1787                 0.6927

                    43                     44                     45
                     A                      A                      A
 Frequencies --   947.7594               966.7610               971.0458
 Red. masses --     1.7137                 1.3007                 1.2949
 Frc consts  --     0.9070                 0.7163                 0.7194
 IR Inten    --     0.8632                 0.0828                 1.3463

                    46                     47                     48
                     A                      A                      A
 Frequencies --   974.9855               976.7253               993.1538
 Red. masses --     1.2126                 1.2411                 7.3927
 Frc consts  --     0.6791                 0.6976                 4.2962
 IR Inten    --     0.0951                 0.2608                14.0363

                    49                     50                     51
                     A                      A                      A
 Frequencies --  1038.7235              1042.3841              1053.7672
 Red. masses --     2.1756                 2.6192                 1.4386
 Frc consts  --     1.3830                 1.6767                 0.9412
 IR Inten    --    10.4480                 0.7602                 1.8720

                    52                     53                     54
                     A                      A                      A
 Frequencies --  1061.3703              1132.0162              1140.3486
 Red. masses --     1.3905                 2.3095                 2.0811
 Frc consts  --     0.9229                 1.7437                 1.5945
 IR Inten    --     0.0007                 9.5112                18.0229

                    55                     56                     57
                     A                      A                      A
 Frequencies --  1152.5860              1171.9646              1188.2847
 Red. masses --     1.4568                 1.6140                 1.3219
 Frc consts  --     1.1403                 1.3062                 1.0998
 IR Inten    --     4.9266                10.1273                 1.8605

                    58                     59                     60
                     A                      A                      A
 Frequencies --  1227.4346              1230.8298              1238.8049
 Red. masses --     1.1855                 2.7849                 2.6908
 Frc consts  --     1.0523                 2.4857                 2.4330
 IR Inten    --    14.6231                41.3058                 3.2420

                    61                     62                     63
                     A                      A                      A
 Frequencies --  1242.1008              1264.8975              1299.3133
 Red. masses --     2.4794                 2.2156                 2.9884
 Frc consts  --     2.2538                 2.0886                 2.9725
 IR Inten    --     1.2786                55.6416                29.6441

                    64                     65                     66
                     A                      A                      A
 Frequencies --  1319.3130              1329.5737              1344.0747
 Red. masses --     2.4449                 1.8873                 3.8414
 Frc consts  --     2.5073                 1.9657                 4.0887
 IR Inten    --    40.3596                35.2339                 4.5411

                    67                     68                     69
                     A                      A                      A
 Frequencies --  1359.7174              1398.1242              1417.3893
 Red. masses --     1.6321                 6.2445                 3.6962
 Frc consts  --     1.7778                 7.1918                 4.3751
 IR Inten    --     5.5099                 2.5350                36.8324

                    70                     71                     72
                     A                      A                      A
 Frequencies --  1425.8090              1427.4915              1458.8796
 Red. masses --     1.2608                 1.2092                 1.2199
 Frc consts  --     1.5102                 1.4518                 1.5297
 IR Inten    --     6.0381                 3.8425                 2.5673

                    73                     74                     75
                     A                      A                      A
 Frequencies --  1461.5461              1496.7707              1512.0385
 Red. masses --     2.7457                 2.6917                 1.0500
 Frc consts  --     3.4557                 3.5529                 1.4144
 IR Inten    --     4.4887                97.4083                 0.0026

                    76                     77                     78
                     A                      A                      A
 Frequencies --  1516.1716              1519.6856              1527.1574
 Red. masses --     1.0456                 1.0567                 2.8096
 Frc consts  --     1.4162                 1.4379                 3.8607
 IR Inten    --     0.1536                 2.2493                 4.0973

                    79                     80                     81
                     A                      A                      A
 Frequencies --  1533.2285              1537.3566              1549.3816
 Red. masses --     1.0735                 1.0501                 1.1618
 Frc consts  --     1.4869                 1.4623                 1.6433
 IR Inten    --    10.5254                 5.6775                22.1836

                    82                     83                     84
                     A                      A                      A
 Frequencies --  1550.8324              1567.3441              1623.6167
 Red. masses --     3.8216                 2.4460                 6.2656
 Frc consts  --     5.4153                 3.5402                 9.7316
 IR Inten    --   100.2455               161.7827                 4.4692

                    85                     86                     87
                     A                      A                      A
 Frequencies --  1637.7954              1666.8724              1673.6461
 Red. masses --     6.5917                 6.2420                 6.2263
 Frc consts  --    10.4176                10.2183                10.2756
 IR Inten    --     1.7259                41.4016                 0.6452

                    88                     89                     90
                     A                      A                      A
 Frequencies --  3044.5114              3044.6845              3052.2430
 Red. masses --     1.0350                 1.0349                 1.0363
 Frc consts  --     5.6524                 5.6525                 5.6885
 IR Inten    --    26.2826                24.9090                24.7357

                    91                     92                     93
                     A                      A                      A
 Frequencies --  3110.3928              3111.6082              3115.6578
 Red. masses --     1.1023                 1.1023                 1.1029
 Frc consts  --     6.2832                 6.2883                 6.3081
 IR Inten    --     3.3052                 7.7749                22.2712

                    94                     95                     96
                     A                      A                      A
 Frequencies --  3119.6824              3121.5183              3124.0574
 Red. masses --     1.1014                 1.1024                 1.1016
 Frc consts  --     6.3155                 6.3287                 6.3342
 IR Inten    --    97.3909                22.2244                42.3705

                    97                     98                     99
                     A                      A                      A
 Frequencies --  3186.8690              3191.2932              3200.7268
 Red. masses --     1.0859                 1.0872                 1.0900
 Frc consts  --     6.4975                 6.5236                 6.5791
 IR Inten    --     1.9825                17.3504                21.5399

                   100                    101                    102
                     A                      A                      A
 Frequencies --  3209.3382              3209.7533              3215.9169
 Red. masses --     1.0890                 1.0939                 1.0929
 Frc consts  --     6.6086                 6.6403                 6.6594
 IR Inten    --    12.6263                 8.0230                17.0476

                   103                    104                    105
                     A                      A                      A
 Frequencies --  3219.4940              3226.8200              3260.2797
 Red. masses --     1.0953                 1.0930                 1.0958
 Frc consts  --     6.6889                 6.7056                 6.8629
 IR Inten    --    10.8236                 7.9387                 0.7662

 - Thermochemistry -
 -------------------
 Temperature   298.150 Kelvin.  Pressure   1.00000 Atm.
 Atom     1 has atomic number  6 and mass  12.00000

 Molecular mass:   250.14700 amu.
 Principal axes and moments of inertia in atomic units:
                           1         2         3
     Eigenvalues --  1637.29413********************
           X            1.00000  -0.00249  -0.00008
           Y            0.00249   0.99991  -0.01330
           Z            0.00011   0.01330   0.99991
 This molecule is an asymmetric top.
 Rotational symmetry number  1.
 Warning -- assumption of classical behavior for rotation
           may cause significant error
 Rotational temperatures (Kelvin)      0.05290     0.00812     0.00745
 Rotational constants (GHZ):           1.10227     0.16927     0.15527
 Zero-point vibrational energy     820575.6 (Joules/Mol)
                                  196.12229 (Kcal/Mol)
 Warning -- explicit consideration of  26 degrees of freedom as
           vibrations may cause significant error
 Vibrational temperatures:     46.90    63.60    89.07    99.76   172.08
          (Kelvin)            261.35   306.57   335.27   337.05   359.77
                              393.11   401.28   461.76   478.10   516.03
                              553.37   595.62   610.40   629.77   633.13
                              674.39   728.15   798.21   822.81   849.20
                              866.68   915.76   942.84   952.16  1079.09
                             1085.00  1093.34  1119.81  1153.08  1219.69
                             1222.52  1227.71  1242.26  1257.62  1291.80
                             1347.24  1348.69  1363.61  1390.95  1397.12
                             1402.78  1405.29  1428.92  1494.49  1499.76
                             1516.13  1527.07  1628.72  1640.71  1658.31
                             1686.19  1709.67  1766.00  1770.89  1782.36
                             1787.10  1819.90  1869.42  1898.19  1912.96
                             1933.82  1956.33  2011.59  2039.30  2051.42
                             2053.84  2099.00  2102.84  2153.52  2175.48
                             2181.43  2186.49  2197.24  2205.97  2211.91
                             2229.21  2231.30  2255.06  2336.02  2356.42
                             2398.25  2408.00  4380.37  4380.62  4391.49
                             4475.16  4476.90  4482.73  4488.52  4491.16
                             4494.82  4585.19  4591.55  4605.13  4617.52
                             4618.11  4626.98  4632.13  4642.67  4690.81

 Zero-point correction=                           0.312541 (Hartree/Particle)
 Thermal correction to Energy=                    0.328660
 Thermal correction to Enthalpy=                  0.329605
 Thermal correction to Gibbs Free Energy=         0.268749
 Sum of electronic and zero-point Energies=           -767.861223
 Sum of electronic and thermal Energies=              -767.845103
 Sum of electronic and thermal Enthalpies=            -767.844159
 Sum of electronic and thermal Free Energies=         -767.905015

                     E (Thermal)             CV                S
                      KCal/Mol        Cal/Mol-Kelvin    Cal/Mol-Kelvin
 Total                  206.237             65.488            128.081
 Electronic               0.000              0.000              0.000
 Translational            0.889              2.981             42.451
 Rotational               0.889              2.981             33.672
 Vibrational            204.460             59.527             51.958
 Vibration     1          0.594              1.983              5.665
 Vibration     2          0.595              1.980              5.061
 Vibration     3          0.597              1.972              4.396
 Vibration     4          0.598              1.969              4.172
 Vibration     5          0.609              1.933              3.107
 Vibration     6          0.630              1.865              2.311
 Vibration     7          0.644              1.821              2.017
 Vibration     8          0.654              1.790              1.856
 Vibration     9          0.654              1.788              1.846
 Vibration    10          0.663              1.763              1.730
 Vibration    11          0.676              1.723              1.576
 Vibration    12          0.679              1.713              1.540
 Vibration    13          0.706              1.633              1.305
 Vibration    14          0.714              1.611              1.249
 Vibration    15          0.733              1.557              1.128
 Vibration    16          0.754              1.503              1.021
 Vibration    17          0.778              1.440              0.913
 Vibration    18          0.786              1.417              0.878
 Vibration    19          0.798              1.388              0.834
 Vibration    20          0.800              1.383              0.826
 Vibration    21          0.826              1.319              0.741
 Vibration    22          0.861              1.237              0.643
 Vibration    23          0.910              1.129              0.534
 Vibration    24          0.928              1.092              0.501
 Vibration    25          0.948              1.053              0.467
 Vibration    26          0.961              1.027              0.446

 Optimization completed.
    -- Stationary point found.
 Normal termination of Gaussian 09 at Mon Oct  4 02:34:07 2021.
 Gaussian 09:  AM64L-G09RevA.02 11-Jun-2009

 ----------------------------------------------------------------------
 #p TD(NStates=10, Root=1) b3lyp/6-31G* volume pop=NPA density=current
 Geom=AllCheck Guess=Read
 ----------------------------------------------------------------------

 CC(c1ccc(cc1)n1cnc2c1cccc2)(C)C_conf_0
 --------------------------------------
 Redundant internal coordinates taken from checkpoint file:
 C17H18N2_d586_conf_0.chk
 Charge =  0 Multiplicity = 1

                         Standard orientation:
 ---------------------------------------------------------------------
 Center     Atomic      Atomic             Coordinates (Angstroms)
 Number     Number       Type             X           Y           Z
 ---------------------------------------------------------------------
      1          6           0        4.609553    1.488919   -0.802659
      2          6           0        4.183425    0.262966    0.026893
      3          6           0        2.664302    0.021751   -0.025903
      4          6           0        1.785607    0.842735   -0.746043
      5          6           0        0.412453    0.596907   -0.784462
      6          6           0       -0.125838   -0.479962   -0.077386
      7          6           0        0.729016   -1.308409    0.658508
      8          6           0        2.098112   -1.060883    0.669434
      9          7           0       -1.519430   -0.751222   -0.116115
     10          6           0       -2.100525   -1.991321   -0.327908
     11          7           0       -3.405469   -1.981119   -0.338001
     12          6           0       -3.745495   -0.651790   -0.115904
     13          6           0       -2.581632    0.142417    0.023484
     14          6           0       -2.641556    1.513501    0.286419
     15          6           0       -3.910193    2.078996    0.386446
     16          6           0       -5.078285    1.305027    0.235336
     17          6           0       -5.011066   -0.061768   -0.012243
     18          6           0        4.920823   -0.977413   -0.531621
     19          6           0        4.615746    0.499826    1.493646
     20          1           0        4.356277    1.373564   -1.862712
     21          1           0        5.695275    1.619040   -0.736011
     22          1           0        4.144391    2.411341   -0.436634
     23          1           0        2.165785    1.688801   -1.307283
     24          1           0       -0.237721    1.230340   -1.379383
     25          1           0        0.317144   -2.132819    1.233181
     26          1           0        2.734129   -1.723388    1.249699
     27          1           0       -1.479912   -2.863319   -0.492154
     28          1           0       -1.745896    2.112447    0.415475
     29          1           0       -3.999893    3.142816    0.588599
     30          1           0       -6.047646    1.788437    0.319616
     31          1           0       -5.904752   -0.668727   -0.119758
     32          1           0        4.637059   -1.166525   -1.573168
     33          1           0        4.696251   -1.880753    0.045229
     34          1           0        6.006030   -0.822650   -0.497657
     35          1           0        4.114772    1.379662    1.913115
     36          1           0        5.698396    0.665834    1.549334
     37          1           0        4.377914   -0.356705    2.133104
 ---------------------------------------------------------------------

 SCF Done:  E(RB3LYP) =  -768.173763695     A.U. after    2 cycles

 Excitation energies and oscillator strengths:

 Excited State   1:      Singlet-A      4.6651 eV  265.77 nm  f=0.2160  <S**2>=0.000
      66 -> 70         0.15651
      67 -> 68         0.67231
 This state for optimization and/or second-order correction.
 Total Energy, E(TD-HF/TD-KS) =  -768.002324643
 Copying the excited state density for this state as the 1-particle RhoCI density.

 Excited State   2:      Singlet-A      4.7691 eV  259.97 nm  f=0.0212  <S**2>=0.000
      64 -> 68        -0.17407
      67 -> 69         0.66493

 Excited State   3:      Singlet-A      4.9199 eV  252.00 nm  f=0.0193  <S**2>=0.000
      66 -> 68         0.63001
      66 -> 70         0.16509
      67 -> 70        -0.24671

 Excited State   4:      Singlet-A      5.0664 eV  244.72 nm  f=0.0109  <S**2>=0.000
      66 -> 68         0.13994
      66 -> 69         0.52266
      66 -> 70        -0.16800
      67 -> 70         0.38639

 Excited State   5:      Singlet-A      5.0979 eV  243.21 nm  f=0.0502  <S**2>=0.000
      66 -> 68        -0.23735
      66 -> 69         0.45028
      66 -> 71        -0.13366
      67 -> 70        -0.42572
      67 -> 71        -0.15206

 Excited State   6:      Singlet-A      5.2383 eV  236.69 nm  f=0.1888  <S**2>=0.000
      65 -> 68         0.14141
      65 -> 70        -0.10860
      66 -> 70         0.53425
      67 -> 68        -0.16436
      67 -> 70         0.23908
      67 -> 71        -0.26847

 Excited State   7:      Singlet-A      5.5250 eV  224.41 nm  f=0.0056  <S**2>=0.000
      64 -> 68         0.39476
      64 -> 70         0.12395
      65 -> 68         0.11408
      65 -> 69         0.51636
      67 -> 69         0.15700

 Excited State   8:      Singlet-A      5.5915 eV  221.74 nm  f=0.0168  <S**2>=0.000
      63 -> 68        -0.39155
      63 -> 69         0.11546
      63 -> 70         0.23982
      65 -> 68         0.43562
      65 -> 69        -0.12095
      65 -> 70        -0.18233

 Excited State   9:      Singlet-A      5.8814 eV  210.81 nm  f=0.0973  <S**2>=0.000
      63 -> 68         0.36349
      63 -> 69        -0.11969
      63 -> 70        -0.22364
      64 -> 69        -0.17186
      65 -> 68         0.44928
      65 -> 70         0.13897
      67 -> 71         0.17979

 Excited State  10:      Singlet-A      6.0326 eV  205.52 nm  f=0.0586  <S**2>=0.000
      63 -> 68        -0.31561
      65 -> 69         0.10317
      65 -> 70         0.54048
      66 -> 70         0.13357
      66 -> 71         0.21752

 The electronic state is 1-A.
 Alpha  occ. eigenvalues --  -14.39547 -14.31364 -10.24809 -10.24361 -10.22052
 Alpha  occ. eigenvalues --  -10.21306 -10.20515 -10.20419 -10.20330 -10.20284
 Alpha  occ. eigenvalues --  -10.20075 -10.19977 -10.19108 -10.18561 -10.18270
 Alpha  occ. eigenvalues --  -10.18217 -10.18198 -10.18191 -10.18134  -1.01871
 Alpha  occ. eigenvalues --   -0.90367  -0.86192  -0.83770  -0.81840  -0.76068
 Alpha  occ. eigenvalues --   -0.75284  -0.73268  -0.72767  -0.69332  -0.69116
 Alpha  occ. eigenvalues --   -0.64406  -0.63213  -0.61618  -0.59151  -0.58083
 Alpha  occ. eigenvalues --   -0.55886  -0.54136  -0.50048  -0.48612  -0.47842
 Alpha  occ. eigenvalues --   -0.47675  -0.45973  -0.44594  -0.44259  -0.43946
 Alpha  occ. eigenvalues --   -0.43548  -0.43236  -0.42292  -0.41027  -0.40453
 Alpha  occ. eigenvalues --   -0.40203  -0.38445  -0.37463  -0.37205  -0.36682
 Alpha  occ. eigenvalues --   -0.36066  -0.35145  -0.34112  -0.33387  -0.33282
 Alpha  occ. eigenvalues --   -0.32526  -0.30409  -0.27032  -0.26325  -0.25286
 Alpha  occ. eigenvalues --   -0.22366  -0.21537
 Alpha virt. eigenvalues --   -0.02153  -0.01531  -0.00842   0.02862   0.05710
 Alpha virt. eigenvalues --    0.07289   0.09861   0.10811   0.11439   0.12427
 Alpha virt. eigenvalues --    0.13157   0.13583   0.14266   0.14473   0.15034

 Mulliken atomic charges:
              1
     1  C   -0.454407
     2  C    0.023471
     3  C    0.161429
     4  C   -0.202796
     5  C   -0.203586
     6  C    0.229832
     7  C   -0.154445
     8  C   -0.225507
     9  N   -0.558429
    10  C    0.200637
    11  N   -0.475086
    12  C    0.212429
    13  C    0.316449
    14  C   -0.112267
    15  C   -0.154196
    16  C   -0.126157
    17  C   -0.143138
    18  C   -0.435010
    19  C   -0.434285
    20  H    0.140953
    21  H    0.133657
    22  H    0.138691
    23  H    0.113041
    24  H    0.105326
    25  H    0.117286
    26  H    0.109284
    27  H    0.183209
    28  H    0.193007
    29  H    0.154184
    30  H    0.157166
    31  H    0.174965
    32  H    0.141637
    33  H    0.138250
    34  H    0.128204
    35  H    0.139560
    36  H    0.128229
    37  H    0.138410
 Sum of Mulliken atomic charges =  -0.00000

 Dipole moment (field-independent basis, Debye):
    X=             -4.1497    Y=              2.3024    Z=              0.5393  Tot=              4.7762
 Quadrupole moment (field-independent basis, Debye-Ang):
   XX=            -98.9960   YY=           -107.9565   ZZ=           -115.3611
   XY=            -11.1119   XZ=             -1.8357   YZ=             -1.2048

 Summary of Natural Population Analysis:

                                       Natural Population
                Natural  -----------------------------------------------
    Atom  No    Charge         Core      Valence    Rydberg      Total
 -----------------------------------------------------------------------
      C    1   -0.67372      1.99939     4.66435    0.00997     6.67372
      C    2   -0.06312      1.99911     4.05094    0.01307     6.06312
      C    3   -0.09184      1.99900     4.07273    0.02011     6.09184
      C    4   -0.20684      1.99905     4.19448    0.01332     6.20684
      C    5   -0.31693      1.99905     4.30100    0.01688     6.31693
      C    6    0.02738      1.99892     3.95360    0.02010     5.97262
      C    7   -0.22195      1.99904     4.20940    0.01351     6.22195
      C    8   -0.27050      1.99905     4.25612    0.01533     6.27050
      N    9   -0.28594      1.99928     5.27354    0.01312     7.28594
      C   10    0.19044      1.99937     3.78166    0.02854     5.80956
      N   11   -0.43025      1.99947     5.40876    0.02202     7.43025
      C   12    0.08317      1.99899     3.89537    0.02247     5.91683
      C   13    0.10022      1.99895     3.88307    0.01776     5.89978
      C   14   -0.13580      1.99902     4.12354    0.01324     6.13580
      C   15   -0.25360      1.99916     4.23938    0.01506     6.25360
      C   16   -0.21337      1.99915     4.19991    0.01432     6.21337
      C   17   -0.12867      1.99902     4.11529    0.01437     6.12867
      C   18   -0.66273      1.99938     4.65359    0.00976     6.66273
      C   19   -0.66233      1.99938     4.65320    0.00976     6.66233
      H   20    0.23064      0.00000     0.76823    0.00113     0.76936
      H   21    0.23111      0.00000     0.76788    0.00101     0.76889
      H   22    0.22935      0.00000     0.76950    0.00115     0.77065
      H   23    0.22988      0.00000     0.76910    0.00102     0.77012
      H   24    0.22324      0.00000     0.77580    0.00096     0.77676
      H   25    0.22860      0.00000     0.77014    0.00126     0.77140
      H   26    0.22463      0.00000     0.77445    0.00092     0.77537
      H   27    0.23890      0.00000     0.76042    0.00068     0.76110
      H   28    0.26363      0.00000     0.73511    0.00126     0.73637
      H   29    0.24835      0.00000     0.75099    0.00067     0.75165
      H   30    0.24778      0.00000     0.75156    0.00066     0.75222
      H   31    0.25507      0.00000     0.74375    0.00118     0.74493
      H   32    0.23279      0.00000     0.76609    0.00112     0.76721
      H   33    0.22777      0.00000     0.77135    0.00087     0.77223
      H   34    0.22260      0.00000     0.77614    0.00126     0.77740
      H   35    0.23162      0.00000     0.76725    0.00113     0.76838
      H   36    0.22252      0.00000     0.77620    0.00127     0.77748
      H   37    0.22788      0.00000     0.77121    0.00090     0.77212
 =======================================================================
   * Total *   -0.00000     37.98377    95.69508    0.32115   134.00000

 Normal termination of Gaussian 09 at Mon Oct  4 12:48:42 2021.
