 Gaussian 09, Revision A.02,

 -----------------------------------
 #p opt b3lyp/6-31G* scf=(xqc,tight)
 -----------------------------------

 ---------------------------------
 COc1ccc(c2c1cccc2)c1ccccc1_conf_0
 ---------------------------------
 Symbolic Z-matrix:
 Charge =  0 Multiplicity = 1

 SCF Done:  E(RB3LYP) =  -731.462477294     A.U. after   15 cycles
 SCF Done:  E(RB3LYP) =  -731.467515717     A.U. after   14 cycles
 SCF Done:  E(RB3LYP) =  -731.468588102     A.U. after   13 cycles
 SCF Done:  E(RB3LYP) =  -731.468863496     A.U. after   12 cycles
 SCF Done:  E(RB3LYP) =  -731.469052273     A.U. after   11 cycles
 SCF Done:  E(RB3LYP) =  -731.469171163     A.U. after   11 cycles
 SCF Done:  E(RB3LYP) =  -731.469189927     A.U. after   10 cycles
 SCF Done:  E(RB3LYP) =  -731.469196016     A.U. after   10 cycles
 SCF Done:  E(RB3LYP) =  -731.469196796     A.U. after    8 cycles
 SCF Done:  E(RB3LYP) =  -731.469196863     A.U. after    7 cycles
 Optimization completed.
    -- Stationary point found.
 Normal termination of Gaussian 09 at Thu Sep 30 15:14:56 2021.

 ----------------------------------------------------------------------
 #p freq b3lyp/6-31G* volume NMR pop=NPA density=current Geom=AllCheck
 Guess=Read
 ----------------------------------------------------------------------

 COc1ccc(c2c1cccc2)c1ccccc1_conf_0
 ---------------------------------
 Redundant internal coordinates taken from checkpoint file:
 C17H14O_3d00_conf_0.chk
 Charge =  0 Multiplicity = 1

 SCF Done:  E(RB3LYP) =  -731.469196863     A.U. after    1 cycles

  1  C    Isotropic =   137.1093   Anisotropy =    66.0069

  2  O    Isotropic =   238.8221   Anisotropy =    99.6731

  3  C    Isotropic =    42.1453   Anisotropy =   118.4085

  4  C    Isotropic =    91.7529   Anisotropy =   133.6007

  5  C    Isotropic =    67.6060   Anisotropy =   144.4216

  6  C    Isotropic =    61.5771   Anisotropy =   150.2299

  7  C    Isotropic =    63.6673   Anisotropy =   190.3587

  8  C    Isotropic =    70.2392   Anisotropy =   174.4876

  9  C    Isotropic =    72.0008   Anisotropy =   167.0336

 10  C    Isotropic =    71.6331   Anisotropy =   161.3380

 11  C    Isotropic =    69.6461   Anisotropy =   162.3735

 12  C    Isotropic =    70.1478   Anisotropy =   158.1151

 13  C    Isotropic =    53.8248   Anisotropy =   174.5902

 14  C    Isotropic =    66.1180   Anisotropy =   150.9537

 15  C    Isotropic =    67.5196   Anisotropy =   165.7667

 16  C    Isotropic =    69.9771   Anisotropy =   164.8237

 17  C    Isotropic =    69.2467   Anisotropy =   163.5730

 18  C    Isotropic =    65.2257   Anisotropy =   159.7885

 19  H    Isotropic =    28.0423   Anisotropy =     8.5688

 20  H    Isotropic =    28.4065   Anisotropy =     8.4743

 21  H    Isotropic =    28.4133   Anisotropy =     8.6258

 22  H    Isotropic =    25.7461   Anisotropy =     7.7890

 23  H    Isotropic =    25.0164   Anisotropy =     9.4512

 24  H    Isotropic =    23.8570   Anisotropy =     9.9974

 25  H    Isotropic =    24.7845   Anisotropy =     5.1379

 26  H    Isotropic =    24.8287   Anisotropy =     6.1348

 27  H    Isotropic =    24.3856   Anisotropy =    12.6291

 28  H    Isotropic =    24.8805   Anisotropy =     8.9885

 29  H    Isotropic =    24.8247   Anisotropy =     4.8184

 30  H    Isotropic =    24.9603   Anisotropy =     3.8133

 31  H    Isotropic =    24.8980   Anisotropy =     4.8158

 32  H    Isotropic =    24.8420   Anisotropy =    10.0618

  Exact polarizability: 262.823  -0.625 196.852  -2.058  11.080  92.579
 Approx polarizability: 387.817  -2.290 342.993  -3.877  25.553 154.594

                     1                      2                      3
                     A                      A                      A
 Frequencies --    47.2732                54.2295                82.0938
 Red. masses --     3.7928                 4.2540                 4.4595
 Frc consts  --     0.0050                 0.0074                 0.0177
 IR Inten    --     0.1873                 0.7142                 0.3821

                     4                      5                      6
                     A                      A                      A
 Frequencies --    90.9659               140.8708               174.6970
 Red. masses --     3.5300                 3.7570                 3.7690
 Frc consts  --     0.0172                 0.0439                 0.0678
 IR Inten    --     2.5146                 2.4880                 0.2159

                     7                      8                      9
                     A                      A                      A
 Frequencies --   198.7050               231.4996               252.9646
 Red. masses --     3.8435                 2.8146                 2.3811
 Frc consts  --     0.0894                 0.0889                 0.0898
 IR Inten    --     1.9441                 0.0605                 0.1175

                    10                     11                     12
                     A                      A                      A
 Frequencies --   270.4215               275.9201               364.3803
 Red. masses --     1.9832                 5.1175                 3.9783
 Frc consts  --     0.0854                 0.2295                 0.3112
 IR Inten    --     0.2684                 1.1895                 1.5230

                    13                     14                     15
                     A                      A                      A
 Frequencies --   415.9344               419.4826               442.5783
 Red. masses --     4.1210                 3.2893                 3.4033
 Frc consts  --     0.4200                 0.3410                 0.3928
 IR Inten    --     0.1991                 0.0968                 2.7606

                    16                     17                     18
                     A                      A                      A
 Frequencies --   475.4499               481.9297               498.9989
 Red. masses --     4.7791                 4.1491                 4.6723
 Frc consts  --     0.6365                 0.5678                 0.6855
 IR Inten    --     0.4063                 2.1994                 4.3757

                    19                     20                     21
                     A                      A                      A
 Frequencies --   555.6904               593.5772               621.7691
 Red. masses --     5.8709                 4.8649                 5.0809
 Frc consts  --     1.0681                 1.0099                 1.1573
 IR Inten    --     2.5548                 5.8840                13.0475

                    22                     23                     24
                     A                      A                      A
 Frequencies --   628.3009               644.2544               657.1515
 Red. masses --     4.6466                 3.1867                 4.3227
 Frc consts  --     1.0807                 0.7793                 1.0999
 IR Inten    --     2.3316                 3.7221                 0.3064

                    25                     26                     27
                     A                      A                      A
 Frequencies --   712.4081               718.9674               731.2132
 Red. masses --     3.8905                 2.1475                 5.4484
 Frc consts  --     1.1634                 0.6540                 1.7164
 IR Inten    --     9.7358                17.1760                10.4028

                    28                     29                     30
                     A                      A                      A
 Frequencies --   776.3142               788.3234               798.8182
 Red. masses --     1.9301                 1.4563                 3.3041
 Frc consts  --     0.6853                 0.5332                 1.2422
 IR Inten    --    12.5474                52.6770                 5.1825

                    31                     32                     33
                     A                      A                      A
 Frequencies --   808.4721               834.0690               862.2871
 Red. masses --     5.0567                 1.4728                 1.2501
 Frc consts  --     1.9473                 0.6036                 0.5476
 IR Inten    --     0.7573                25.4305                 0.1283

                    34                     35                     36
                     A                      A                      A
 Frequencies --   888.0419               926.0456               936.2194
 Red. masses --     1.5678                 1.4183                 1.5258
 Frc consts  --     0.7285                 0.7166                 0.7880
 IR Inten    --     0.0575                 1.2011                 0.6343

                    37                     38                     39
                     A                      A                      A
 Frequencies --   948.4661               965.7545               970.7148
 Red. masses --     3.5934                 1.3393                 1.3356
 Frc consts  --     1.9046                 0.7360                 0.7415
 IR Inten    --     0.9591                 1.0004                 0.2987

                    40                     41                     42
                     A                      A                      A
 Frequencies --   992.9627               995.7955              1017.2001
 Red. masses --     1.2541                 1.2502                 6.1807
 Frc consts  --     0.7286                 0.7304                 3.7679
 IR Inten    --     0.2628                 0.0648                 0.7995

                    43                     44                     45
                     A                      A                      A
 Frequencies --  1022.2581              1058.5299              1062.2553
 Red. masses --     6.2853                 2.4403                 2.2825
 Frc consts  --     3.8699                 1.6110                 1.5175
 IR Inten    --     5.7874                 6.5504                11.1462

                    46                     47                     48
                     A                      A                      A
 Frequencies --  1108.2507              1122.7602              1140.3492
 Red. masses --     1.6551                 2.2814                 3.2522
 Frc consts  --     1.1977                 1.6945                 2.4917
 IR Inten    --     7.1512                35.2824                59.0740

                    49                     50                     51
                     A                      A                      A
 Frequencies --  1185.6398              1191.7632              1192.2686
 Red. masses --     1.2713                 1.1984                 1.1269
 Frc consts  --     1.0529                 1.0028                 0.9438
 IR Inten    --     0.8802                 7.3321                 2.0244

                    52                     53                     54
                     A                      A                      A
 Frequencies --  1194.7520              1210.1702              1214.3082
 Red. masses --     1.6479                 1.4660                 1.1461
 Frc consts  --     1.3860                 1.2650                 0.9957
 IR Inten    --    12.9477                 1.6227                 0.6456

                    55                     56                     57
                     A                      A                      A
 Frequencies --  1235.0144              1282.0403              1283.1627
 Red. masses --     1.4146                 2.9446                 1.9888
 Frc consts  --     1.2712                 2.8516                 1.9293
 IR Inten    --     1.7540               171.4377                14.0605

                    58                     59                     60
                     A                      A                      A
 Frequencies --  1322.1712              1330.3689              1363.0881
 Red. masses --     2.6192                 2.4365                 2.1020
 Frc consts  --     2.6977                 2.5408                 2.3011
 IR Inten    --     1.0590                65.9418                11.8202

                    61                     62                     63
                     A                      A                      A
 Frequencies --  1373.7172              1406.9147              1431.9340
 Red. masses --     3.4212                 7.5077                 2.3460
 Frc consts  --     3.8038                 8.7557                 2.8342
 IR Inten    --    46.2596                33.7917                50.6966

                    64                     65                     66
                     A                      A                      A
 Frequencies --  1474.6719              1491.7796              1495.4826
 Red. masses --     2.2165                 2.1973                 1.5684
 Frc consts  --     2.8400                 2.8810                 2.0667
 IR Inten    --    28.4863                 9.9536                17.9451

                    67                     68                     69
                     A                      A                      A
 Frequencies --  1512.1729              1519.7573              1535.4684
 Red. masses --     1.7818                 1.0517                 1.0749
 Frc consts  --     2.4005                 1.4312                 1.4932
 IR Inten    --    24.6388                 5.7453                24.4425

                    70                     71                     72
                     A                      A                      A
 Frequencies --  1544.1269              1567.8253              1630.4197
 Red. masses --     2.2925                 3.4435                 5.2227
 Frc consts  --     3.2206                 4.9870                 8.1798
 IR Inten    --     7.7610                31.7669                 1.1243

                    73                     74                     75
                     A                      A                      A
 Frequencies --  1637.9169              1648.1135              1660.5941
 Red. masses --     6.6620                 5.4165                 5.5399
 Frc consts  --    10.5303                 8.6684                 9.0007
 IR Inten    --    90.1496                33.5567                 4.4587

                    76                     77                     78
                     A                      A                      A
 Frequencies --  1675.2694              3027.7967              3087.5284
 Red. masses --     5.9396                 1.0344                 1.1067
 Frc consts  --     9.8214                 5.5869                 6.2161
 IR Inten    --     3.0065                68.1493                40.6392

                    79                     80                     81
                     A                      A                      A
 Frequencies --  3158.5451              3178.9397              3184.1050
 Red. masses --     1.1001                 1.0846                 1.0864
 Frc consts  --     6.4666                 6.4575                 6.4895
 IR Inten    --    26.1228                 3.6463                 6.8162

                    82                     83                     84
                     A                      A                      A
 Frequencies --  3185.9166              3192.9264              3196.4922
 Red. masses --     1.0875                 1.0892                 1.0909
 Frc consts  --     6.5036                 6.5423                 6.5674
 IR Inten    --     3.4575                18.6115                16.6589

                    85                     86                     87
                     A                      A                      A
 Frequencies --  3199.9797              3202.2544              3209.9083
 Red. masses --     1.0919                 1.0941                 1.0979
 Frc consts  --     6.5876                 6.6100                 6.6651
 IR Inten    --    32.3551                30.0196                20.0121

                    88                     89                     90
                     A                      A                      A
 Frequencies --  3223.9472              3228.8157              3231.9965
 Red. masses --     1.0923                 1.0912                 1.0928
 Frc consts  --     6.6889                 6.7026                 6.7254
 IR Inten    --    12.5033                15.2693                 9.3705

 - Thermochemistry -
 -------------------
 Temperature   298.150 Kelvin.  Pressure   1.00000 Atm.
 Atom     1 has atomic number  6 and mass  12.00000

 Molecular mass:   234.10447 amu.
 Principal axes and moments of inertia in atomic units:
                           1         2         3
     Eigenvalues --  2278.249716627.610048475.02770
           X            0.99992   0.01250  -0.00079
           Y           -0.01250   0.99991   0.00556
           Z            0.00086  -0.00555   0.99998
 This molecule is an asymmetric top.
 Rotational symmetry number  1.
 Warning -- assumption of classical behavior for rotation
           may cause significant error
 Rotational temperatures (Kelvin)      0.03802     0.01307     0.01022
 Rotational constants (GHZ):           0.79216     0.27231     0.21295
 Zero-point vibrational energy     687408.2 (Joules/Mol)
                                  164.29451 (Kcal/Mol)
 Warning -- explicit consideration of  20 degrees of freedom as
           vibrations may cause significant error
 Vibrational temperatures:     68.02    78.02   118.11   130.88   202.68
          (Kelvin)            251.35   285.89   333.08   363.96   389.08
                              396.99   524.26   598.44   603.54   636.77
                              684.07   693.39   717.95   799.51   854.02
                              894.59   903.98   926.94   945.49  1025.00
                             1034.43  1052.05  1116.94  1134.22  1149.32
                             1163.21  1200.04  1240.64  1277.69  1332.37
                             1347.01  1364.63  1389.50  1396.64  1428.65
                             1432.73  1463.52  1470.80  1522.99  1528.35
                             1594.52  1615.40  1640.71  1705.87  1714.68
                             1715.41  1718.98  1741.16  1747.12  1776.91
                             1844.57  1846.18  1902.31  1914.10  1961.18
                             1976.47  2024.23  2060.23  2121.72  2146.34
                             2151.66  2175.68  2186.59  2209.19  2221.65
                             2255.75  2345.81  2356.59  2371.26  2389.22
                             2410.34  4356.32  4442.26  4544.44  4573.78
                             4581.21  4583.82  4593.90  4599.03  4604.05
                             4607.32  4618.34  4638.54  4645.54  4650.12

 Zero-point correction=                           0.261820 (Hartree/Particle)
 Thermal correction to Energy=                    0.275945
 Thermal correction to Enthalpy=                  0.276890
 Thermal correction to Gibbs Free Energy=         0.220360
 Sum of electronic and zero-point Energies=           -731.207377
 Sum of electronic and thermal Energies=              -731.193251
 Sum of electronic and thermal Enthalpies=            -731.192307
 Sum of electronic and thermal Free Energies=         -731.248837

                     E (Thermal)             CV                S
                      KCal/Mol        Cal/Mol-Kelvin    Cal/Mol-Kelvin
 Total                  173.158             57.060            118.976
 Electronic               0.000              0.000              0.000
 Translational            0.889              2.981             42.254
 Rotational               0.889              2.981             33.214
 Vibrational            171.381             51.098             43.509
 Vibration     1          0.595              1.979              4.928
 Vibration     2          0.596              1.976              4.657
 Vibration     3          0.600              1.961              3.840
 Vibration     4          0.602              1.956              3.639
 Vibration     5          0.615              1.912              2.792
 Vibration     6          0.627              1.874              2.384
 Vibration     7          0.637              1.842              2.145
 Vibration     8          0.653              1.793              1.867
 Vibration     9          0.664              1.758              1.710
 Vibration    10          0.674              1.728              1.594
 Vibration    11          0.678              1.718              1.559
 Vibration    12          0.738              1.546              1.103
 Vibration    13          0.779              1.436              0.906
 Vibration    14          0.782              1.428              0.894
 Vibration    15          0.802              1.377              0.819
 Vibration    16          0.832              1.305              0.722
 Vibration    17          0.838              1.290              0.705
 Vibration    18          0.854              1.252              0.661
 Vibration    19          0.911              1.127              0.533
 Vibration    20          0.951              1.045              0.461

 Optimization completed.
    -- Stationary point found.
 Normal termination of Gaussian 09 at Thu Sep 30 16:35:34 2021.
 Gaussian 09:  AM64L-G09RevA.02 11-Jun-2009

 ----------------------------------------------------------------------
 #p TD(NStates=10, Root=1) b3lyp/6-31G* volume pop=NPA density=current
 Geom=AllCheck Guess=Read
 ----------------------------------------------------------------------

 COc1ccc(c2c1cccc2)c1ccccc1_conf_0
 ---------------------------------
 Redundant internal coordinates taken from checkpoint file:
 C17H14O_3d00_conf_0.chk
 Charge =  0 Multiplicity = 1

                         Standard orientation:
 ---------------------------------------------------------------------
 Center     Atomic      Atomic             Coordinates (Angstroms)
 Number     Number       Type             X           Y           Z
 ---------------------------------------------------------------------
      1          6           0       -4.322741   -2.131011    0.197136
      2          8           0       -3.705176   -0.857281    0.112002
      3          6           0       -2.342464   -0.802041    0.069624
      4          6           0       -1.513099   -1.903323    0.107410
      5          6           0       -0.111238   -1.728378    0.076997
      6          6           0        0.483959   -0.483623    0.005817
      7          6           0       -0.364594    0.676520   -0.070637
      8          6           0       -1.788910    0.516108   -0.027287
      9          6           0       -2.627784    1.657969   -0.097540
     10          6           0       -2.091475    2.920159   -0.225238
     11          6           0       -0.691242    3.086420   -0.300075
     12          6           0        0.146332    1.994618   -0.226724
     13          6           0        1.971096   -0.391780    0.017760
     14          6           0        2.733298   -1.120324   -0.910375
     15          6           0        4.127734   -1.087402   -0.879629
     16          6           0        4.790900   -0.322312    0.080854
     17          6           0        4.047558    0.406123    1.011888
     18          6           0        2.653762    0.370663    0.981726
     19          1           0       -5.397607   -1.942240    0.217659
     20          1           0       -4.028076   -2.659854    1.113042
     21          1           0       -4.078695   -2.754384   -0.673081
     22          1           0       -1.914935   -2.907331    0.176929
     23          1           0        0.520355   -2.610234    0.141666
     24          1           0       -3.701504    1.514878   -0.056116
     25          1           0       -2.744986    3.786702   -0.279698
     26          1           0       -0.270680    4.081106   -0.423143
     27          1           0        1.218937    2.134312   -0.301559
     28          1           0        2.221334   -1.705786   -1.669415
     29          1           0        4.695902   -1.655701   -1.611705
     30          1           0        5.877030   -0.294110    0.104786
     31          1           0        4.553829    0.997312    1.770771
     32          1           0        2.083960    0.923263    1.723600
 ---------------------------------------------------------------------

 SCF Done:  E(RB3LYP) =  -731.469196863     A.U. after    1 cycles

 Excitation energies and oscillator strengths:

 Excited State   1:      Singlet-A      4.0382 eV  307.03 nm  f=0.2279  <S**2>=0.000
      61 -> 64        -0.10217
      62 -> 63         0.69304
 This state for optimization and/or second-order correction.
 Total Energy, E(TD-HF/TD-KS) =  -731.320796001
 Copying the excited state density for this state as the 1-particle RhoCI density.

 Excited State   2:      Singlet-A      4.3433 eV  285.46 nm  f=0.0233  <S**2>=0.000
      61 -> 63         0.38922
      62 -> 64         0.57673

 Excited State   3:      Singlet-A      4.6189 eV  268.43 nm  f=0.0435  <S**2>=0.000
      62 -> 65         0.68738

 Excited State   4:      Singlet-A      4.7300 eV  262.12 nm  f=0.0144  <S**2>=0.000
      60 -> 63         0.11402
      62 -> 64         0.11398
      62 -> 66         0.66312

 Excited State   5:      Singlet-A      5.1917 eV  238.81 nm  f=0.0660  <S**2>=0.000
      60 -> 63         0.65398
      61 -> 63         0.15528

 Excited State   6:      Singlet-A      5.2200 eV  237.52 nm  f=0.0044  <S**2>=0.000
      59 -> 63         0.64871
      60 -> 65        -0.10886
      60 -> 66        -0.14799
      62 -> 66         0.11987

 Excited State   7:      Singlet-A      5.4820 eV  226.16 nm  f=0.2286  <S**2>=0.000
      58 -> 63        -0.35003
      58 -> 64        -0.10637
      60 -> 63        -0.13146
      60 -> 64        -0.26235
      61 -> 63         0.39529
      62 -> 64        -0.25724
      62 -> 66         0.11284
      62 -> 67        -0.13269

 Excited State   8:      Singlet-A      5.5848 eV  222.00 nm  f=0.0670  <S**2>=0.000
      58 -> 63         0.52034
      60 -> 64        -0.25099
      61 -> 63         0.20239
      62 -> 64        -0.16398
      62 -> 67         0.24602

 Excited State   9:      Singlet-A      5.6536 eV  219.30 nm  f=0.0378  <S**2>=0.000
      59 -> 63        -0.21861
      59 -> 65         0.33652
      59 -> 66        -0.25147
      60 -> 64        -0.20047
      60 -> 65        -0.25866
      60 -> 66        -0.25933
      61 -> 63        -0.10276
      61 -> 65        -0.21467

 Excited State  10:      Singlet-A      5.7586 eV  215.30 nm  f=0.0356  <S**2>=0.000
      58 -> 64         0.16179
      59 -> 65         0.17861
      59 -> 66        -0.10927
      60 -> 64         0.22946
      60 -> 65        -0.16939
      60 -> 66        -0.15837
      61 -> 63         0.18077
      61 -> 65         0.49707
      61 -> 66        -0.15114

 The electronic state is 1-A.
 Alpha  occ. eigenvalues --  -19.18140 -10.24709 -10.24345 -10.19601 -10.19422
 Alpha  occ. eigenvalues --  -10.19248 -10.18926 -10.18696 -10.18660 -10.18637
 Alpha  occ. eigenvalues --  -10.18565 -10.18462 -10.18446 -10.18438 -10.18390
 Alpha  occ. eigenvalues --  -10.18340 -10.18223 -10.18146  -1.06734  -0.86957
 Alpha  occ. eigenvalues --   -0.84727  -0.81439  -0.78098  -0.74275  -0.74055
 Alpha  occ. eigenvalues --   -0.73438  -0.71912  -0.68887  -0.61934  -0.61373
 Alpha  occ. eigenvalues --   -0.60205  -0.59568  -0.56535  -0.52740  -0.51966
 Alpha  occ. eigenvalues --   -0.50401  -0.49745  -0.47101  -0.46530  -0.45872
 Alpha  occ. eigenvalues --   -0.44355  -0.43698  -0.42536  -0.42062  -0.41476
 Alpha  occ. eigenvalues --   -0.40683  -0.39997  -0.38788  -0.38542  -0.35887
 Alpha  occ. eigenvalues --   -0.35460  -0.34619  -0.34038  -0.33883  -0.32651
 Alpha  occ. eigenvalues --   -0.31884  -0.30937  -0.25912  -0.24599  -0.24324
 Alpha  occ. eigenvalues --   -0.23865  -0.19359
 Alpha virt. eigenvalues --   -0.03046  -0.00540   0.00066   0.00509   0.05179
 Alpha virt. eigenvalues --    0.09669   0.10040   0.10671   0.10877   0.11454
 Alpha virt. eigenvalues --    0.14087   0.14910   0.14989   0.15719   0.16176

 Mulliken atomic charges:
              1
     1  C   -0.224562
     2  O   -0.474883
     3  C    0.313409
     4  C   -0.190938
     5  C   -0.190003
     6  C    0.022060
     7  C    0.103653
     8  C    0.068340
     9  C   -0.211018
    10  C   -0.129988
    11  C   -0.133973
    12  C   -0.244062
    13  C    0.063698
    14  C   -0.164942
    15  C   -0.131610
    16  C   -0.128436
    17  C   -0.137003
    18  C   -0.156933
    19  H    0.178856
    20  H    0.163406
    21  H    0.163090
    22  H    0.137322
    23  H    0.137422
    24  H    0.130507
    25  H    0.118728
    26  H    0.116093
    27  H    0.130549
    28  H    0.132290
    29  H    0.130940
    30  H    0.130012
    31  H    0.131649
    32  H    0.146328
 Sum of Mulliken atomic charges =  -0.00000

 Dipole moment (field-independent basis, Debye):
    X=             -0.8280    Y=             -3.1037    Z=              0.3019  Tot=              3.2264
 Quadrupole moment (field-independent basis, Debye-Ang):
   XX=            -86.1782   YY=            -95.6433   ZZ=           -105.5289
   XY=              9.5533   XZ=             -0.7695   YZ=              2.2585

 Summary of Natural Population Analysis:

                                       Natural Population
                Natural  -----------------------------------------------
    Atom  No    Charge         Core      Valence    Rydberg      Total
 -----------------------------------------------------------------------
      C    1   -0.32095      1.99943     4.30727    0.01425     6.32095
      O    2   -0.47678      1.99974     6.46500    0.01203     8.47678
      C    3    0.35228      1.99874     3.62639    0.02259     5.64772
      C    4   -0.29553      1.99903     4.28301    0.01349     6.29553
      C    5   -0.21317      1.99905     4.19915    0.01497     6.21317
      C    6    0.00447      1.99896     3.97937    0.01720     5.99553
      C    7   -0.03923      1.99900     4.02567    0.01456     6.03923
      C    8   -0.07872      1.99898     4.06446    0.01528     6.07872
      C    9   -0.26898      1.99907     4.25283    0.01708     6.26898
      C   10   -0.22149      1.99910     4.20736    0.01503     6.22149
      C   11   -0.24218      1.99910     4.22744    0.01565     6.24218
      C   12   -0.26943      1.99907     4.25493    0.01543     6.26943
      C   13   -0.05925      1.99901     4.04423    0.01601     6.05925
      C   14   -0.22432      1.99903     4.21196    0.01333     6.22432
      C   15   -0.22790      1.99910     4.21479    0.01401     6.22790
      C   16   -0.23280      1.99909     4.21950    0.01420     6.23280
      C   17   -0.23851      1.99909     4.22517    0.01425     6.23851
      C   18   -0.20874      1.99903     4.19670    0.01301     6.20874
      H   19    0.23331      0.00000     0.76616    0.00053     0.76669
      H   20    0.20975      0.00000     0.78835    0.00189     0.79025
      H   21    0.20958      0.00000     0.78849    0.00193     0.79042
      H   22    0.23836      0.00000     0.76073    0.00091     0.76164
      H   23    0.24067      0.00000     0.75824    0.00109     0.75933
      H   24    0.23967      0.00000     0.75914    0.00119     0.76033
      H   25    0.23037      0.00000     0.76879    0.00084     0.76963
      H   26    0.22990      0.00000     0.76925    0.00084     0.77010
      H   27    0.23465      0.00000     0.76426    0.00109     0.76535
      H   28    0.23828      0.00000     0.76060    0.00112     0.76172
      H   29    0.23716      0.00000     0.76193    0.00091     0.76284
      H   30    0.23553      0.00000     0.76359    0.00088     0.76447
      H   31    0.23792      0.00000     0.76119    0.00090     0.76208
      H   32    0.24608      0.00000     0.75278    0.00114     0.75392
 =======================================================================
   * Total *    0.00000     35.98364    87.72875    0.28761   124.00000

 Normal termination of Gaussian 09 at Thu Sep 30 22:08:23 2021.
