 Gaussian 09, Revision A.02,

 -----------------------------------
 #p opt b3lyp/6-31G* scf=(xqc,tight)
 -----------------------------------

 -------------------------------------
 O=C(c1ccccc1)Oc1ccc2c(c1)cccc2_conf_0
 -------------------------------------
 Symbolic Z-matrix:
 Charge =  0 Multiplicity = 1

 SCF Done:  E(RB3LYP) =  -805.502604880     A.U. after   15 cycles
 SCF Done:  E(RB3LYP) =  -805.508093205     A.U. after   13 cycles
 SCF Done:  E(RB3LYP) =  -805.508591047     A.U. after   12 cycles
 SCF Done:  E(RB3LYP) =  -805.508717328     A.U. after   16 cycles
 SCF Done:  E(RB3LYP) =  -805.509496234     A.U. after   12 cycles
 SCF Done:  E(RB3LYP) =  -805.509594873     A.U. after   16 cycles
 SCF Done:  E(RB3LYP) =  -805.509611207     A.U. after   10 cycles
 SCF Done:  E(RB3LYP) =  -805.509613343     A.U. after    8 cycles
 SCF Done:  E(RB3LYP) =  -805.509614665     A.U. after    9 cycles
 SCF Done:  E(RB3LYP) =  -805.509615464     A.U. after    9 cycles
 SCF Done:  E(RB3LYP) =  -805.509615801     A.U. after    8 cycles
 Optimization completed.
    -- Stationary point found.
 Normal termination of Gaussian 09 at Wed Sep 29 03:05:34 2021.

 ----------------------------------------------------------------------
 #p freq b3lyp/6-31G* volume NMR pop=NPA density=current Geom=AllCheck
 Guess=Read
 ----------------------------------------------------------------------

 O=C(c1ccccc1)Oc1ccc2c(c1)cccc2_conf_0
 -------------------------------------
 Redundant internal coordinates taken from checkpoint file:
 C17H12O2_b410_conf_0.chk
 Charge =  0 Multiplicity = 1

 SCF Done:  E(RB3LYP) =  -805.509615801     A.U. after    1 cycles

  1  O    Isotropic =   -41.4455   Anisotropy =   559.2592

  2  C    Isotropic =    33.7925   Anisotropy =    72.2500

  3  C    Isotropic =    66.2592   Anisotropy =   148.6157

  4  C    Isotropic =    63.6447   Anisotropy =   178.5561

  5  C    Isotropic =    68.0813   Anisotropy =   166.2547

  6  C    Isotropic =    63.5564   Anisotropy =   174.2161

  7  C    Isotropic =    68.3259   Anisotropy =   165.4886

  8  C    Isotropic =    65.9102   Anisotropy =   172.8713

  9  O    Isotropic =   112.5054   Anisotropy =   149.3178

 10  C    Isotropic =    46.3593   Anisotropy =   106.5404

 11  C    Isotropic =    73.2084   Anisotropy =   149.3795

 12  C    Isotropic =    66.9246   Anisotropy =   142.7180

 13  C    Isotropic =    65.7143   Anisotropy =   196.7957

 14  C    Isotropic =    62.9845   Anisotropy =   195.1857

 15  C    Isotropic =    77.4155   Anisotropy =   120.5205

 16  C    Isotropic =    68.0932   Anisotropy =   145.4979

 17  C    Isotropic =    69.9282   Anisotropy =   162.7363

 18  C    Isotropic =    70.8397   Anisotropy =   161.2141

 19  C    Isotropic =    67.5945   Anisotropy =   146.8188

 20  H    Isotropic =    23.9221   Anisotropy =     7.8890

 21  H    Isotropic =    24.7908   Anisotropy =     4.7412

 22  H    Isotropic =    24.7209   Anisotropy =     4.5376

 23  H    Isotropic =    24.8295   Anisotropy =     5.1901

 24  H    Isotropic =    23.9800   Anisotropy =     8.8999

 25  H    Isotropic =    24.6232   Anisotropy =     8.7209

 26  H    Isotropic =    24.5342   Anisotropy =     6.8320

 27  H    Isotropic =    24.9137   Anisotropy =     8.7883

 28  H    Isotropic =    24.5546   Anisotropy =     7.5873

 29  H    Isotropic =    24.7730   Anisotropy =     5.2126

 30  H    Isotropic =    24.8076   Anisotropy =     4.9750

 31  H    Isotropic =    24.5263   Anisotropy =     6.9218

  Exact polarizability: 308.915   4.353 166.489   5.474   1.050  84.579
 Approx polarizability: 433.167   7.750 308.826  11.427  -0.727 144.186

                     1                      2                      3
                     A                      A                      A
 Frequencies --    20.3276                29.6413                49.8895
 Red. masses --     4.7424                 5.7450                 5.0119
 Frc consts  --     0.0012                 0.0030                 0.0073
 IR Inten    --     0.3343                 0.5361                 0.5593

                     4                      5                      6
                     A                      A                      A
 Frequencies --    75.8692               126.3032               165.5928
 Red. masses --     6.9479                 5.6317                 5.1853
 Frc consts  --     0.0236                 0.0529                 0.0838
 IR Inten    --     0.9557                 0.0521                 0.5305

                     7                      8                      9
                     A                      A                      A
 Frequencies --   177.4689               195.9380               257.2475
 Red. masses --     5.2593                 4.3895                 5.7429
 Frc consts  --     0.0976                 0.0993                 0.2239
 IR Inten    --     0.8698                 2.0569                 0.1097

                    10                     11                     12
                     A                      A                      A
 Frequencies --   307.2416               330.7433               407.8689
 Red. masses --     5.9412                 6.0916                 3.8572
 Frc consts  --     0.3304                 0.3926                 0.3781
 IR Inten    --     3.3106                 8.7684                 0.4798

                    13                     14                     15
                     A                      A                      A
 Frequencies --   416.2864               419.2881               447.9397
 Red. masses --     2.9810                 4.7118                 4.3238
 Frc consts  --     0.3044                 0.4880                 0.5112
 IR Inten    --     0.0051                 1.0438                 0.4604

                    16                     17                     18
                     A                      A                      A
 Frequencies --   473.5432               490.2598               524.0009
 Red. masses --     5.2799                 2.6415                 6.8319
 Frc consts  --     0.6976                 0.3741                 1.1052
 IR Inten    --     1.7045                 9.7424                 3.1319

                    19                     20                     21
                     A                      A                      A
 Frequencies --   529.9859               540.5623               632.0401
 Red. masses --     7.2098                 3.9470                 6.4043
 Frc consts  --     1.1932                 0.6795                 1.5073
 IR Inten    --     2.0988                 2.4348                 0.9480

                    22                     23                     24
                     A                      A                      A
 Frequencies --   636.4253               647.3088               684.8443
 Red. masses --     5.7946                 3.8932                 5.9115
 Frc consts  --     1.3828                 0.9611                 1.6336
 IR Inten    --     1.8472                 1.7411                10.9293

                    25                     26                     27
                     A                      A                      A
 Frequencies --   696.2389               716.8374               751.8091
 Red. masses --     4.1359                 1.6451                 3.2204
 Frc consts  --     1.1812                 0.4981                 1.0724
 IR Inten    --     0.5457                70.8566                 3.9128

                    28                     29                     30
                     A                      A                      A
 Frequencies --   764.6790               770.8287               783.0837
 Red. masses --     1.6898                 2.9171                 4.5846
 Frc consts  --     0.5822                 1.0212                 1.6564
 IR Inten    --    18.2812                 4.0453                 1.8305

                    31                     32                     33
                     A                      A                      A
 Frequencies --   808.5365               820.5325               849.9885
 Red. masses --     2.4990                 1.5807                 2.4218
 Frc consts  --     0.9625                 0.6271                 1.0309
 IR Inten    --     7.4204                24.4918                 2.6120

                    34                     35                     36
                     A                      A                      A
 Frequencies --   868.5789               882.5376               904.4219
 Red. masses --     1.2465                 1.9403                 1.8778
 Frc consts  --     0.5541                 0.8904                 0.9050
 IR Inten    --     0.0620                12.0142                17.8753

                    37                     38                     39
                     A                      A                      A
 Frequencies --   917.5180               951.5391               957.0946
 Red. masses --     4.2395                 1.3166                 1.3954
 Frc consts  --     2.1028                 0.7024                 0.7531
 IR Inten    --     3.3560                 1.7938                 1.3305

                    40                     41                     42
                     A                      A                      A
 Frequencies --   962.2167               980.0172               985.1162
 Red. masses --     1.3465                 4.0839                 1.3520
 Frc consts  --     0.7345                 2.3110                 0.7730
 IR Inten    --     3.0729                11.9139                 0.0804

                    43                     44                     45
                     A                      A                      A
 Frequencies --   989.9663              1009.6738              1019.6435
 Red. masses --     1.2725                 1.2726                 6.2860
 Frc consts  --     0.7348                 0.7644                 3.8505
 IR Inten    --     0.0031                 0.0744                 8.8914

                    46                     47                     48
                     A                      A                      A
 Frequencies --  1050.8188              1052.9749              1092.4642
 Red. masses --     2.3834                 2.4825                 2.5781
 Frc consts  --     1.5506                 1.6217                 1.8129
 IR Inten    --    13.2648                37.4483               179.3206

                    49                     50                     51
                     A                      A                      A
 Frequencies --  1117.1211              1157.0472              1183.6762
 Red. masses --     1.7107                 1.7614                 1.2696
 Frc consts  --     1.2578                 1.3894                 1.0480
 IR Inten    --    12.1529                45.4430                 6.2393

                    52                     53                     54
                     A                      A                      A
 Frequencies --  1187.6393              1193.3784              1194.8190
 Red. masses --     1.2438                 1.4807                 1.1443
 Frc consts  --     1.0336                 1.2425                 0.9625
 IR Inten    --    38.5819               182.9134                19.9529

                    55                     56                     57
                     A                      A                      A
 Frequencies --  1207.7901              1251.8545              1275.9244
 Red. masses --     1.1459                 3.2170                 2.0862
 Frc consts  --     0.9848                 2.9703                 2.0010
 IR Inten    --    73.2059               131.4229               502.0275

                    58                     59                     60
                     A                      A                      A
 Frequencies --  1286.5529              1295.8157              1351.7741
 Red. masses --     2.9109                 1.9809                 1.5775
 Frc consts  --     2.8388                 1.9597                 1.6983
 IR Inten    --   313.3468                70.5451                 4.2771

                    61                     62                     63
                     A                      A                      A
 Frequencies --  1368.0689              1398.9186              1411.7722
 Red. masses --     4.2036                 1.9365                 4.9621
 Frc consts  --     4.6353                 2.2329                 5.8270
 IR Inten    --     3.8643                 4.5555                 5.4153

                    64                     65                     66
                     A                      A                      A
 Frequencies --  1422.7807              1488.8871              1497.4616
 Red. masses --     5.4168                 2.4907                 2.2437
 Frc consts  --     6.4606                 3.2531                 2.9643
 IR Inten    --     2.2091                 2.1414                17.7783

                    67                     68                     69
                     A                      A                      A
 Frequencies --  1516.9627              1540.8021              1563.9760
 Red. masses --     2.2561                 2.2229                 3.4067
 Frc consts  --     3.0588                 3.1093                 4.9095
 IR Inten    --    27.4374                 0.9813                33.7590

                    70                     71                     72
                     A                      A                      A
 Frequencies --  1630.1977              1641.5570              1660.8760
 Red. masses --     7.0597                 5.6623                 5.4757
 Frc consts  --    11.0539                 8.9899                 8.8994
 IR Inten    --     3.1492                 4.8164                37.7993

                    73                     74                     75
                     A                      A                      A
 Frequencies --  1663.1402              1689.9507              1812.6652
 Red. masses --     5.4446                 6.3786                12.9237
 Frc consts  --     8.8730                10.7330                25.0192
 IR Inten    --     6.1146                22.6459               212.2250

                    76                     77                     78
                     A                      A                      A
 Frequencies --  3178.6079              3182.9145              3187.7873
 Red. masses --     1.0857                 1.0883                 1.0858
 Frc consts  --     6.4628                 6.4963                 6.5012
 IR Inten    --     3.5146                 0.3781                 0.1430

                    79                     80                     81
                     A                      A                      A
 Frequencies --  3189.6869              3196.7125              3199.7750
 Red. masses --     1.0896                 1.0933                 1.0900
 Frc consts  --     6.5313                 6.5824                 6.5753
 IR Inten    --     9.6875                33.1795                15.3351

                    82                     83                     84
                     A                      A                      A
 Frequencies --  3206.5975              3209.8657              3210.1090
 Red. masses --     1.0915                 1.0967                 1.0950
 Frc consts  --     6.6125                 6.6577                 6.6484
 IR Inten    --    11.8044                40.9425                17.0033

                    85                     86                     87
                     A                      A                      A
 Frequencies --  3227.8239              3236.3494              3244.3389
 Red. masses --     1.0933                 1.0927                 1.0933
 Frc consts  --     6.7111                 6.7434                 6.7805
 IR Inten    --     6.4492                 3.1146                 3.5573

 - Thermochemistry -
 -------------------
 Temperature   298.150 Kelvin.  Pressure   1.00000 Atm.
 Atom     1 has atomic number  8 and mass  15.99491

 Molecular mass:   248.08373 amu.
 Principal axes and moments of inertia in atomic units:
                           1         2         3
     Eigenvalues --  1265.26661********************
           X            1.00000  -0.00149   0.00077
           Y            0.00149   0.99992   0.01232
           Z           -0.00079  -0.01232   0.99992
 This molecule is an asymmetric top.
 Rotational symmetry number  1.
 Warning -- assumption of classical behavior for rotation
           may cause significant error
 Rotational temperatures (Kelvin)      0.06845     0.00724     0.00680
 Rotational constants (GHZ):           1.42637     0.15095     0.14167
 Zero-point vibrational energy     637942.8 (Joules/Mol)
                                  152.47199 (Kcal/Mol)
 Warning -- explicit consideration of  20 degrees of freedom as
           vibrations may cause significant error
 Vibrational temperatures:     29.25    42.65    71.78   109.16   181.72
          (Kelvin)            238.25   255.34   281.91   370.12   442.05
                              475.87   586.83   598.94   603.26   644.48
                              681.32   705.37   753.92   762.53   777.75
                              909.36   915.67   931.33   985.34  1001.73
                             1031.37  1081.68  1100.20  1109.05  1126.68
                             1163.30  1180.56  1222.94  1249.69  1269.77
                             1301.26  1320.10  1369.05  1377.04  1384.41
                             1410.02  1417.36  1424.34  1452.69  1467.04
                             1511.89  1514.99  1571.81  1607.29  1664.73
                             1703.04  1708.75  1717.00  1719.08  1737.74
                             1801.14  1835.77  1851.06  1864.39  1944.90
                             1968.34  2012.73  2031.22  2047.06  2142.17
                             2154.51  2182.57  2216.87  2250.21  2345.49
                             2361.83  2389.63  2392.88  2431.46  2608.02
                             4573.30  4579.50  4586.51  4589.24  4599.35
                             4603.76  4613.57  4618.28  4618.63  4644.11
                             4656.38  4667.87

 Zero-point correction=                           0.242980 (Hartree/Particle)
 Thermal correction to Energy=                    0.257382
 Thermal correction to Enthalpy=                  0.258326
 Thermal correction to Gibbs Free Energy=         0.199336
 Sum of electronic and zero-point Energies=           -805.266636
 Sum of electronic and thermal Energies=              -805.252234
 Sum of electronic and thermal Enthalpies=            -805.251290
 Sum of electronic and thermal Free Energies=         -805.310280

                     E (Thermal)             CV                S
                      KCal/Mol        Cal/Mol-Kelvin    Cal/Mol-Kelvin
 Total                  161.510             57.704            124.155
 Electronic               0.000              0.000              0.000
 Translational            0.889              2.981             42.426
 Rotational               0.889              2.981             33.621
 Vibrational            159.732             51.742             48.107
 Vibration     1          0.593              1.986              6.602
 Vibration     2          0.593              1.984              5.853
 Vibration     3          0.595              1.978              4.822
 Vibration     4          0.599              1.965              3.995
 Vibration     5          0.611              1.927              3.002
 Vibration     6          0.624              1.885              2.485
 Vibration     7          0.628              1.870              2.355
 Vibration     8          0.636              1.846              2.171
 Vibration     9          0.667              1.751              1.680
 Vibration    10          0.697              1.660              1.377
 Vibration    11          0.713              1.614              1.256
 Vibration    12          0.772              1.453              0.934
 Vibration    13          0.780              1.435              0.905
 Vibration    14          0.782              1.428              0.894
 Vibration    15          0.807              1.365              0.802
 Vibration    16          0.830              1.309              0.728
 Vibration    17          0.846              1.272              0.683
 Vibration    18          0.879              1.197              0.601
 Vibration    19          0.885              1.184              0.587
 Vibration    20          0.896              1.160              0.564

 Optimization completed.
    -- Stationary point found.
 Normal termination of Gaussian 09 at Wed Sep 29 04:19:47 2021.
 Gaussian 09:  AM64L-G09RevA.02 11-Jun-2009

 ----------------------------------------------------------------------
 #p TD(NStates=10, Root=1) b3lyp/6-31G* volume pop=NPA density=current
 Geom=AllCheck Guess=Read
 ----------------------------------------------------------------------

 O=C(c1ccccc1)Oc1ccc2c(c1)cccc2_conf_0
 -------------------------------------
 Redundant internal coordinates taken from checkpoint file:
 C17H12O2_b410_conf_0.chk
 Charge =  0 Multiplicity = 1

                         Standard orientation:
 ---------------------------------------------------------------------
 Center     Atomic      Atomic             Coordinates (Angstroms)
 Number     Number       Type             X           Y           Z
 ---------------------------------------------------------------------
      1          8           0       -1.414296   -1.631633    0.891237
      2          6           0       -1.700996   -0.617004    0.296127
      3          6           0       -3.085208   -0.102895    0.109270
      4          6           0       -4.132647   -0.840974    0.678753
      5          6           0       -5.448681   -0.410222    0.535517
      6          6           0       -5.726825    0.759184   -0.177478
      7          6           0       -4.686013    1.496964   -0.746574
      8          6           0       -3.366775    1.070311   -0.605380
      9          8           0       -0.776529    0.207792   -0.290531
     10          6           0        0.581068   -0.115506   -0.242848
     11          6           0        1.052557   -1.373938   -0.686986
     12          6           0        2.406626   -1.611450   -0.705505
     13          6           0        3.339449   -0.621128   -0.294331
     14          6           0        2.844608    0.650042    0.145606
     15          6           0        1.442979    0.874358    0.160943
     16          6           0        3.774205    1.644372    0.553192
     17          6           0        5.127941    1.394884    0.528495
     18          6           0        5.617447    0.138664    0.093770
     19          6           0        4.741781   -0.844978   -0.307915
     20          1           0       -3.892943   -1.745873    1.227324
     21          1           0       -6.257686   -0.984394    0.978366
     22          1           0       -6.754279    1.095273   -0.289485
     23          1           0       -4.902528    2.405773   -1.301167
     24          1           0       -2.554874    1.638573   -1.044614
     25          1           0        0.346666   -2.134221   -0.997638
     26          1           0        2.780495   -2.575104   -1.042491
     27          1           0        1.045696    1.830768    0.487904
     28          1           0        3.397328    2.608056    0.887507
     29          1           0        5.827974    2.163832    0.843968
     30          1           0        6.688219   -0.045274    0.079119
     31          1           0        5.113437   -1.810784   -0.642372
 ---------------------------------------------------------------------

 SCF Done:  E(RB3LYP) =  -805.509615801     A.U. after    2 cycles

 Excitation energies and oscillator strengths:

 Excited State   1:      Singlet-A      3.9182 eV  316.43 nm  f=0.0474  <S**2>=0.000
      65 -> 66         0.69217
 This state for optimization and/or second-order correction.
 Total Energy, E(TD-HF/TD-KS) =  -805.365625999
 Copying the excited state density for this state as the 1-particle RhoCI density.

 Excited State   2:      Singlet-A      4.3578 eV  284.51 nm  f=0.0343  <S**2>=0.000
      64 -> 66        -0.35207
      64 -> 67        -0.21238
      64 -> 69        -0.11716
      65 -> 67         0.49178
      65 -> 69        -0.23939

 Excited State   3:      Singlet-A      4.5248 eV  274.01 nm  f=0.0842  <S**2>=0.000
      64 -> 66         0.40178
      64 -> 67         0.20381
      65 -> 67         0.46915
      65 -> 69         0.23459

 Excited State   4:      Singlet-A      4.6430 eV  267.03 nm  f=0.0265  <S**2>=0.000
      61 -> 66         0.11468
      64 -> 66         0.44370
      64 -> 67        -0.41908
      65 -> 69        -0.30608

 Excited State   5:      Singlet-A      4.8390 eV  256.22 nm  f=0.0001  <S**2>=0.000
      60 -> 66         0.26245
      61 -> 66         0.61773
      61 -> 71         0.10442

 Excited State   6:      Singlet-A      4.9407 eV  250.95 nm  f=0.0162  <S**2>=0.000
      62 -> 66         0.21267
      62 -> 68         0.25622
      63 -> 66         0.58770
      63 -> 68        -0.10612
      65 -> 68         0.12139

 Excited State   7:      Singlet-A      5.1719 eV  239.73 nm  f=0.0044  <S**2>=0.000
      65 -> 68         0.66901
      65 -> 69        -0.18103

 Excited State   8:      Singlet-A      5.3950 eV  229.81 nm  f=0.6059  <S**2>=0.000
      62 -> 66         0.60169
      63 -> 66        -0.23214
      63 -> 68        -0.13315
      64 -> 67        -0.14019
      65 -> 69         0.13656

 Excited State   9:      Singlet-A      5.6617 eV  218.99 nm  f=0.0384  <S**2>=0.000
      63 -> 66         0.12070
      63 -> 67         0.67176

 Excited State  10:      Singlet-A      5.7111 eV  217.09 nm  f=0.0077  <S**2>=0.000
      60 -> 66        -0.25543
      60 -> 67        -0.14011
      61 -> 66         0.13298
      61 -> 67         0.28399
      62 -> 67         0.42743
      63 -> 67        -0.11612
      65 -> 70        -0.30939

 The electronic state is 1-A.
 Alpha  occ. eigenvalues --  -19.20231 -19.13984 -10.32313 -10.25339 -10.20948
 Alpha  occ. eigenvalues --  -10.20519 -10.20373 -10.20159 -10.20150 -10.20110
 Alpha  occ. eigenvalues --  -10.20051 -10.19862 -10.19523 -10.19446 -10.19291
 Alpha  occ. eigenvalues --  -10.19222 -10.19177 -10.19133 -10.19094  -1.10893
 Alpha  occ. eigenvalues --   -1.02407  -0.87465  -0.86562  -0.82299  -0.77917
 Alpha  occ. eigenvalues --   -0.77062  -0.75581  -0.74083  -0.72481  -0.66645
 Alpha  occ. eigenvalues --   -0.62821  -0.62150  -0.60862  -0.59877  -0.57455
 Alpha  occ. eigenvalues --   -0.54108  -0.51643  -0.50748  -0.49594  -0.48154
 Alpha  occ. eigenvalues --   -0.46522  -0.45780  -0.45302  -0.44603  -0.44395
 Alpha  occ. eigenvalues --   -0.43141  -0.42950  -0.41775  -0.41474  -0.40029
 Alpha  occ. eigenvalues --   -0.38826  -0.37774  -0.36851  -0.36425  -0.35281
 Alpha  occ. eigenvalues --   -0.34951  -0.33907  -0.32866  -0.30872  -0.28636
 Alpha  occ. eigenvalues --   -0.27716  -0.26315  -0.26088  -0.23880  -0.21467
 Alpha virt. eigenvalues --   -0.05203  -0.03714  -0.00981  -0.00675   0.03196
 Alpha virt. eigenvalues --    0.05496   0.08859   0.09378   0.10199   0.11451
 Alpha virt. eigenvalues --    0.11987   0.13954   0.14765   0.16655   0.16817

 Mulliken atomic charges:
              1
     1  O   -0.557500
     2  C    0.461229
     3  C    0.039881
     4  C   -0.188237
     5  C   -0.140603
     6  C   -0.169277
     7  C   -0.137523
     8  C   -0.201811
     9  O   -0.543256
    10  C    0.421861
    11  C   -0.106937
    12  C   -0.177287
    13  C    0.142687
    14  C    0.122570
    15  C   -0.202693
    16  C   -0.150533
    17  C   -0.123285
    18  C   -0.117299
    19  C   -0.160161
    20  H    0.112116
    21  H    0.089069
    22  H    0.078965
    23  H    0.083740
    24  H    0.083214
    25  H    0.221669
    26  H    0.184220
    27  H    0.204617
    28  H    0.189441
    29  H    0.179121
    30  H    0.179297
    31  H    0.182706
 Sum of Mulliken atomic charges =  -0.00000

 Dipole moment (field-independent basis, Debye):
    X=             19.9113    Y=              1.4544    Z=             -1.5196  Tot=             20.0221
 Quadrupole moment (field-independent basis, Debye-Ang):
   XX=            -94.6303   YY=            -99.4063   ZZ=           -111.2865
   XY=              1.5218   XZ=              1.5467   YZ=              8.1231

 Summary of Natural Population Analysis:

                                       Natural Population
                Natural  -----------------------------------------------
    Atom  No    Charge         Core      Valence    Rydberg      Total
 -----------------------------------------------------------------------
      O    1   -0.67513      1.99979     6.65631    0.01904     8.67513
      C    2    0.68075      1.99930     3.27597    0.04399     5.31925
      C    3   -0.23364      1.99890     4.21728    0.01746     6.23364
      C    4   -0.24210      1.99906     4.22803    0.01501     6.24210
      C    5   -0.24555      1.99910     4.23248    0.01396     6.24555
      C    6   -0.32212      1.99910     4.30751    0.01550     6.32212
      C    7   -0.24564      1.99910     4.23232    0.01422     6.24564
      C    8   -0.26408      1.99906     4.25157    0.01345     6.26408
      O    9   -0.55563      1.99970     6.54534    0.01059     8.55563
      C   10    0.40812      1.99876     3.57015    0.02297     5.59188
      C   11   -0.21632      1.99901     4.20234    0.01497     6.21632
      C   12   -0.09961      1.99907     4.08747    0.01307     6.09961
      C   13   -0.09569      1.99902     4.08295    0.01372     6.09569
      C   14   -0.07873      1.99903     4.06564    0.01405     6.07873
      C   15   -0.13374      1.99895     4.12087    0.01392     6.13374
      C   16   -0.10467      1.99906     4.09244    0.01317     6.10467
      C   17   -0.21072      1.99912     4.19746    0.01414     6.21072
      C   18   -0.19664      1.99911     4.18331    0.01421     6.19664
      C   19   -0.11222      1.99906     4.10003    0.01312     6.11222
      H   20    0.23295      0.00000     0.76577    0.00128     0.76705
      H   21    0.21648      0.00000     0.78271    0.00081     0.78352
      H   22    0.21150      0.00000     0.78779    0.00070     0.78850
      H   23    0.21366      0.00000     0.78553    0.00081     0.78634
      H   24    0.21533      0.00000     0.78387    0.00080     0.78467
      H   25    0.29477      0.00000     0.70436    0.00087     0.70523
      H   26    0.25453      0.00000     0.74465    0.00082     0.74547
      H   27    0.27213      0.00000     0.72684    0.00103     0.72787
      H   28    0.25782      0.00000     0.74147    0.00071     0.74218
      H   29    0.26024      0.00000     0.73924    0.00052     0.73976
      H   30    0.25910      0.00000     0.74037    0.00053     0.74090
      H   31    0.25482      0.00000     0.74437    0.00080     0.74518
 =======================================================================
   * Total *   -0.00000     37.98332    91.69644    0.32025   130.00000

 Normal termination of Gaussian 09 at Wed Sep 29 10:18:27 2021.
