 Gaussian 09, Revision A.02,

 -----------------------------------
 #p opt b3lyp/6-31G* scf=(xqc,tight)
 -----------------------------------

 ------------------------------------
 COc1ccc2c(c1)ccc(c2)Oc1ccccc1_conf_0
 ------------------------------------
 Symbolic Z-matrix:
 Charge =  0 Multiplicity = 1

 SCF Done:  E(RB3LYP) =  -806.671896357     A.U. after   14 cycles
 SCF Done:  E(RB3LYP) =  -806.677957369     A.U. after   13 cycles
 SCF Done:  E(RB3LYP) =  -806.679230771     A.U. after   13 cycles
 SCF Done:  E(RB3LYP) =  -806.679599167     A.U. after   12 cycles
 SCF Done:  E(RB3LYP) =  -806.679819622     A.U. after   12 cycles
 SCF Done:  E(RB3LYP) =  -806.679904624     A.U. after   11 cycles
 SCF Done:  E(RB3LYP) =  -806.679913711     A.U. after    9 cycles
 SCF Done:  E(RB3LYP) =  -806.679917013     A.U. after    9 cycles
 SCF Done:  E(RB3LYP) =  -806.679918957     A.U. after    9 cycles
 SCF Done:  E(RB3LYP) =  -806.679922593     A.U. after   10 cycles
 SCF Done:  E(RB3LYP) =  -806.679930828     A.U. after   11 cycles
 SCF Done:  E(RB3LYP) =  -806.679935475     A.U. after   10 cycles
 SCF Done:  E(RB3LYP) =  -806.679935844     A.U. after    8 cycles
 SCF Done:  E(RB3LYP) =  -806.679935801     A.U. after    7 cycles
 SCF Done:  E(RB3LYP) =  -806.679935847     A.U. after    7 cycles
 Optimization completed.
    -- Stationary point found.
 Normal termination of Gaussian 09 at Wed Sep 29 01:59:48 2021.

 ----------------------------------------------------------------------
 #p freq b3lyp/6-31G* volume NMR pop=NPA density=current Geom=AllCheck
 Guess=Read
 ----------------------------------------------------------------------

 COc1ccc2c(c1)ccc(c2)Oc1ccccc1_conf_0
 ------------------------------------
 Redundant internal coordinates taken from checkpoint file:
 C17H14O2_d9db_conf_0.chk
 Charge =  0 Multiplicity = 1

 SCF Done:  E(RB3LYP) =  -806.679935847     A.U. after    1 cycles

  1  C    Isotropic =   137.3817   Anisotropy =    65.4731

  2  O    Isotropic =   236.9518   Anisotropy =    78.4546

  3  C    Isotropic =    41.2195   Anisotropy =   121.2762

  4  C    Isotropic =    75.9685   Anisotropy =   135.8459

  5  C    Isotropic =    67.3824   Anisotropy =   141.0819

  6  C    Isotropic =    66.9516   Anisotropy =   186.6475

  7  C    Isotropic =    65.8682   Anisotropy =   189.2083

  8  C    Isotropic =    89.8131   Anisotropy =   118.9807

  9  C    Isotropic =    67.4014   Anisotropy =   140.6083

 10  C    Isotropic =    75.5591   Anisotropy =   138.8243

 11  C    Isotropic =    41.9418   Anisotropy =   112.5870

 12  C    Isotropic =    83.5914   Anisotropy =   125.6648

 13  O    Isotropic =   177.4406   Anisotropy =    89.0359

 14  C    Isotropic =    40.2968   Anisotropy =   119.0837

 15  C    Isotropic =    74.8162   Anisotropy =   142.8076

 16  C    Isotropic =    66.4673   Anisotropy =   165.7758

 17  C    Isotropic =    73.3726   Anisotropy =   161.5824

 18  C    Isotropic =    67.0910   Anisotropy =   164.9647

 19  C    Isotropic =    77.0911   Anisotropy =   151.5444

 20  H    Isotropic =    28.2196   Anisotropy =     8.3288

 21  H    Isotropic =    28.5271   Anisotropy =     8.0310

 22  H    Isotropic =    28.5276   Anisotropy =     7.9573

 23  H    Isotropic =    25.2833   Anisotropy =     6.3101

 24  H    Isotropic =    24.9276   Anisotropy =     8.1273

 25  H    Isotropic =    25.6741   Anisotropy =     9.1956

 26  H    Isotropic =    24.7110   Anisotropy =     7.1529

 27  H    Isotropic =    25.0422   Anisotropy =     6.4159

 28  H    Isotropic =    25.4541   Anisotropy =    11.7575

 29  H    Isotropic =    25.1804   Anisotropy =     6.5937

 30  H    Isotropic =    24.8789   Anisotropy =     4.2560

 31  H    Isotropic =    25.2031   Anisotropy =     3.4235

 32  H    Isotropic =    24.9836   Anisotropy =     5.1266

 33  H    Isotropic =    25.2813   Anisotropy =     9.5092

  Exact polarizability: 296.528  -3.552 169.305 -15.783   0.395 104.937
 Approx polarizability: 407.827   9.102 313.308 -30.603   2.406 175.409

                     1                      2                      3
                     A                      A                      A
 Frequencies --    17.4455                33.1776                51.2002
 Red. masses --     4.5041                 4.0776                 4.8264
 Frc consts  --     0.0008                 0.0026                 0.0075
 IR Inten    --     1.1401                 0.4555                 0.1023

                     4                      5                      6
                     A                      A                      A
 Frequencies --    75.8818               119.2963               163.2244
 Red. masses --     4.0273                 4.6496                 4.2819
 Frc consts  --     0.0137                 0.0390                 0.0672
 IR Inten    --     1.7753                 2.8514                 1.0609

                     7                      8                      9
                     A                      A                      A
 Frequencies --   186.0610               207.6712               215.5175
 Red. masses --     3.1006                 3.7780                 2.7797
 Frc consts  --     0.0632                 0.0960                 0.0761
 IR Inten    --     1.3415                 1.6770                 1.1323

                    10                     11                     12
                     A                      A                      A
 Frequencies --   263.7202               295.0678               325.9119
 Red. masses --     1.5284                 4.6539                 5.9223
 Frc consts  --     0.0626                 0.2387                 0.3706
 IR Inten    --     0.4350                 0.2738                 0.8799

                    13                     14                     15
                     A                      A                      A
 Frequencies --   380.9908               410.9412               413.7031
 Red. masses --     5.3860                 3.3901                 5.2625
 Frc consts  --     0.4606                 0.3373                 0.5307
 IR Inten    --     0.1434                 1.1794                11.7284

                    16                     17                     18
                     A                      A                      A
 Frequencies --   423.7415               454.3642               486.5534
 Red. masses --     3.0977                 5.6126                 2.6681
 Frc consts  --     0.3277                 0.6827                 0.3722
 IR Inten    --     0.3589                 1.8668                 7.9283

                    19                     20                     21
                     A                      A                      A
 Frequencies --   492.1996               524.6995               531.2996
 Red. masses --     3.9327                 3.9198                 6.1734
 Frc consts  --     0.5613                 0.6358                 1.0267
 IR Inten    --    10.3412                 6.1128                 4.6245

                    22                     23                     24
                     A                      A                      A
 Frequencies --   572.3730               602.5358               623.4200
 Red. masses --     3.3070                 6.2198                 4.9279
 Frc consts  --     0.6383                 1.3304                 1.1284
 IR Inten    --     3.1725                 8.4140                 3.0649

                    25                     26                     27
                     A                      A                      A
 Frequencies --   636.7255               670.5776               688.0935
 Red. masses --     5.7858                 4.1929                 6.2221
 Frc consts  --     1.3820                 1.1109                 1.7357
 IR Inten    --     3.1562                 4.7427                 3.0229

                    28                     29                     30
                     A                      A                      A
 Frequencies --   706.7542               754.8770               760.1494
 Red. masses --     2.2005                 3.2806                 3.2444
 Frc consts  --     0.6476                 1.1014                 1.1045
 IR Inten    --    13.0700                 0.7496                15.8940

                    31                     32                     33
                     A                      A                      A
 Frequencies --   782.8584               817.3794               826.6371
 Red. masses --     2.1591                 1.3639                 1.6696
 Frc consts  --     0.7796                 0.5369                 0.6722
 IR Inten    --    29.2729                 8.5989                10.7183

                    34                     35                     36
                     A                      A                      A
 Frequencies --   840.2400               844.1374               867.9146
 Red. masses --     2.8094                 1.4111                 1.6557
 Frc consts  --     1.1686                 0.5924                 0.7348
 IR Inten    --     7.6844                 1.7025                31.1834

                    37                     38                     39
                     A                      A                      A
 Frequencies --   881.7992               890.0297               916.1564
 Red. masses --     2.5647                 2.0990                 1.4840
 Frc consts  --     1.1750                 0.9796                 0.7339
 IR Inten    --    13.3032                28.7802                 2.8306

                    40                     41                     42
                     A                      A                      A
 Frequencies --   958.5678               962.8318               964.5801
 Red. masses --     1.2781                 1.3281                 1.2824
 Frc consts  --     0.6919                 0.7254                 0.7030
 IR Inten    --     0.2124                 0.1167                 0.2060

                    43                     44                     45
                     A                      A                      A
 Frequencies --   966.8658               986.7931               992.7394
 Red. masses --     4.5047                 1.2545                 3.1786
 Frc consts  --     2.4811                 0.7197                 1.8457
 IR Inten    --    41.1776                 0.1443                23.8824

                    46                     47                     48
                     A                      A                      A
 Frequencies --  1019.1001              1052.0177              1075.3119
 Red. masses --     6.1053                 2.0545                 4.3903
 Frc consts  --     3.7359                 1.3397                 2.9910
 IR Inten    --     0.7434                 6.0869                49.0822

                    49                     50                     51
                     A                      A                      A
 Frequencies --  1106.3911              1144.1539              1171.5516
 Red. masses --     1.4854                 1.5787                 1.2118
 Frc consts  --     1.0713                 1.2176                 0.9800
 IR Inten    --     5.7505                62.8338                 0.4318

                    52                     53                     54
                     A                      A                      A
 Frequencies --  1185.5905              1188.6131              1191.1708
 Red. masses --     1.2732                 1.2792                 1.2469
 Frc consts  --     1.0544                 1.0648                 1.0424
 IR Inten    --     0.9229                 1.2839                 1.5953

                    55                     56                     57
                     A                      A                      A
 Frequencies --  1198.6547              1209.6730              1233.3137
 Red. masses --     1.2512                 1.5848                 1.7946
 Frc consts  --     1.0591                 1.3664                 1.6083
 IR Inten    --    45.3894                16.9948                40.7736

                    58                     59                     60
                     A                      A                      A
 Frequencies --  1256.8936              1280.2201              1297.9152
 Red. masses --     2.5480                 7.2003                 1.9006
 Frc consts  --     2.3716                 6.9530                 1.8864
 IR Inten    --    13.7521               873.8682                 5.7825

                    61                     62                     63
                     A                      A                      A
 Frequencies --  1305.7480              1337.9705              1363.3580
 Red. masses --     2.3188                 2.0115                 2.6713
 Frc consts  --     2.3293                 2.1216                 2.9254
 IR Inten    --     6.2462                 3.6981                 5.7632

                    64                     65                     66
                     A                      A                      A
 Frequencies --  1377.4921              1418.4703              1437.3541
 Red. masses --     1.9029                 5.8161                 3.9926
 Frc consts  --     2.1273                 6.8948                 4.8599
 IR Inten    --     6.5480                10.4032               217.2393

                    67                     68                     69
                     A                      A                      A
 Frequencies --  1464.0102              1495.1761              1502.9218
 Red. masses --     4.2952                 1.2651                 2.2929
 Frc consts  --     5.4241                 1.6664                 3.0515
 IR Inten    --     3.2146                 1.6511                 2.2016

                    70                     71                     72
                     A                      A                      A
 Frequencies --  1518.1992              1533.2165              1534.9555
 Red. masses --     1.0483                 1.3746                 1.6634
 Frc consts  --     1.4236                 1.9039                 2.3091
 IR Inten    --     5.5760                10.3759               129.3742

                    73                     74                     75
                     A                      A                      A
 Frequencies --  1541.5701              1562.0369              1631.5618
 Red. masses --     2.1638                 3.5924                 7.4046
 Frc consts  --     3.0296                 5.1644                11.6134
 IR Inten    --    81.0417                58.2076                 7.2844

                    76                     77                     78
                     A                      A                      A
 Frequencies --  1647.8713              1655.8658              1666.8208
 Red. masses --     5.8578                 5.9566                 5.6941
 Frc consts  --     9.3719                 9.6227                 9.3208
 IR Inten    --    44.4666               178.6332                93.3290

                    79                     80                     81
                     A                      A                      A
 Frequencies --  1688.3809              3023.9911              3082.2582
 Red. masses --     6.1742                 1.0348                 1.1066
 Frc consts  --    10.3698                 5.5751                 6.1941
 IR Inten    --    11.7751                57.5940                43.6572

                    82                     83                     84
                     A                      A                      A
 Frequencies --  3157.6330              3184.1293              3185.7507
 Red. masses --     1.0997                 1.0887                 1.0853
 Frc consts  --     6.4602                 6.5033                 6.4894
 IR Inten    --    31.5969                13.7157                 1.2060

                    85                     86                     87
                     A                      A                      A
 Frequencies --  3186.0493              3194.2361              3208.3788
 Red. masses --     1.0884                 1.0894                 1.0932
 Frc consts  --     6.5096                 6.5487                 6.6299
 IR Inten    --     7.8837                13.7756                38.2106

                    88                     89                     90
                     A                      A                      A
 Frequencies --  3210.5244              3214.0462              3216.1191
 Red. masses --     1.0905                 1.0896                 1.0938
 Frc consts  --     6.6225                 6.6315                 6.6657
 IR Inten    --     7.6578                12.8351                12.0150

                    91                     92                     93
                     A                      A                      A
 Frequencies --  3217.2676              3218.4329              3220.5372
 Red. masses --     1.0935                 1.0937                 1.0955
 Frc consts  --     6.6688                 6.6745                 6.6946
 IR Inten    --     8.0535                12.8831                 0.5696

 - Thermochemistry -
 -------------------
 Temperature   298.150 Kelvin.  Pressure   1.00000 Atm.
 Atom     1 has atomic number  6 and mass  12.00000

 Molecular mass:   250.09938 amu.
 Principal axes and moments of inertia in atomic units:
                           1         2         3
     Eigenvalues --  1558.56693********************
           X            0.99996  -0.00838  -0.00260
           Y            0.00839   0.99996   0.00381
           Z            0.00256  -0.00383   0.99999
 This molecule is an asymmetric top.
 Rotational symmetry number  1.
 Warning -- assumption of classical behavior for rotation
           may cause significant error
 Rotational temperatures (Kelvin)      0.05557     0.00758     0.00699
 Rotational constants (GHZ):           1.15795     0.15785     0.14572
 Zero-point vibrational energy     696230.3 (Joules/Mol)
                                  166.40302 (Kcal/Mol)
 Warning -- explicit consideration of  23 degrees of freedom as
           vibrations may cause significant error
 Vibrational temperatures:     25.10    47.74    73.67   109.18   171.64
          (Kelvin)            234.84   267.70   298.79   310.08   379.43
                              424.54   468.91   548.16   591.25   595.23
                              609.67   653.73   700.04   708.16   754.92
                              764.42   823.52   866.91   896.96   916.10
                              964.81   990.01  1016.86  1086.10  1093.68
                             1126.36  1176.03  1189.34  1208.92  1214.52
                             1248.73  1268.71  1280.55  1318.14  1379.16
                             1385.30  1387.81  1391.10  1419.77  1428.33
                             1466.26  1513.62  1547.13  1591.85  1646.18
                             1685.60  1705.80  1710.15  1713.83  1724.59
                             1740.45  1774.46  1808.39  1841.95  1867.41
                             1878.68  1925.04  1961.57  1981.90  2040.86
                             2068.03  2106.38  2151.22  2162.37  2184.35
                             2205.95  2208.46  2217.97  2247.42  2347.45
                             2370.92  2382.42  2398.18  2429.20  4350.84
                             4434.68  4543.12  4581.25  4583.58  4584.01
                             4595.79  4616.14  4619.22  4624.29  4627.27
                             4628.92  4630.60  4633.63

 Zero-point correction=                           0.265180 (Hartree/Particle)
 Thermal correction to Energy=                    0.280401
 Thermal correction to Enthalpy=                  0.281345
 Thermal correction to Gibbs Free Energy=         0.220889
 Sum of electronic and zero-point Energies=           -806.414756
 Sum of electronic and thermal Energies=              -806.399535
 Sum of electronic and thermal Enthalpies=            -806.398590
 Sum of electronic and thermal Free Energies=         -806.459047

                     E (Thermal)             CV                S
                      KCal/Mol        Cal/Mol-Kelvin    Cal/Mol-Kelvin
 Total                  175.954             60.896            127.241
 Electronic               0.000              0.000              0.000
 Translational            0.889              2.981             42.451
 Rotational               0.889              2.981             33.756
 Vibrational            174.177             54.935             51.035
 Vibration     1          0.593              1.986              6.906
 Vibration     2          0.594              1.983              5.630
 Vibration     3          0.595              1.977              4.770
 Vibration     4          0.599              1.965              3.995
 Vibration     5          0.609              1.933              3.112
 Vibration     6          0.623              1.888              2.512
 Vibration     7          0.632              1.859              2.267
 Vibration     8          0.641              1.829              2.064
 Vibration     9          0.645              1.817              1.996
 Vibration    10          0.670              1.739              1.637
 Vibration    11          0.689              1.683              1.445
 Vibration    12          0.710              1.624              1.280
 Vibration    13          0.751              1.511              1.035
 Vibration    14          0.775              1.446              0.923
 Vibration    15          0.777              1.440              0.914
 Vibration    16          0.786              1.419              0.879
 Vibration    17          0.813              1.351              0.783
 Vibration    18          0.843              1.280              0.693
 Vibration    19          0.848              1.267              0.678
 Vibration    20          0.880              1.195              0.599
 Vibration    21          0.886              1.181              0.584
 Vibration    22          0.929              1.091              0.500
 Vibration    23          0.961              1.026              0.445

 Optimization completed.
    -- Stationary point found.
 Normal termination of Gaussian 09 at Wed Sep 29 03:15:15 2021.
 Gaussian 09:  AM64L-G09RevA.02 11-Jun-2009

 ----------------------------------------------------------------------
 #p TD(NStates=10, Root=1) b3lyp/6-31G* volume pop=NPA density=current
 Geom=AllCheck Guess=Read
 ----------------------------------------------------------------------

 COc1ccc2c(c1)ccc(c2)Oc1ccccc1_conf_0
 ------------------------------------
 Redundant internal coordinates taken from checkpoint file:
 C17H14O2_d9db_conf_0.chk
 Charge =  0 Multiplicity = 1

                         Standard orientation:
 ---------------------------------------------------------------------
 Center     Atomic      Atomic             Coordinates (Angstroms)
 Number     Number       Type             X           Y           Z
 ---------------------------------------------------------------------
      1          6           0       -6.082024    0.042065    0.316346
      2          8           0       -5.173258   -0.993742   -0.017568
      3          6           0       -3.844836   -0.683280   -0.080797
      4          6           0       -2.999025   -1.774039   -0.423646
      5          6           0       -1.642543   -1.598546   -0.520129
      6          6           0       -1.044486   -0.328524   -0.282440
      7          6           0       -1.899254    0.766922    0.059286
      8          6           0       -3.303926    0.564241    0.156752
      9          6           0       -1.303244    2.035822    0.290544
     10          6           0        0.057357    2.212637    0.196484
     11          6           0        0.892746    1.120977   -0.141567
     12          6           0        0.355860   -0.125628   -0.383763
     13          8           0        2.234608    1.424319   -0.270856
     14          6           0        3.203565    0.461364   -0.055715
     15          6           0        4.242933    0.387670   -0.984122
     16          6           0        5.294817   -0.503588   -0.769219
     17          6           0        5.306853   -1.322774    0.361133
     18          6           0        4.261109   -1.239529    1.283854
     19          6           0        3.207933   -0.346948    1.085238
     20          1           0       -7.074029   -0.413338    0.308477
     21          1           0       -6.049807    0.857698   -0.418408
     22          1           0       -5.877098    0.450837    1.314956
     23          1           0       -3.461061   -2.739776   -0.603661
     24          1           0       -1.004179   -2.438555   -0.782938
     25          1           0       -3.929925    1.410420    0.418636
     26          1           0       -1.940953    2.877397    0.550362
     27          1           0        0.518035    3.179297    0.374262
     28          1           0        0.996960   -0.958713   -0.654066
     29          1           0        4.214160    1.032904   -1.856495
     30          1           0        6.104383   -0.558753   -1.492075
     31          1           0        6.125107   -2.018336    0.524048
     32          1           0        4.266440   -1.867132    2.171127
     33          1           0        2.398164   -0.271621    1.803742
 ---------------------------------------------------------------------

 SCF Done:  E(RB3LYP) =  -806.679935847     A.U. after    1 cycles

 Excitation energies and oscillator strengths:

 Excited State   1:      Singlet-A      3.9206 eV  316.24 nm  f=0.0460  <S**2>=0.000
      65 -> 68         0.10070
      65 -> 70        -0.10334
      66 -> 67         0.67002
 This state for optimization and/or second-order correction.
 Total Energy, E(TD-HF/TD-KS) =  -806.535857089
 Copying the excited state density for this state as the 1-particle RhoCI density.

 Excited State   2:      Singlet-A      4.5333 eV  273.50 nm  f=0.0370  <S**2>=0.000
      64 -> 67        -0.11354
      65 -> 67         0.42172
      66 -> 67         0.14168
      66 -> 68        -0.32811
      66 -> 69        -0.39907
      66 -> 70         0.11900

 Excited State   3:      Singlet-A      4.6704 eV  265.47 nm  f=0.0154  <S**2>=0.000
      66 -> 68         0.52152
      66 -> 69        -0.45138

 Excited State   4:      Singlet-A      4.8835 eV  253.88 nm  f=0.2357  <S**2>=0.000
      64 -> 67         0.19663
      65 -> 67         0.38202
      66 -> 68         0.25561
      66 -> 69         0.27251
      66 -> 70         0.40265

 Excited State   5:      Singlet-A      4.8996 eV  253.05 nm  f=0.0050  <S**2>=0.000
      64 -> 67         0.62767
      66 -> 69        -0.14684
      66 -> 70        -0.24559

 Excited State   6:      Singlet-A      5.3896 eV  230.04 nm  f=0.0880  <S**2>=0.000
      63 -> 67         0.41843
      63 -> 68        -0.12185
      63 -> 69        -0.18626
      63 -> 70        -0.14697
      64 -> 68         0.28734
      64 -> 69        -0.21593
      65 -> 68         0.16060
      65 -> 69        -0.22380
      66 -> 68         0.13067

 Excited State   7:      Singlet-A      5.4604 eV  227.06 nm  f=0.6959  <S**2>=0.000
      64 -> 67         0.11820
      64 -> 68         0.26159
      64 -> 69         0.11619
      65 -> 67        -0.27034
      65 -> 68         0.18331
      65 -> 69         0.24470
      66 -> 68        -0.11254
      66 -> 69        -0.14184
      66 -> 70         0.41803

 Excited State   8:      Singlet-A      5.5028 eV  225.31 nm  f=0.0054  <S**2>=0.000
      62 -> 67        -0.10032
      63 -> 67         0.52530
      63 -> 69         0.14842
      63 -> 70         0.12287
      64 -> 68        -0.18850
      64 -> 69         0.13253
      65 -> 68        -0.18625
      65 -> 69         0.24786
      66 -> 71        -0.11373

 Excited State   9:      Singlet-A      5.5880 eV  221.88 nm  f=0.0081  <S**2>=0.000
      62 -> 67         0.32116
      63 -> 67         0.13439
      65 -> 68        -0.20724
      66 -> 71         0.55552

 Excited State  10:      Singlet-A      5.6259 eV  220.38 nm  f=0.0069  <S**2>=0.000
      63 -> 67         0.11308
      63 -> 69         0.10714
      64 -> 68        -0.24925
      64 -> 69         0.24774
      65 -> 68         0.50254
      65 -> 69        -0.22560
      66 -> 71         0.13993

 The electronic state is 1-A.
 Alpha  occ. eigenvalues --  -19.18392 -19.17812 -10.24851 -10.24695 -10.24578
 Alpha  occ. eigenvalues --  -10.24109 -10.19600 -10.19509 -10.19359 -10.19305
 Alpha  occ. eigenvalues --  -10.19084 -10.19051 -10.19044 -10.18862 -10.18854
 Alpha  occ. eigenvalues --  -10.18807 -10.18733 -10.18545 -10.18440  -1.07249
 Alpha  occ. eigenvalues --   -1.06375  -0.87001  -0.85210  -0.81696  -0.77076
 Alpha  occ. eigenvalues --   -0.75905  -0.74784  -0.73387  -0.71966  -0.69424
 Alpha  occ. eigenvalues --   -0.63549  -0.62073  -0.61014  -0.59596  -0.58115
 Alpha  occ. eigenvalues --   -0.54549  -0.52705  -0.51259  -0.50317  -0.48074
 Alpha  occ. eigenvalues --   -0.46844  -0.46813  -0.46467  -0.44817  -0.44334
 Alpha  occ. eigenvalues --   -0.43890  -0.42413  -0.42164  -0.40973  -0.40015
 Alpha  occ. eigenvalues --   -0.39652  -0.38131  -0.37666  -0.36656  -0.36293
 Alpha  occ. eigenvalues --   -0.35258  -0.34599  -0.33857  -0.32969  -0.32293
 Alpha  occ. eigenvalues --   -0.29249  -0.27099  -0.25233  -0.23530  -0.22619
 Alpha  occ. eigenvalues --   -0.19541
 Alpha virt. eigenvalues --   -0.03255  -0.00302  -0.00145   0.01159   0.03667
 Alpha virt. eigenvalues --    0.08923   0.09570   0.10385   0.11168   0.12020
 Alpha virt. eigenvalues --    0.12655   0.14315   0.14710   0.15397   0.15546

 Mulliken atomic charges:
              1
     1  C   -0.221796
     2  O   -0.477088
     3  C    0.381291
     4  C   -0.197994
     5  C   -0.213709
     6  C    0.142076
     7  C    0.149672
     8  C   -0.281853
     9  C   -0.224426
    10  C   -0.197846
    11  C    0.350493
    12  C   -0.271000
    13  O   -0.542118
    14  C    0.341351
    15  C   -0.164194
    16  C   -0.139516
    17  C   -0.121235
    18  C   -0.139692
    19  C   -0.154923
    20  H    0.174570
    21  H    0.163398
    22  H    0.162919
    23  H    0.122203
    24  H    0.118941
    25  H    0.127304
    26  H    0.116023
    27  H    0.124009
    28  H    0.141497
    29  H    0.150612
    30  H    0.140589
    31  H    0.137722
    32  H    0.141943
    33  H    0.160774
 Sum of Mulliken atomic charges =  -0.00000

 Dipole moment (field-independent basis, Debye):
    X=              0.2244    Y=             -0.0997    Z=              0.7018  Tot=              0.7435
 Quadrupole moment (field-independent basis, Debye-Ang):
   XX=            -79.1255   YY=           -108.1341   ZZ=           -108.7110
   XY=            -11.9812   XZ=             -4.6924   YZ=             -0.6621

 Summary of Natural Population Analysis:

                                       Natural Population
                Natural  -----------------------------------------------
    Atom  No    Charge         Core      Valence    Rydberg      Total
 -----------------------------------------------------------------------
      C    1   -0.32228      1.99943     4.30873    0.01412     6.32228
      O    2   -0.47303      1.99975     6.46153    0.01176     8.47303
      C    3    0.36472      1.99879     3.61392    0.02258     5.63528
      C    4   -0.33785      1.99905     4.32184    0.01696     6.33785
      C    5   -0.22991      1.99907     4.21579    0.01505     6.22991
      C    6   -0.04862      1.99903     4.03423    0.01537     6.04862
      C    7   -0.03761      1.99903     4.02316    0.01542     6.03761
      C    8   -0.31058      1.99898     4.29869    0.01290     6.31058
      C    9   -0.23894      1.99907     4.22451    0.01536     6.23894
      C   10   -0.33310      1.99904     4.31719    0.01687     6.33310
      C   11    0.34514      1.99872     3.63388    0.02226     5.65486
      C   12   -0.30409      1.99897     4.29100    0.01412     6.30409
      O   13   -0.45407      1.99970     6.44258    0.01179     8.45407
      C   14    0.29976      1.99873     3.67964    0.02187     5.70024
      C   15   -0.25874      1.99900     4.24595    0.01379     6.25874
      C   16   -0.22626      1.99911     4.21336    0.01379     6.22626
      C   17   -0.23404      1.99909     4.22140    0.01355     6.23404
      C   18   -0.22558      1.99911     4.21245    0.01402     6.22558
      C   19   -0.27406      1.99900     4.26188    0.01318     6.27406
      H   20    0.23041      0.00000     0.76907    0.00053     0.76959
      H   21    0.21034      0.00000     0.78791    0.00175     0.78966
      H   22    0.21007      0.00000     0.78818    0.00175     0.78993
      H   23    0.24037      0.00000     0.75856    0.00108     0.75963
      H   24    0.22997      0.00000     0.76898    0.00104     0.77003
      H   25    0.23181      0.00000     0.76703    0.00116     0.76819
      H   26    0.22836      0.00000     0.77058    0.00106     0.77164
      H   27    0.24122      0.00000     0.75770    0.00108     0.75878
      H   28    0.24274      0.00000     0.75614    0.00112     0.75726
      H   29    0.25198      0.00000     0.74688    0.00114     0.74802
      H   30    0.24206      0.00000     0.75715    0.00079     0.75794
      H   31    0.24058      0.00000     0.75864    0.00078     0.75942
      H   32    0.24286      0.00000     0.75633    0.00081     0.75714
      H   33    0.25636      0.00000     0.74280    0.00084     0.74364
 =======================================================================
   * Total *    0.00000     37.98266    93.70767    0.30967   132.00000

 Normal termination of Gaussian 09 at Wed Sep 29 08:56:46 2021.
