 Gaussian 09, Revision A.02,

 -----------------------------------
 #p opt b3lyp/6-31G* scf=(xqc,tight)
 -----------------------------------

 -----------------------------------
 COc1ccc2c(c1)ccc(c2)c1ccccc1_conf_0
 -----------------------------------
 Symbolic Z-matrix:
 Charge =  0 Multiplicity = 1

 SCF Done:  E(RB3LYP) =  -731.466711418     A.U. after   14 cycles
 SCF Done:  E(RB3LYP) =  -731.471247613     A.U. after   12 cycles
 SCF Done:  E(RB3LYP) =  -731.471573098     A.U. after   11 cycles
 SCF Done:  E(RB3LYP) =  -731.471595004     A.U. after    9 cycles
 SCF Done:  E(RB3LYP) =  -731.471597546     A.U. after    8 cycles
 SCF Done:  E(RB3LYP) =  -731.471597801     A.U. after    7 cycles
 SCF Done:  E(RB3LYP) =  -731.471597909     A.U. after    7 cycles
 SCF Done:  E(RB3LYP) =  -731.471597999     A.U. after    7 cycles
 SCF Done:  E(RB3LYP) =  -731.471598038     A.U. after    7 cycles
 Optimization completed.
    -- Stationary point found.
 Normal termination of Gaussian 09 at Tue Sep 28 17:47:41 2021.

 ----------------------------------------------------------------------
 #p freq b3lyp/6-31G* volume NMR pop=NPA density=current Geom=AllCheck
 Guess=Read
 ----------------------------------------------------------------------

 COc1ccc2c(c1)ccc(c2)c1ccccc1_conf_0
 -----------------------------------
 Redundant internal coordinates taken from checkpoint file:
 C17H14O_ba44_conf_0.chk
 Charge =  0 Multiplicity = 1

 SCF Done:  E(RB3LYP) =  -731.471598038     A.U. after    1 cycles

  1  C    Isotropic =   137.3410   Anisotropy =    65.2231

  2  O    Isotropic =   239.5893   Anisotropy =    71.7769

  3  C    Isotropic =    40.9869   Anisotropy =   122.3412

  4  C    Isotropic =    84.4687   Anisotropy =   144.7950

  5  C    Isotropic =    65.6809   Anisotropy =   144.2624

  6  C    Isotropic =    67.6151   Anisotropy =   189.4439

  7  C    Isotropic =    62.9206   Anisotropy =   193.8275

  8  C    Isotropic =    82.3429   Anisotropy =   112.8079

  9  C    Isotropic =    68.0982   Anisotropy =   140.8981

 10  C    Isotropic =    69.1645   Anisotropy =   150.1798

 11  C    Isotropic =    58.3791   Anisotropy =   166.3646

 12  C    Isotropic =    68.8320   Anisotropy =   133.7114

 13  C    Isotropic =    53.6808   Anisotropy =   176.7205

 14  C    Isotropic =    68.6205   Anisotropy =   153.2852

 15  C    Isotropic =    67.7490   Anisotropy =   164.2850

 16  C    Isotropic =    69.9020   Anisotropy =   164.3741

 17  C    Isotropic =    67.7851   Anisotropy =   164.3956

 18  C    Isotropic =    68.5709   Anisotropy =   155.0310

 19  H    Isotropic =    28.1969   Anisotropy =     8.2960

 20  H    Isotropic =    28.4865   Anisotropy =     8.3429

 21  H    Isotropic =    28.4931   Anisotropy =     8.2912

 22  H    Isotropic =    25.3457   Anisotropy =     8.0447

 23  H    Isotropic =    24.5250   Anisotropy =     7.8952

 24  H    Isotropic =    25.1773   Anisotropy =     8.0500

 25  H    Isotropic =    24.6267   Anisotropy =     7.5084

 26  H    Isotropic =    24.6876   Anisotropy =     8.7071

 27  H    Isotropic =    24.5540   Anisotropy =    10.4401

 28  H    Isotropic =    24.7028   Anisotropy =     9.0259

 29  H    Isotropic =    24.8712   Anisotropy =     5.0739

 30  H    Isotropic =    25.0198   Anisotropy =     4.1642

 31  H    Isotropic =    24.8712   Anisotropy =     4.9530

 32  H    Isotropic =    24.7747   Anisotropy =     8.9445

  Exact polarizability: 343.980  -7.511 170.487  -1.715   4.292  76.385
 Approx polarizability: 482.444 -15.608 316.238  -4.193   7.297 123.012

                     1                      2                      3
                     A                      A                      A
 Frequencies --    39.4934                57.4307                75.2497
 Red. masses --     4.4229                 3.7998                 3.6814
 Frc consts  --     0.0041                 0.0074                 0.0123
 IR Inten    --     0.7516                 0.1153                 2.2962

                     4                      5                      6
                     A                      A                      A
 Frequencies --    83.2763               141.4309               189.1562
 Red. masses --     4.6432                 4.8328                 3.1302
 Frc consts  --     0.0190                 0.0570                 0.0660
 IR Inten    --     0.5751                 1.7677                 0.3050

                     7                      8                      9
                     A                      A                      A
 Frequencies --   199.5759               235.9948               242.7101
 Red. masses --     3.9565                 2.2253                 3.7074
 Frc consts  --     0.0928                 0.0730                 0.1287
 IR Inten    --     1.1448                 0.4025                 0.0964

                    10                     11                     12
                     A                      A                      A
 Frequencies --   270.3297               313.6003               376.8551
 Red. masses --     2.0479                 3.9327                 4.4348
 Frc consts  --     0.0882                 0.2279                 0.3711
 IR Inten    --     1.0483                 1.0570                 0.0916

                    13                     14                     15
                     A                      A                      A
 Frequencies --   415.1704               416.8278               422.0912
 Red. masses --     3.3809                 4.2750                 3.5904
 Frc consts  --     0.3434                 0.4376                 0.3769
 IR Inten    --     0.6603                 0.0659                 0.1075

                    16                     17                     18
                     A                      A                      A
 Frequencies --   455.6771               487.3334               526.6575
 Red. masses --     4.6771                 2.6555                 4.2643
 Frc consts  --     0.5722                 0.3716                 0.6969
 IR Inten    --     0.6493                 6.9280                 2.8919

                    19                     20                     21
                     A                      A                      A
 Frequencies --   535.0245               567.2873               595.2042
 Red. masses --     5.1447                 4.8147                 2.8698
 Frc consts  --     0.8677                 0.9129                 0.5990
 IR Inten    --     2.5515                28.1442                 0.5488

                    22                     23                     24
                     A                      A                      A
 Frequencies --   630.5358               637.0148               678.9729
 Red. masses --     6.7541                 6.3562                 3.8506
 Frc consts  --     1.5821                 1.5197                 1.0459
 IR Inten    --     0.0601                 0.0602                 0.6385

                    25                     26                     27
                     A                      A                      A
 Frequencies --   697.3435               715.1720               756.1889
 Red. masses --     6.1786                 1.8195                 6.0599
 Frc consts  --     1.7702                 0.5483                 2.0416
 IR Inten    --     0.7188                23.1864                 7.3702

                    28                     29                     30
                     A                      A                      A
 Frequencies --   764.3464               777.7742               817.0824
 Red. masses --     2.8424                 1.9957                 1.7452
 Frc consts  --     0.9784                 0.7113                 0.6865
 IR Inten    --     3.9775                32.4869                14.9982

                    31                     32                     33
                     A                      A                      A
 Frequencies --   820.4770               831.6122               861.1565
 Red. masses --     2.8516                 1.5106                 1.2526
 Frc consts  --     1.1310                 0.6155                 0.5473
 IR Inten    --    10.8528                 1.7555                 0.2274

                    34                     35                     36
                     A                      A                      A
 Frequencies --   888.1199               908.4081               920.4908
 Red. masses --     1.5501                 1.4059                 4.4798
 Frc consts  --     0.7204                 0.6835                 2.2364
 IR Inten    --    31.4896                16.3312                 8.6144

                    37                     38                     39
                     A                      A                      A
 Frequencies --   932.2783               951.6511               968.7684
 Red. masses --     1.5431                 1.3239                 1.3427
 Frc consts  --     0.7902                 0.7064                 0.7425
 IR Inten    --     1.8773                 1.4955                 0.7235

                    40                     41                     42
                     A                      A                      A
 Frequencies --   972.8411               973.8060               994.6336
 Red. masses --     1.3095                 3.9994                 1.2466
 Frc consts  --     0.7302                 2.2345                 0.7266
 IR Inten    --     0.2737                 0.4096                 0.1248

                    43                     44                     45
                     A                      A                      A
 Frequencies --  1017.0060              1046.0075              1070.5147
 Red. masses --     5.9562                 3.5182                 1.9307
 Frc consts  --     3.6296                 2.2680                 1.3036
 IR Inten    --     0.3373                 1.7619                 4.5456

                    46                     47                     48
                     A                      A                      A
 Frequencies --  1081.6029              1113.8999              1176.4855
 Red. masses --     3.4345                 1.5938                 1.5908
 Frc consts  --     2.3673                 1.1651                 1.2973
 IR Inten    --    51.0003                 3.0142                32.7408

                    49                     50                     51
                     A                      A                      A
 Frequencies --  1184.5272              1192.5515              1193.5918
 Red. masses --     1.2672                 1.1948                 1.2654
 Frc consts  --     1.0475                 1.0011                 1.0621
 IR Inten    --     0.6817                 1.2704                 5.6996

                    52                     53                     54
                     A                      A                      A
 Frequencies --  1201.5957              1214.4933              1218.7118
 Red. masses --     1.5705                 1.3955                 1.2033
 Frc consts  --     1.3360                 1.2128                 1.0530
 IR Inten    --    84.2261                10.1078                 0.4126

                    55                     56                     57
                     A                      A                      A
 Frequencies --  1246.3335              1300.2233              1308.6298
 Red. masses --     1.6524                 1.7275                 3.3543
 Frc consts  --     1.5123                 1.7207                 3.3844
 IR Inten    --    65.0657                 6.6662                42.3366

                    58                     59                     60
                     A                      A                      A
 Frequencies --  1317.4310              1331.2371              1367.1537
 Red. masses --     2.5841                 3.2928                 1.8921
 Frc consts  --     2.6425                 3.4382                 2.0836
 IR Inten    --   323.2257                 7.6005                 1.9731

                    61                     62                     63
                     A                      A                      A
 Frequencies --  1383.4771              1414.6259              1419.8636
 Red. masses --     2.2129                 3.7905                 3.6213
 Frc consts  --     2.4955                 4.4692                 4.3014
 IR Inten    --     8.2647                13.5140                 5.4752

                    64                     65                     66
                     A                      A                      A
 Frequencies --  1455.1577              1494.6875              1501.5359
 Red. masses --     4.3700                 2.2875                 1.2651
 Frc consts  --     5.4520                 3.0110                 1.6805
 IR Inten    --     2.7733                 5.3569                19.4415

                    67                     68                     69
                     A                      A                      A
 Frequencies --  1522.8276              1529.4410              1535.9726
 Red. masses --     1.0483                 1.8464                 1.1655
 Frc consts  --     1.4324                 2.5447                 1.6201
 IR Inten    --     5.1707                19.0347                50.5601

                    70                     71                     72
                     A                      A                      A
 Frequencies --  1552.0939              1555.6459              1615.5691
 Red. masses --     2.4074                 3.3638                 6.3568
 Frc consts  --     3.4169                 4.7962                 9.7755
 IR Inten    --    47.8801                51.6334                10.0277

                    73                     74                     75
                     A                      A                      A
 Frequencies --  1635.5305              1661.5498              1664.4410
 Red. masses --     5.5122                 5.5148                 5.6768
 Frc consts  --     8.6875                 8.9704                 9.2659
 IR Inten    --     3.4754                24.8373                82.1128

                    76                     77                     78
                     A                      A                      A
 Frequencies --  1688.4859              3024.7450              3083.6888
 Red. masses --     6.2947                 1.0349                 1.1068
 Frc consts  --    10.5736                 5.5785                 6.2010
 IR Inten    --    77.9683                80.9373                45.0343

                    79                     80                     81
                     A                      A                      A
 Frequencies --  3155.8805              3179.2887              3181.4050
 Red. masses --     1.0995                 1.0848                 1.0870
 Frc consts  --     6.4517                 6.4603                 6.4820
 IR Inten    --    32.1319                10.3253                 6.3770

                    82                     83                     84
                     A                      A                      A
 Frequencies --  3182.1354              3185.2303              3187.4785
 Red. masses --     1.0892                 1.0885                 1.0883
 Frc consts  --     6.4985                 6.5067                 6.5149
 IR Inten    --     0.3204                20.0626                 5.3132

                    85                     86                     87
                     A                      A                      A
 Frequencies --  3196.7362              3201.9325              3204.1170
 Red. masses --     1.0911                 1.0938                 1.0919
 Frc consts  --     6.5696                 6.6074                 6.6045
 IR Inten    --    18.9424                13.8596                17.2428

                    88                     89                     90
                     A                      A                      A
 Frequencies --  3205.4738              3210.7887              3228.8977
 Red. masses --     1.0921                 1.0977                 1.0912
 Frc consts  --     6.6115                 6.6672                 6.7030
 IR Inten    --    31.1700                23.5760                15.5775

 - Thermochemistry -
 -------------------
 Temperature   298.150 Kelvin.  Pressure   1.00000 Atm.
 Atom     1 has atomic number  6 and mass  12.00000

 Molecular mass:   234.10447 amu.
 Principal axes and moments of inertia in atomic units:
                           1         2         3
     Eigenvalues --  1062.99677********************
           X            0.99999  -0.00486   0.00052
           Y            0.00486   0.99998   0.00438
           Z           -0.00054  -0.00438   0.99999
 This molecule is an asymmetric top.
 Rotational symmetry number  1.
 Warning -- assumption of classical behavior for rotation
           may cause significant error
 Rotational temperatures (Kelvin)      0.08148     0.00807     0.00747
 Rotational constants (GHZ):           1.69779     0.16814     0.15559
 Zero-point vibrational energy     686571.2 (Joules/Mol)
                                  164.09447 (Kcal/Mol)
 Warning -- explicit consideration of  21 degrees of freedom as
           vibrations may cause significant error
 Vibrational temperatures:     56.82    82.63   108.27   119.82   203.49
          (Kelvin)            272.15   287.14   339.54   349.21   388.94
                              451.20   542.21   597.34   599.72   607.29
                              655.62   701.16   757.74   769.78   816.20
                              856.36   907.20   916.52   976.89  1003.32
                             1028.97  1087.99  1099.72  1119.04  1175.60
                             1180.48  1196.50  1239.01  1277.80  1307.00
                             1324.38  1341.34  1369.21  1393.84  1399.70
                             1401.09  1431.05  1463.24  1504.97  1540.23
                             1556.18  1602.65  1692.70  1704.27  1715.81
                             1717.31  1728.83  1747.38  1753.45  1793.19
                             1870.73  1882.82  1895.49  1915.35  1967.03
                             1990.51  2035.33  2042.86  2093.64  2150.52
                             2160.37  2191.01  2200.52  2209.92  2233.11
                             2238.22  2324.44  2353.16  2390.60  2394.76
                             2429.35  4351.93  4436.73  4540.60  4574.28
                             4577.33  4578.38  4582.83  4586.06  4599.38
                             4606.86  4610.00  4611.96  4619.60  4645.66

 Zero-point correction=                           0.261501 (Hartree/Particle)
 Thermal correction to Energy=                    0.275653
 Thermal correction to Enthalpy=                  0.276597
 Thermal correction to Gibbs Free Energy=         0.219857
 Sum of electronic and zero-point Energies=           -731.210097
 Sum of electronic and thermal Energies=              -731.195945
 Sum of electronic and thermal Enthalpies=            -731.195001
 Sum of electronic and thermal Free Energies=         -731.251741

                     E (Thermal)             CV                S
                      KCal/Mol        Cal/Mol-Kelvin    Cal/Mol-Kelvin
 Total                  172.975             57.222            119.421
 Electronic               0.000              0.000              0.000
 Translational            0.889              2.981             42.254
 Rotational               0.889              2.981             33.248
 Vibrational            171.198             51.261             43.919
 Vibration     1          0.594              1.981              5.284
 Vibration     2          0.596              1.975              4.544
 Vibration     3          0.599              1.966              4.011
 Vibration     4          0.600              1.961              3.812
 Vibration     5          0.615              1.912              2.784
 Vibration     6          0.633              1.855              2.236
 Vibration     7          0.638              1.840              2.137
 Vibration     8          0.655              1.786              1.833
 Vibration     9          0.659              1.775              1.783
 Vibration    10          0.674              1.728              1.594
 Vibration    11          0.701              1.648              1.343
 Vibration    12          0.747              1.519              1.052
 Vibration    13          0.779              1.437              0.909
 Vibration    14          0.780              1.434              0.903
 Vibration    15          0.784              1.422              0.885
 Vibration    16          0.814              1.348              0.779
 Vibration    17          0.843              1.278              0.691
 Vibration    18          0.882              1.191              0.595
 Vibration    19          0.890              1.173              0.576
 Vibration    20          0.923              1.102              0.509
 Vibration    21          0.953              1.042              0.458

 Optimization completed.
    -- Stationary point found.
 Normal termination of Gaussian 09 at Tue Sep 28 19:05:16 2021.
 Gaussian 09:  AM64L-G09RevA.02 11-Jun-2009

 ----------------------------------------------------------------------
 #p TD(NStates=10, Root=1) b3lyp/6-31G* volume pop=NPA density=current
 Geom=AllCheck Guess=Read
 ----------------------------------------------------------------------

 COc1ccc2c(c1)ccc(c2)c1ccccc1_conf_0
 -----------------------------------
 Redundant internal coordinates taken from checkpoint file:
 C17H14O_ba44_conf_0.chk
 Charge =  0 Multiplicity = 1

                         Standard orientation:
 ---------------------------------------------------------------------
 Center     Atomic      Atomic             Coordinates (Angstroms)
 Number     Number       Type             X           Y           Z
 ---------------------------------------------------------------------
      1          6           0        6.038583   -0.587353    0.133446
      2          8           0        5.062468    0.423387   -0.058941
      3          6           0        3.740561    0.080526   -0.002742
      4          6           0        3.278412   -1.240264    0.238012
      5          6           0        1.925125   -1.498217    0.277917
      6          6           0        0.967498   -0.471527    0.081797
      7          6           0        1.441593    0.860436   -0.155983
      8          6           0        2.832101    1.106669   -0.194963
      9          6           0        0.476391    1.889257   -0.345082
     10          6           0       -0.868471    1.616731   -0.299347
     11          6           0       -1.355080    0.294967   -0.064407
     12          6           0       -0.429150   -0.717021    0.120936
     13          6           0       -2.814351    0.025923   -0.018358
     14          6           0       -3.350107   -1.157925   -0.554463
     15          6           0       -4.719049   -1.415123   -0.501985
     16          6           0       -5.586820   -0.491440    0.083891
     17          6           0       -5.071021    0.691215    0.616815
     18          6           0       -3.701422    0.946684    0.565843
     19          1           0        7.005122   -0.087609    0.044997
     20          1           0        5.968324   -1.372445   -0.631185
     21          1           0        5.960224   -1.045226    1.128535
     22          1           0        3.981867   -2.050579    0.391411
     23          1           0        1.577526   -2.512001    0.462561
     24          1           0        3.206245    2.110181   -0.375884
     25          1           0        0.821800    2.902247   -0.537426
     26          1           0       -1.583267    2.416208   -0.472626
     27          1           0       -0.768829   -1.728518    0.330659
     28          1           0       -2.687458   -1.869399   -1.039363
     29          1           0       -5.109949   -2.334665   -0.930085
     30          1           0       -6.654437   -0.690347    0.122565
     31          1           0       -5.735658    1.414987    1.081565
     32          1           0       -3.310015    1.858844    1.007840
 ---------------------------------------------------------------------

 SCF Done:  E(RB3LYP) =  -731.471598038     A.U. after    1 cycles

 Excitation energies and oscillator strengths:

 Excited State   1:      Singlet-A      3.8703 eV  320.35 nm  f=0.1338  <S**2>=0.000
      61 -> 63         0.10735
      61 -> 64        -0.11780
      62 -> 63         0.66013
      62 -> 64         0.16366
 This state for optimization and/or second-order correction.
 Total Energy, E(TD-HF/TD-KS) =  -731.329368162
 Copying the excited state density for this state as the 1-particle RhoCI density.

 Excited State   2:      Singlet-A      4.1701 eV  297.32 nm  f=0.1026  <S**2>=0.000
      61 -> 63         0.40515
      62 -> 63        -0.20648
      62 -> 64         0.53265

 Excited State   3:      Singlet-A      4.7507 eV  260.98 nm  f=0.0042  <S**2>=0.000
      59 -> 63        -0.26698
      59 -> 64         0.15195
      62 -> 65         0.62033

 Excited State   4:      Singlet-A      4.8840 eV  253.86 nm  f=0.9308  <S**2>=0.000
      60 -> 63         0.12427
      61 -> 63         0.52457
      62 -> 64        -0.40661
      62 -> 66         0.16313

 Excited State   5:      Singlet-A      5.0130 eV  247.33 nm  f=0.0008  <S**2>=0.000
      60 -> 63         0.63139
      62 -> 66        -0.26855

 Excited State   6:      Singlet-A      5.1052 eV  242.86 nm  f=0.0106  <S**2>=0.000
      59 -> 63         0.61475
      60 -> 65        -0.11030
      61 -> 65        -0.12884
      62 -> 65         0.29248

 Excited State   7:      Singlet-A      5.3401 eV  232.18 nm  f=0.0287  <S**2>=0.000
      61 -> 64         0.58878
      62 -> 66         0.34200

 Excited State   8:      Singlet-A      5.5002 eV  225.42 nm  f=0.0007  <S**2>=0.000
      59 -> 63         0.18060
      59 -> 64         0.48896
      60 -> 65         0.19970
      61 -> 65         0.39215
      62 -> 65        -0.12158

 Excited State   9:      Singlet-A      5.5833 eV  222.06 nm  f=0.0462  <S**2>=0.000
      58 -> 63        -0.30374
      60 -> 64        -0.30494
      61 -> 66        -0.11291
      62 -> 66        -0.10533
      62 -> 67         0.51412

 Excited State  10:      Singlet-A      5.6417 eV  219.76 nm  f=0.1643  <S**2>=0.000
      58 -> 63        -0.26260
      60 -> 64         0.50645
      61 -> 64        -0.12936
      61 -> 66         0.12394
      62 -> 66         0.21335
      62 -> 67         0.26436

 The electronic state is 1-A.
 Alpha  occ. eigenvalues --  -19.17758 -10.24768 -10.24260 -10.19542 -10.19537
 Alpha  occ. eigenvalues --  -10.19384 -10.19337 -10.19206 -10.19171 -10.18723
 Alpha  occ. eigenvalues --  -10.18708 -10.18677 -10.18634 -10.18614 -10.18559
 Alpha  occ. eigenvalues --  -10.18553 -10.18542 -10.18051  -1.06315  -0.87118
 Alpha  occ. eigenvalues --   -0.85138  -0.81754  -0.77371  -0.76278  -0.74103
 Alpha  occ. eigenvalues --   -0.72713  -0.72416  -0.68485  -0.63067  -0.61335
 Alpha  occ. eigenvalues --   -0.60328  -0.58740  -0.57658  -0.53048  -0.52296
 Alpha  occ. eigenvalues --   -0.50753  -0.48947  -0.46888  -0.46407  -0.45745
 Alpha  occ. eigenvalues --   -0.44754  -0.43995  -0.43336  -0.41814  -0.41543
 Alpha  occ. eigenvalues --   -0.40976  -0.40356  -0.38944  -0.38486  -0.36410
 Alpha  occ. eigenvalues --   -0.36133  -0.34806  -0.34498  -0.33462  -0.33211
 Alpha  occ. eigenvalues --   -0.32026  -0.30193  -0.28020  -0.24663  -0.24500
 Alpha  occ. eigenvalues --   -0.22749  -0.19539
 Alpha virt. eigenvalues --   -0.03895  -0.01596   0.00251   0.02433   0.03861
 Alpha virt. eigenvalues --    0.09355   0.09937   0.10771   0.10898   0.12006
 Alpha virt. eigenvalues --    0.12798   0.14250   0.14473   0.15396   0.16352

 Mulliken atomic charges:
              1
     1  C   -0.221969
     2  O   -0.475121
     3  C    0.388913
     4  C   -0.213842
     5  C   -0.221064
     6  C    0.161003
     7  C    0.153947
     8  C   -0.266919
     9  C   -0.219194
    10  C   -0.191045
    11  C    0.104524
    12  C   -0.284486
    13  C    0.084651
    14  C   -0.167584
    15  C   -0.133501
    16  C   -0.124325
    17  C   -0.134624
    18  C   -0.165411
    19  H    0.176142
    20  H    0.166855
    21  H    0.166974
    22  H    0.120204
    23  H    0.123565
    24  H    0.138984
    25  H    0.119641
    26  H    0.119567
    27  H    0.122000
    28  H    0.136639
    29  H    0.132266
    30  H    0.132346
    31  H    0.132394
    32  H    0.138471
 Sum of Mulliken atomic charges =   0.00000

 Dipole moment (field-independent basis, Debye):
    X=              1.5301    Y=             -1.1941    Z=              0.2432  Tot=              1.9560
 Quadrupole moment (field-independent basis, Debye-Ang):
   XX=            -73.0951   YY=            -96.5533   ZZ=           -108.1773
   XY=             -5.0931   XZ=              0.4038   YZ=              1.2759

 Summary of Natural Population Analysis:

                                       Natural Population
                Natural  -----------------------------------------------
    Atom  No    Charge         Core      Valence    Rydberg      Total
 -----------------------------------------------------------------------
      C    1   -0.32135      1.99942     4.30801    0.01392     6.32135
      O    2   -0.46587      1.99975     6.45450    0.01163     8.46587
      C    3    0.36077      1.99879     3.61796    0.02248     5.63923
      C    4   -0.36647      1.99904     4.35318    0.01425     6.36647
      C    5   -0.21832      1.99907     4.20312    0.01613     6.21832
      C    6   -0.04120      1.99903     4.02707    0.01510     6.04120
      C    7   -0.04033      1.99903     4.02634    0.01496     6.04033
      C    8   -0.25607      1.99900     4.24128    0.01580     6.25607
      C    9   -0.23897      1.99906     4.22416    0.01574     6.23897
      C   10   -0.25879      1.99907     4.24516    0.01456     6.25879
      C   11   -0.00949      1.99901     3.99442    0.01605     6.00949
      C   12   -0.24034      1.99901     4.22675    0.01457     6.24034
      C   13   -0.04226      1.99901     4.02758    0.01568     6.04226
      C   14   -0.21361      1.99904     4.20154    0.01302     6.21361
      C   15   -0.23092      1.99910     4.21785    0.01397     6.23092
      C   16   -0.22314      1.99909     4.21021    0.01384     6.22314
      C   17   -0.23360      1.99910     4.22045    0.01405     6.23360
      C   18   -0.20646      1.99905     4.19470    0.01271     6.20646
      H   19    0.23121      0.00000     0.76825    0.00054     0.76879
      H   20    0.21332      0.00000     0.78464    0.00203     0.78668
      H   21    0.21341      0.00000     0.78455    0.00204     0.78659
      H   22    0.23289      0.00000     0.76626    0.00085     0.76711
      H   23    0.23119      0.00000     0.76766    0.00115     0.76881
      H   24    0.24282      0.00000     0.75563    0.00155     0.75718
      H   25    0.22953      0.00000     0.76937    0.00110     0.77047
      H   26    0.23239      0.00000     0.76665    0.00096     0.76761
      H   27    0.22830      0.00000     0.77032    0.00138     0.77170
      H   28    0.23925      0.00000     0.75938    0.00137     0.76075
      H   29    0.23769      0.00000     0.76145    0.00087     0.76231
      H   30    0.23618      0.00000     0.76296    0.00086     0.76382
      H   31    0.23782      0.00000     0.76133    0.00085     0.76218
      H   32    0.24041      0.00000     0.75821    0.00138     0.75959
 =======================================================================
   * Total *    0.00000     35.98366    87.73096    0.28538   124.00000

 Normal termination of Gaussian 09 at Wed Sep 29 00:08:45 2021.
