 Gaussian 09, Revision A.02,

 -----------------------------------
 #p opt b3lyp/6-31G* scf=(xqc,tight)
 -----------------------------------

 ---------------------------------
 COc1ccc2c(c1c1ccccc1)cccc2_conf_0
 ---------------------------------
 Symbolic Z-matrix:
 Charge =  0 Multiplicity = 1

 SCF Done:  E(RB3LYP) =  -731.459404687     A.U. after   15 cycles
 SCF Done:  E(RB3LYP) =  -731.463965218     A.U. after   13 cycles
 SCF Done:  E(RB3LYP) =  -731.464413963     A.U. after   12 cycles
 SCF Done:  E(RB3LYP) =  -731.464491139     A.U. after   12 cycles
 SCF Done:  E(RB3LYP) =  -731.464509596     A.U. after   11 cycles
 SCF Done:  E(RB3LYP) =  -731.464514225     A.U. after   10 cycles
 SCF Done:  E(RB3LYP) =  -731.464515474     A.U. after    8 cycles
 SCF Done:  E(RB3LYP) =  -731.464516778     A.U. after    9 cycles
 SCF Done:  E(RB3LYP) =  -731.464517354     A.U. after    8 cycles
 SCF Done:  E(RB3LYP) =  -731.464517846     A.U. after    8 cycles
 SCF Done:  E(RB3LYP) =  -731.464517969     A.U. after    7 cycles
 Optimization completed.
    -- Stationary point found.
 Normal termination of Gaussian 09 at Tue Sep 28 17:29:51 2021.

 ----------------------------------------------------------------------
 #p freq b3lyp/6-31G* volume NMR pop=NPA density=current Geom=AllCheck
 Guess=Read
 ----------------------------------------------------------------------

 COc1ccc2c(c1c1ccccc1)cccc2_conf_0
 ---------------------------------
 Redundant internal coordinates taken from checkpoint file:
 C17H14O_cbb6_conf_0.chk
 Charge =  0 Multiplicity = 1

 SCF Done:  E(RB3LYP) =  -731.464517969     A.U. after    1 cycles

  1  C    Isotropic =   137.3166   Anisotropy =    66.0905

  2  O    Isotropic =   238.3960   Anisotropy =    82.9554

  3  C    Isotropic =    43.6124   Anisotropy =   119.7191

  4  C    Isotropic =    84.8380   Anisotropy =   143.9353

  5  C    Isotropic =    66.3725   Anisotropy =   143.0594

  6  C    Isotropic =    68.0479   Anisotropy =   191.8574

  7  C    Isotropic =    62.0464   Anisotropy =   191.6243

  8  C    Isotropic =    68.2932   Anisotropy =   128.1179

  9  C    Isotropic =    58.0885   Anisotropy =   169.1074

 10  C    Isotropic =    64.7422   Anisotropy =   160.1260

 11  C    Isotropic =    69.0213   Anisotropy =   164.3687

 12  C    Isotropic =    69.8328   Anisotropy =   165.6825

 13  C    Isotropic =    68.7997   Anisotropy =   164.8383

 14  C    Isotropic =    63.8986   Anisotropy =   161.2329

 15  C    Isotropic =    70.2681   Anisotropy =   157.8555

 16  C    Isotropic =    69.7313   Anisotropy =   161.0239

 17  C    Isotropic =    73.0180   Anisotropy =   157.7927

 18  C    Isotropic =    67.7013   Anisotropy =   143.2032

 19  H    Isotropic =    28.3298   Anisotropy =     8.9312

 20  H    Isotropic =    28.4882   Anisotropy =     9.2167

 21  H    Isotropic =    28.6202   Anisotropy =     9.3717

 22  H    Isotropic =    25.2774   Anisotropy =     7.9030

 23  H    Isotropic =    24.5575   Anisotropy =     6.6606

 24  H    Isotropic =    25.0225   Anisotropy =     9.8629

 25  H    Isotropic =    24.8671   Anisotropy =     4.6261

 26  H    Isotropic =    24.9284   Anisotropy =     3.4525

 27  H    Isotropic =    24.8551   Anisotropy =     4.6432

 28  H    Isotropic =    24.8586   Anisotropy =     9.4462

 29  H    Isotropic =    24.7892   Anisotropy =    13.7119

 30  H    Isotropic =    24.9489   Anisotropy =     6.4325

 31  H    Isotropic =    24.9971   Anisotropy =     4.5438

 32  H    Isotropic =    24.6420   Anisotropy =     6.6487

  Exact polarizability: 239.102  -1.559 206.887   5.951  -7.528 100.556
 Approx polarizability: 364.826  -3.459 346.416  13.436 -18.167 171.367

                     1                      2                      3
                     A                      A                      A
 Frequencies --    38.0122                61.1537                70.4397
 Red. masses --     3.7789                 3.2443                 4.1198
 Frc consts  --     0.0032                 0.0071                 0.0120
 IR Inten    --     0.0590                 1.9240                 1.6720

                     4                      5                      6
                     A                      A                      A
 Frequencies --    73.3804               128.3659               172.6131
 Red. masses --     4.7668                 4.6752                 3.5326
 Frc consts  --     0.0151                 0.0454                 0.0620
 IR Inten    --     0.3643                 0.6258                 0.3799

                     7                      8                      9
                     A                      A                      A
 Frequencies --   188.3642               237.0417               252.1922
 Red. masses --     4.0971                 1.9167                 3.9026
 Frc consts  --     0.0856                 0.0635                 0.1462
 IR Inten    --     0.6718                 0.3825                 0.1764

                    10                     11                     12
                     A                      A                      A
 Frequencies --   280.9001               309.1284               355.3737
 Red. masses --     1.7781                 4.7519                 4.6569
 Frc consts  --     0.0827                 0.2675                 0.3465
 IR Inten    --     1.5060                 2.0969                 0.8660

                    13                     14                     15
                     A                      A                      A
 Frequencies --   380.8235               416.2378               419.6945
 Red. masses --     4.4325                 3.0186                 4.9461
 Frc consts  --     0.3787                 0.3081                 0.5133
 IR Inten    --     0.0098                 0.1092                 0.2429

                    16                     17                     18
                     A                      A                      A
 Frequencies --   443.8519               511.3024               536.1530
 Red. masses --     3.2927                 3.9080                 6.8753
 Frc consts  --     0.3822                 0.6019                 1.1644
 IR Inten    --     3.2363                 7.0782                 0.4706

                    19                     20                     21
                     A                      A                      A
 Frequencies --   541.9831               576.6874               603.7064
 Red. masses --     3.6703                 3.7053                 4.3994
 Frc consts  --     0.6352                 0.7260                 0.9447
 IR Inten    --     0.1543                 4.6484                 8.4413

                    22                     23                     24
                     A                      A                      A
 Frequencies --   633.7527               638.1080               688.5485
 Red. masses --     6.2133                 6.3021                 3.6237
 Frc consts  --     1.4703                 1.5119                 1.0122
 IR Inten    --     1.3723                 3.8901                 1.6605

                    25                     26                     27
                     A                      A                      A
 Frequencies --   704.9594               713.8252               726.0728
 Red. masses --     5.7625                 1.9664                 4.0299
 Frc consts  --     1.6873                 0.5903                 1.2517
 IR Inten    --     6.5796                18.5804                11.1005

                    28                     29                     30
                     A                      A                      A
 Frequencies --   763.7940               774.6715               793.2152
 Red. masses --     1.3755                 2.2161                 3.2089
 Frc consts  --     0.4728                 0.7836                 1.1896
 IR Inten    --    14.6955                11.8686                 9.0094

                    31                     32                     33
                     A                      A                      A
 Frequencies --   823.6751               845.5746               860.4909
 Red. masses --     1.5396                 5.0212                 1.2527
 Frc consts  --     0.6154                 2.1153                 0.5465
 IR Inten    --    50.3428                 0.1452                 0.2364

                    34                     35                     36
                     A                      A                      A
 Frequencies --   880.5314               916.9476               940.1779
 Red. masses --     1.5863                 2.3374                 2.1450
 Frc consts  --     0.7246                 1.1579                 1.1171
 IR Inten    --     1.0641                 5.6133                 5.1230

                    37                     38                     39
                     A                      A                      A
 Frequencies --   941.7863               958.7081               966.0580
 Red. masses --     1.3134                 1.3414                 1.3476
 Frc consts  --     0.6864                 0.7264                 0.7410
 IR Inten    --     0.9011                 1.3630                 0.0977

                    40                     41                     42
                     A                      A                      A
 Frequencies --   989.8833               991.3509               992.1664
 Red. masses --     1.2830                 3.9019                 1.3399
 Frc consts  --     0.7407                 2.2593                 0.7771
 IR Inten    --     0.1941                 0.7102                 0.0254

                    43                     44                     45
                     A                      A                      A
 Frequencies --  1018.5795              1056.1349              1059.9313
 Red. masses --     6.2691                 2.4135                 2.1766
 Frc consts  --     3.8322                 1.5861                 1.4408
 IR Inten    --     1.2695                 9.2633                 4.4307

                    46                     47                     48
                     A                      A                      A
 Frequencies --  1106.3344              1116.4940              1152.5621
 Red. masses --     1.8950                 3.3775                 2.0082
 Frc consts  --     1.3666                 2.4806                 1.5718
 IR Inten    --    22.7009                53.8437                25.5696

                    49                     50                     51
                     A                      A                      A
 Frequencies --  1182.9609              1188.6914              1192.0144
 Red. masses --     1.2673                 1.2114                 1.1210
 Frc consts  --     1.0449                 1.0085                 0.9385
 IR Inten    --     0.9523                15.1940                 0.0064

                    52                     53                     54
                     A                      A                      A
 Frequencies --  1192.8900              1213.3393              1214.9802
 Red. masses --     1.2639                 1.1448                 1.3263
 Frc consts  --     1.0597                 0.9930                 1.1536
 IR Inten    --     0.7886                 1.0713                 6.5756

                    55                     56                     57
                     A                      A                      A
 Frequencies --  1249.4983              1258.3120              1297.9879
 Red. masses --     2.1802                 1.9229                 2.4299
 Frc consts  --     2.0055                 1.7938                 2.4120
 IR Inten    --     9.9833                 1.0987               100.9332

                    58                     59                     60
                     A                      A                      A
 Frequencies --  1312.0084              1328.9177              1362.3706
 Red. masses --     2.7515                 3.3565                 1.8962
 Frc consts  --     2.7906                 3.4925                 2.0736
 IR Inten    --   191.7761                 7.1188                 5.3275

                    61                     62                     63
                     A                      A                      A
 Frequencies --  1375.4643              1407.7908              1427.4037
 Red. masses --     3.2573                 6.6373                 2.8692
 Frc consts  --     3.6308                 7.7503                 3.4443
 IR Inten    --    44.4259                 3.4178                21.3454

                    64                     65                     66
                     A                      A                      A
 Frequencies --  1475.9955              1489.7270              1498.4824
 Red. masses --     2.2803                 2.2617                 1.3512
 Frc consts  --     2.9270                 2.9573                 1.7876
 IR Inten    --    10.1765                 3.7864                17.1550

                    67                     68                     69
                     A                      A                      A
 Frequencies --  1521.1522              1523.0151              1535.9409
 Red. masses --     1.7947                 1.0574                 1.1072
 Frc consts  --     2.4467                 1.4451                 1.5390
 IR Inten    --    29.6394                 4.6737                28.6554

                    70                     71                     72
                     A                      A                      A
 Frequencies --  1545.5977              1564.9599              1621.9083
 Red. masses --     2.2795                 3.2300                 7.7731
 Frc consts  --     3.2083                 4.6608                12.0475
 IR Inten    --     7.7533                49.5354                 0.7255

                    73                     74                     75
                     A                      A                      A
 Frequencies --  1634.8394              1653.2728              1661.5842
 Red. masses --     5.4086                 5.7013                 5.5717
 Frc consts  --     8.5170                 9.1815                 9.0633
 IR Inten    --     1.1496                54.7896                 5.6876

                    76                     77                     78
                     A                      A                      A
 Frequencies --  1678.6955              3023.6241              3082.7449
 Red. masses --     5.8338                 1.0350                 1.1067
 Frc consts  --     9.6861                 5.5748                 6.1967
 IR Inten    --    22.3925                77.8554                41.4367

                    79                     80                     81
                     A                      A                      A
 Frequencies --  3155.4927              3175.2248              3177.9891
 Red. masses --     1.0993                 1.0867                 1.0845
 Frc consts  --     6.4492                 6.4553                 6.4535
 IR Inten    --    24.3727                 2.3088                 1.8282

                    82                     83                     84
                     A                      A                      A
 Frequencies --  3184.0845              3185.8234              3187.6294
 Red. masses --     1.0889                 1.0877                 1.0892
 Frc consts  --     6.5041                 6.5046                 6.5209
 IR Inten    --     6.2929                 4.4752                24.0352

                    85                     86                     87
                     A                      A                      A
 Frequencies --  3196.4205              3203.2999              3204.8581
 Red. masses --     1.0915                 1.0942                 1.0952
 Frc consts  --     6.5705                 6.6154                 6.6274
 IR Inten    --    28.7650                35.3908                38.2966

                    88                     89                     90
                     A                      A                      A
 Frequencies --  3209.9602              3225.0931              3229.1871
 Red. masses --     1.0975                 1.0927                 1.0914
 Frc consts  --     6.6630                 6.6961                 6.7051
 IR Inten    --    15.4859                11.1606                14.7323

 - Thermochemistry -
 -------------------
 Temperature   298.150 Kelvin.  Pressure   1.00000 Atm.
 Atom     1 has atomic number  6 and mass  12.00000

 Molecular mass:   234.10447 amu.
 Principal axes and moments of inertia in atomic units:
                           1         2         3
     Eigenvalues --  3027.046754917.120017401.03542
           X            1.00000  -0.00130   0.00135
           Y            0.00130   1.00000  -0.00223
           Z           -0.00134   0.00223   1.00000
 This molecule is an asymmetric top.
 Rotational symmetry number  1.
 Warning -- assumption of classical behavior for rotation
           may cause significant error
 Rotational temperatures (Kelvin)      0.02861     0.01761     0.01170
 Rotational constants (GHZ):           0.59621     0.36703     0.24385
 Zero-point vibrational energy     686076.1 (Joules/Mol)
                                  163.97613 (Kcal/Mol)
 Warning -- explicit consideration of  21 degrees of freedom as
           vibrations may cause significant error
 Vibrational temperatures:     54.69    87.99   101.35   105.58   184.69
          (Kelvin)            248.35   271.01   341.05   362.85   404.15
                              444.77   511.30   547.92   598.87   603.85
                              638.60   735.65   771.40   779.79   829.72
                              868.60   911.83   918.09   990.67  1014.28
                             1027.03  1044.66  1098.93  1114.58  1141.26
                             1185.08  1216.59  1238.05  1266.89  1319.28
                             1352.70  1355.02  1379.37  1389.94  1424.22
                             1426.33  1427.50  1465.51  1519.54  1525.00
                             1591.77  1606.38  1658.28  1702.01  1710.26
                             1715.04  1716.30  1745.72  1748.08  1797.75
                             1810.43  1867.51  1887.69  1912.01  1960.14
                             1978.98  2025.49  2053.71  2123.63  2143.38
                             2155.98  2188.60  2191.28  2209.87  2223.77
                             2251.63  2333.56  2352.17  2378.69  2390.65
                             2415.27  4350.32  4435.38  4540.04  4568.43
                             4572.41  4581.18  4583.68  4586.28  4598.93
                             4608.83  4611.07  4618.41  4640.18  4646.07

 Zero-point correction=                           0.261313 (Hartree/Particle)
 Thermal correction to Energy=                    0.275562
 Thermal correction to Enthalpy=                  0.276506
 Thermal correction to Gibbs Free Energy=         0.219470
 Sum of electronic and zero-point Energies=           -731.203205
 Sum of electronic and thermal Energies=              -731.188956
 Sum of electronic and thermal Enthalpies=            -731.188012
 Sum of electronic and thermal Free Energies=         -731.245048

                     E (Thermal)             CV                S
                      KCal/Mol        Cal/Mol-Kelvin    Cal/Mol-Kelvin
 Total                  172.918             57.268            120.043
 Electronic               0.000              0.000              0.000
 Translational            0.889              2.981             42.254
 Rotational               0.889              2.981             33.065
 Vibrational            171.140             51.307             44.724
 Vibration     1          0.594              1.982              5.360
 Vibration     2          0.597              1.973              4.420
 Vibration     3          0.598              1.968              4.141
 Vibration     4          0.599              1.967              4.061
 Vibration     5          0.611              1.925              2.970
 Vibration     6          0.626              1.876              2.407
 Vibration     7          0.633              1.856              2.244
 Vibration     8          0.656              1.784              1.825
 Vibration     9          0.664              1.759              1.715
 Vibration    10          0.681              1.709              1.528
 Vibration    11          0.698              1.656              1.367
 Vibration    12          0.731              1.564              1.142
 Vibration    13          0.751              1.511              1.036
 Vibration    14          0.779              1.435              0.905
 Vibration    15          0.782              1.427              0.893
 Vibration    16          0.803              1.374              0.815
 Vibration    17          0.866              1.225              0.630
 Vibration    18          0.891              1.170              0.574
 Vibration    19          0.897              1.157              0.561
 Vibration    20          0.933              1.082              0.492
 Vibration    21          0.962              1.024              0.443

 Optimization completed.
    -- Stationary point found.
 Normal termination of Gaussian 09 at Tue Sep 28 18:50:03 2021.
 Gaussian 09:  AM64L-G09RevA.02 11-Jun-2009

 ----------------------------------------------------------------------
 #p TD(NStates=10, Root=1) b3lyp/6-31G* volume pop=NPA density=current
 Geom=AllCheck Guess=Read
 ----------------------------------------------------------------------

 COc1ccc2c(c1c1ccccc1)cccc2_conf_0
 ---------------------------------
 Redundant internal coordinates taken from checkpoint file:
 C17H14O_cbb6_conf_0.chk
 Charge =  0 Multiplicity = 1

                         Standard orientation:
 ---------------------------------------------------------------------
 Center     Atomic      Atomic             Coordinates (Angstroms)
 Number     Number       Type             X           Y           Z
 ---------------------------------------------------------------------
      1          6           0       -1.142437    3.756076    0.173501
      2          8           0       -1.138652    2.341558    0.082990
      3          6           0        0.057820    1.679546    0.048243
      4          6           0        1.303856    2.354980    0.080016
      5          6           0        2.478098    1.639296    0.059198
      6          6           0        2.474411    0.225700   -0.003993
      7          6           0        1.213898   -0.461576   -0.041560
      8          6           0       -0.004677    0.287230   -0.003867
      9          6           0       -1.334342   -0.394734   -0.003879
     10          6           0       -1.739007   -1.172005    1.092203
     11          6           0       -2.979314   -1.811858    1.096807
     12          6           0       -3.837635   -1.684450    0.003779
     13          6           0       -3.447485   -0.911979   -1.092129
     14          6           0       -2.208108   -0.272842   -1.094761
     15          6           0        1.237327   -1.883972   -0.138074
     16          6           0        2.426256   -2.576496   -0.172495
     17          6           0        3.665895   -1.893799   -0.116114
     18          6           0        3.682996   -0.521449   -0.037294
     19          1           0       -2.194407    4.046603    0.200752
     20          1           0       -0.662959    4.223384   -0.697119
     21          1           0       -0.648175    4.107567    1.088952
     22          1           0        1.337376    3.437069    0.128110
     23          1           0        3.430667    2.163065    0.088731
     24          1           0       -1.075836   -1.268530    1.947753
     25          1           0       -3.275157   -2.407335    1.956815
     26          1           0       -4.803678   -2.182554    0.005783
     27          1           0       -4.109255   -0.807399   -1.948218
     28          1           0       -1.908901    0.328795   -1.948149
     29          1           0        0.297559   -2.422220   -0.191585
     30          1           0        2.414056   -3.660737   -0.248710
     31          1           0        4.595990   -2.454922   -0.141936
     32          1           0        4.626628    0.018734   -0.002590
 ---------------------------------------------------------------------

 SCF Done:  E(RB3LYP) =  -731.464517969     A.U. after    1 cycles

 Excitation energies and oscillator strengths:

 Excited State   1:      Singlet-A      3.9537 eV  313.59 nm  f=0.1206  <S**2>=0.000
      61 -> 64         0.11053
      62 -> 63         0.67377
      62 -> 64        -0.11228
 This state for optimization and/or second-order correction.
 Total Energy, E(TD-HF/TD-KS) =  -731.319221789
 Copying the excited state density for this state as the 1-particle RhoCI density.

 Excited State   2:      Singlet-A      4.4158 eV  280.78 nm  f=0.0189  <S**2>=0.000
      61 -> 63         0.50931
      62 -> 63        -0.15568
      62 -> 64        -0.42550
      62 -> 66         0.13411

 Excited State   3:      Singlet-A      4.6862 eV  264.57 nm  f=0.0110  <S**2>=0.000
      60 -> 63         0.11519
      62 -> 64         0.20987
      62 -> 65         0.65316

 Excited State   4:      Singlet-A      4.8563 eV  255.31 nm  f=0.0070  <S**2>=0.000
      59 -> 63        -0.12797
      60 -> 63        -0.23096
      62 -> 64         0.23092
      62 -> 66         0.59068

 Excited State   5:      Singlet-A      4.9304 eV  251.47 nm  f=0.0229  <S**2>=0.000
      59 -> 63        -0.15782
      60 -> 63         0.63384
      62 -> 65        -0.16088
      62 -> 66         0.14186

 Excited State   6:      Singlet-A      5.0308 eV  246.45 nm  f=0.0042  <S**2>=0.000
      59 -> 63         0.65410
      60 -> 63         0.12598
      62 -> 66         0.18860

 Excited State   7:      Singlet-A      5.4434 eV  227.77 nm  f=0.3975  <S**2>=0.000
      58 -> 63         0.32141
      61 -> 63         0.35005
      61 -> 65         0.26648
      62 -> 64         0.30420
      62 -> 65        -0.10526
      62 -> 66        -0.17404
      62 -> 67        -0.22486

 Excited State   8:      Singlet-A      5.5507 eV  223.37 nm  f=0.0152  <S**2>=0.000
      59 -> 63        -0.11766
      59 -> 65         0.38537
      59 -> 66        -0.25602
      60 -> 64         0.33776
      60 -> 65         0.22052
      60 -> 66         0.25862
      61 -> 64         0.10852
      61 -> 66         0.10596

 Excited State   9:      Singlet-A      5.6603 eV  219.04 nm  f=0.0313  <S**2>=0.000
      58 -> 63        -0.27884
      61 -> 64         0.16730
      61 -> 65         0.43556
      62 -> 67         0.41385

 Excited State  10:      Singlet-A      5.7287 eV  216.43 nm  f=0.3496  <S**2>=0.000
      58 -> 63         0.25998
      60 -> 64         0.21651
      60 -> 65        -0.19363
      60 -> 66        -0.17326
      61 -> 63        -0.21214
      61 -> 65         0.34507
      62 -> 64        -0.24822
      62 -> 66         0.13780
      62 -> 67        -0.15483

 The electronic state is 1-A.
 Alpha  occ. eigenvalues --  -19.17561 -10.24690 -10.24130 -10.19536 -10.19121
 Alpha  occ. eigenvalues --  -10.19109 -10.18993 -10.18978 -10.18968 -10.18485
 Alpha  occ. eigenvalues --  -10.18368 -10.18341 -10.18293 -10.18249 -10.18249
 Alpha  occ. eigenvalues --  -10.18177 -10.18106 -10.17956  -1.06204  -0.86937
 Alpha  occ. eigenvalues --   -0.84494  -0.81385  -0.78117  -0.74192  -0.73711
 Alpha  occ. eigenvalues --   -0.73471  -0.71906  -0.68414  -0.62774  -0.60472
 Alpha  occ. eigenvalues --   -0.59929  -0.59263  -0.56808  -0.52853  -0.51673
 Alpha  occ. eigenvalues --   -0.50729  -0.49264  -0.46835  -0.46129  -0.45099
 Alpha  occ. eigenvalues --   -0.44365  -0.44053  -0.42891  -0.41776  -0.41165
 Alpha  occ. eigenvalues --   -0.40969  -0.40001  -0.38724  -0.38445  -0.35575
 Alpha  occ. eigenvalues --   -0.35001  -0.34661  -0.34007  -0.33599  -0.33388
 Alpha  occ. eigenvalues --   -0.31292  -0.29847  -0.27180  -0.24224  -0.23889
 Alpha  occ. eigenvalues --   -0.22831  -0.19572
 Alpha virt. eigenvalues --   -0.03450   0.00145   0.00378   0.01054   0.04194
 Alpha virt. eigenvalues --    0.09430   0.09981   0.10810   0.11019   0.11936
 Alpha virt. eigenvalues --    0.13327   0.14982   0.15214   0.16092   0.16445

 Mulliken atomic charges:
              1
     1  C   -0.224495
     2  O   -0.466614
     3  C    0.354862
     4  C   -0.220187
     5  C   -0.218940
     6  C    0.150595
     7  C    0.102211
     8  C   -0.082998
     9  C    0.079781
    10  C   -0.150672
    11  C   -0.137606
    12  C   -0.126105
    13  C   -0.135038
    14  C   -0.143999
    15  C   -0.215655
    16  C   -0.153141
    17  C   -0.115372
    18  C   -0.217431
    19  H    0.179389
    20  H    0.168365
    21  H    0.170067
    22  H    0.120185
    23  H    0.124003
    24  H    0.139891
    25  H    0.129605
    26  H    0.128410
    27  H    0.128805
    28  H    0.129134
    29  H    0.138337
    30  H    0.116336
    31  H    0.127514
    32  H    0.120764
 Sum of Mulliken atomic charges =  -0.00000

 Dipole moment (field-independent basis, Debye):
    X=             -1.3706    Y=              2.5331    Z=              0.1881  Tot=              2.8863
 Quadrupole moment (field-independent basis, Debye-Ang):
   XX=            -97.0064   YY=            -88.3158   ZZ=           -104.2548
   XY=             -0.0394   XZ=              1.0660   YZ=             -1.2566

 Summary of Natural Population Analysis:

                                       Natural Population
                Natural  -----------------------------------------------
    Atom  No    Charge         Core      Valence    Rydberg      Total
 -----------------------------------------------------------------------
      C    1   -0.32133      1.99942     4.30788    0.01403     6.32133
      O    2   -0.45611      1.99974     6.44489    0.01148     8.45611
      C    3    0.38263      1.99872     3.59696    0.02169     5.61737
      C    4   -0.37786      1.99904     4.36379    0.01502     6.37786
      C    5   -0.20962      1.99906     4.19431    0.01624     6.20962
      C    6   -0.05220      1.99902     4.03816    0.01501     6.05220
      C    7   -0.04853      1.99899     4.03477    0.01477     6.04853
      C    8   -0.04917      1.99892     4.03132    0.01893     6.04917
      C    9   -0.05461      1.99902     4.03801    0.01758     6.05461
      C   10   -0.21069      1.99901     4.19871    0.01296     6.21069
      C   11   -0.24017      1.99909     4.22691    0.01417     6.24017
      C   12   -0.23216      1.99909     4.21923    0.01383     6.23216
      C   13   -0.23053      1.99909     4.21761    0.01382     6.23053
      C   14   -0.21375      1.99901     4.20111    0.01363     6.21375
      C   15   -0.22316      1.99907     4.20944    0.01465     6.22316
      C   16   -0.28421      1.99911     4.26900    0.01610     6.28421
      C   17   -0.18450      1.99910     4.17092    0.01447     6.18450
      C   18   -0.24255      1.99906     4.22836    0.01514     6.24255
      H   19    0.23323      0.00000     0.76622    0.00055     0.76677
      H   20    0.21460      0.00000     0.78345    0.00195     0.78540
      H   21    0.21620      0.00000     0.78176    0.00203     0.78380
      H   22    0.23276      0.00000     0.76634    0.00089     0.76724
      H   23    0.23117      0.00000     0.76768    0.00115     0.76883
      H   24    0.24371      0.00000     0.75531    0.00097     0.75629
      H   25    0.23686      0.00000     0.76223    0.00091     0.76314
      H   26    0.23498      0.00000     0.76415    0.00087     0.76502
      H   27    0.23622      0.00000     0.76287    0.00091     0.76378
      H   28    0.23915      0.00000     0.75979    0.00107     0.76085
      H   29    0.23833      0.00000     0.76058    0.00109     0.76167
      H   30    0.23103      0.00000     0.76815    0.00082     0.76897
      H   31    0.23236      0.00000     0.76679    0.00085     0.76764
      H   32    0.22788      0.00000     0.77096    0.00116     0.77212
 =======================================================================
   * Total *   -0.00000     35.98359    87.72768    0.28873   124.00000

 Normal termination of Gaussian 09 at Wed Sep 29 00:13:10 2021.
