 Gaussian 09, Revision A.02,

 -----------------------------------
 #p opt b3lyp/6-31G* scf=(xqc,tight)
 -----------------------------------

 --------------------------------------
 CCN(C(=O)Oc1ccc(cc1)c1ccccc1)CC_conf_0
 --------------------------------------
 Symbolic Z-matrix:
 Charge =  0 Multiplicity = 1

 SCF Done:  E(RB3LYP) =  -864.476625354     A.U. after   15 cycles
 SCF Done:  E(RB3LYP) =  -864.481377127     A.U. after   12 cycles
 SCF Done:  E(RB3LYP) =  -864.480800254     A.U. after   12 cycles
 SCF Done:  E(RB3LYP) =  -864.482272749     A.U. after   12 cycles
 SCF Done:  E(RB3LYP) =  -864.482848964     A.U. after   12 cycles
 SCF Done:  E(RB3LYP) =  -864.483022285     A.U. after   11 cycles
 SCF Done:  E(RB3LYP) =  -864.483075422     A.U. after   11 cycles
 SCF Done:  E(RB3LYP) =  -864.483095832     A.U. after   10 cycles
 SCF Done:  E(RB3LYP) =  -864.483106384     A.U. after   10 cycles
 SCF Done:  E(RB3LYP) =  -864.483114640     A.U. after   10 cycles
 SCF Done:  E(RB3LYP) =  -864.483118258     A.U. after   10 cycles
 SCF Done:  E(RB3LYP) =  -864.483120838     A.U. after    9 cycles
 SCF Done:  E(RB3LYP) =  -864.483121482     A.U. after    8 cycles
 SCF Done:  E(RB3LYP) =  -864.483121680     A.U. after    7 cycles
 SCF Done:  E(RB3LYP) =  -864.483121765     A.U. after    6 cycles
 Optimization completed.
    -- Stationary point found.
 Normal termination of Gaussian 09 at Thu Sep 30 01:06:10 2021.

 ----------------------------------------------------------------------
 #p freq b3lyp/6-31G* volume NMR pop=NPA density=current Geom=AllCheck
 Guess=Read
 ----------------------------------------------------------------------

 CCN(C(=O)Oc1ccc(cc1)c1ccccc1)CC_conf_0
 --------------------------------------
 Redundant internal coordinates taken from checkpoint file:
 C17H19NO2_7772_conf_0.chk
 Charge =  0 Multiplicity = 1

 SCF Done:  E(RB3LYP) =  -864.483121765     A.U. after    1 cycles

  1  C    Isotropic =   173.2323   Anisotropy =    23.3953

  2  C    Isotropic =   141.3271   Anisotropy =    49.4495

  3  N    Isotropic =   157.1564   Anisotropy =    67.3095

  4  C    Isotropic =    46.9397   Anisotropy =    78.1985

  5  O    Isotropic =    60.1655   Anisotropy =   384.4919

  6  O    Isotropic =   143.0818   Anisotropy =   146.4652

  7  C    Isotropic =    45.0660   Anisotropy =   110.0718

  8  C    Isotropic =    72.5912   Anisotropy =   153.1185

  9  C    Isotropic =    68.0327   Anisotropy =   151.0101

 10  C    Isotropic =    57.7455   Anisotropy =   171.2689

 11  C    Isotropic =    68.3636   Anisotropy =   150.6753

 12  C    Isotropic =    75.7560   Anisotropy =   137.2144

 13  C    Isotropic =    54.2049   Anisotropy =   176.3967

 14  C    Isotropic =    68.9960   Anisotropy =   154.0587

 15  C    Isotropic =    67.8270   Anisotropy =   164.5725

 16  C    Isotropic =    69.7351   Anisotropy =   164.7238

 17  C    Isotropic =    67.7957   Anisotropy =   164.5406

 18  C    Isotropic =    68.9233   Anisotropy =   153.8951

 19  C    Isotropic =   142.8229   Anisotropy =    47.1480

 20  C    Isotropic =   171.9662   Anisotropy =    24.6326

 21  H    Isotropic =    31.3421   Anisotropy =    10.4910

 22  H    Isotropic =    31.0458   Anisotropy =     6.5430

 23  H    Isotropic =    30.3843   Anisotropy =     5.4854

 24  H    Isotropic =    29.5951   Anisotropy =     6.4753

 25  H    Isotropic =    28.1276   Anisotropy =     6.6429

 26  H    Isotropic =    24.6892   Anisotropy =     9.6093

 27  H    Isotropic =    24.8407   Anisotropy =     8.4588

 28  H    Isotropic =    24.8659   Anisotropy =     8.3375

 29  H    Isotropic =    25.3636   Anisotropy =     7.3453

 30  H    Isotropic =    24.8518   Anisotropy =     8.7963

 31  H    Isotropic =    24.9053   Anisotropy =     4.9919

 32  H    Isotropic =    25.0418   Anisotropy =     4.1185

 33  H    Isotropic =    24.9017   Anisotropy =     5.0222

 34  H    Isotropic =    24.8434   Anisotropy =     8.7480

 35  H    Isotropic =    29.4632   Anisotropy =     6.5206

 36  H    Isotropic =    28.2054   Anisotropy =     4.5583

 37  H    Isotropic =    30.8033   Anisotropy =     6.6426

 38  H    Isotropic =    31.2081   Anisotropy =    10.0985

 39  H    Isotropic =    30.4595   Anisotropy =     6.3001

  Exact polarizability: 310.940  -5.240 158.402   8.653  21.463 122.726
 Approx polarizability: 392.989 -12.275 268.620  19.302  46.094 197.540

                     1                      2                      3
                     A                      A                      A
 Frequencies --    18.6108                24.4420                38.4831
 Red. masses --     3.7239                 4.7194                 3.2614
 Frc consts  --     0.0008                 0.0017                 0.0028
 IR Inten    --     0.3992                 0.7807                 0.1774

                     4                      5                      6
                     A                      A                      A
 Frequencies --    52.3100                71.3714                79.2434
 Red. masses --     3.3575                 3.6017                 3.0254
 Frc consts  --     0.0054                 0.0108                 0.0112
 IR Inten    --     0.8468                 0.0104                 0.0964

                     7                      8                      9
                     A                      A                      A
 Frequencies --    98.0161               101.3504               133.1661
 Red. masses --     5.7709                 4.1253                 4.0210
 Frc consts  --     0.0327                 0.0250                 0.0420
 IR Inten    --     1.0826                 0.6451                 0.6562

                    10                     11                     12
                     A                      A                      A
 Frequencies --   139.7328               188.7737               211.2246
 Red. masses --     4.7594                 2.5000                 3.5053
 Frc consts  --     0.0548                 0.0525                 0.0921
 IR Inten    --     1.0031                 0.6353                 0.1009

                    13                     14                     15
                     A                      A                      A
 Frequencies --   236.3737               246.9496               299.9571
 Red. masses --     1.1734                 1.5557                 2.5465
 Frc consts  --     0.0386                 0.0559                 0.1350
 IR Inten    --     0.4833                 2.5916                 3.5783

                    16                     17                     18
                     A                      A                      A
 Frequencies --   320.6717               354.0144               383.0892
 Red. masses --     5.1998                 4.3277                 6.1271
 Frc consts  --     0.3150                 0.3196                 0.5298
 IR Inten    --     1.2287                 1.1194                 9.1241

                    19                     20                     21
                     A                      A                      A
 Frequencies --   406.2343               417.7625               427.6692
 Red. masses --     2.6224                 3.0297                 3.1473
 Frc consts  --     0.2550                 0.3115                 0.3392
 IR Inten    --     6.6372                 0.9839                 1.0581

                    22                     23                     24
                     A                      A                      A
 Frequencies --   440.0132               447.8241               497.1548
 Red. masses --     3.9423                 4.0977                 3.1258
 Frc consts  --     0.4497                 0.4842                 0.4552
 IR Inten    --     1.6831                 1.9641                 6.0444

                    25                     26                     27
                     A                      A                      A
 Frequencies --   518.0212               562.3515               611.5179
 Red. masses --     3.4294                 2.6816                 5.1659
 Frc consts  --     0.5422                 0.4996                 1.1382
 IR Inten    --     6.1116                 2.7410                 1.6930

                    28                     29                     30
                     A                      A                      A
 Frequencies --   631.3185               637.5618               655.4607
 Red. masses --     6.1276                 4.6263                 6.1983
 Frc consts  --     1.4389                 1.1080                 1.5690
 IR Inten    --     1.4786                 7.8134                 4.1248

                    31                     32                     33
                     A                      A                      A
 Frequencies --   713.7454               725.5428               739.6508
 Red. masses --     1.9868                 3.6987                 4.6958
 Frc consts  --     0.5963                 1.1472                 1.5136
 IR Inten    --    19.0617                 6.9996                 2.0048

                    34                     35                     36
                     A                      A                      A
 Frequencies --   748.4868               774.7794               786.3956
 Red. masses --    10.2500                 1.8975                 1.4443
 Frc consts  --     3.3833                 0.6711                 0.5262
 IR Inten    --    17.4414                40.3612                10.9854

                    37                     38                     39
                     A                      A                      A
 Frequencies --   789.1960               824.1970               836.6019
 Red. masses --     1.2078                 2.1859                 1.2940
 Frc consts  --     0.4432                 0.8749                 0.5336
 IR Inten    --    10.2586                 6.2911                 0.1122

                    40                     41                     42
                     A                      A                      A
 Frequencies --   845.7390               859.9205               866.8979
 Red. masses --     3.5552                 1.2678                 2.1124
 Frc consts  --     1.4983                 0.5523                 0.9353
 IR Inten    --     2.1713                 0.5580                26.8432

                    43                     44                     45
                     A                      A                      A
 Frequencies --   927.6760               947.7429               958.9453
 Red. masses --     1.4102                 2.2192                 1.3184
 Frc consts  --     0.7150                 1.1744                 0.7143
 IR Inten    --     1.3400                 5.8041                 0.1438

                    46                     47                     48
                     A                      A                      A
 Frequencies --   961.5133               968.7591               977.7482
 Red. masses --     1.3307                 1.3510                 2.7715
 Frc consts  --     0.7248                 0.7471                 1.5611
 IR Inten    --     3.1084                 1.1604                70.7794

                    49                     50                     51
                     A                      A                      A
 Frequencies --   994.4264              1016.9060              1025.7310
 Red. masses --     1.2455                 6.0249                 6.1088
 Frc consts  --     0.7257                 3.6708                 3.7868
 IR Inten    --     0.1204                 1.4205                18.0155

                    52                     53                     54
                     A                      A                      A
 Frequencies --  1044.6397              1065.0346              1072.2786
 Red. masses --     2.7633                 2.8585                 1.9337
 Frc consts  --     1.7767                 1.9104                 1.3100
 IR Inten    --     0.3694                16.7877                 8.0525

                    55                     56                     57
                     A                      A                      A
 Frequencies --  1103.2249              1113.5601              1121.6118
 Red. masses --     1.9522                 1.6112                 1.7903
 Frc consts  --     1.3999                 1.1772                 1.3269
 IR Inten    --     6.2326                 3.6567                34.5831

                    58                     59                     60
                     A                      A                      A
 Frequencies --  1124.4092              1142.9565              1189.4284
 Red. masses --     1.6440                 1.3106                 2.3122
 Frc consts  --     1.2246                 1.0087                 1.9273
 IR Inten    --    43.1386                 6.3647               185.7950

                    61                     62                     63
                     A                      A                      A
 Frequencies --  1193.1906              1205.8316              1218.4880
 Red. masses --     1.0961                 1.2451                 1.1555
 Frc consts  --     0.9194                 1.0667                 1.0108
 IR Inten    --     0.1018               143.5033                13.9471

                    64                     65                     66
                     A                      A                      A
 Frequencies --  1252.3835              1266.0966              1312.8655
 Red. masses --     3.2249                 2.7865                 2.6395
 Frc consts  --     2.9802                 2.6318                 2.6805
 IR Inten    --   587.1075               112.4568                63.4066

                    67                     68                     69
                     A                      A                      A
 Frequencies --  1314.5706              1316.6331              1342.7817
 Red. masses --     3.2102                 1.7301                 1.8282
 Frc consts  --     3.2685                 1.7671                 1.9422
 IR Inten    --     2.0023               211.6754                 7.8605

                    70                     71                     72
                     A                      A                      A
 Frequencies --  1349.6949              1366.4673              1370.7696
 Red. masses --     3.6946                 1.3729                 1.7139
 Frc consts  --     3.9654                 1.5104                 1.8974
 IR Inten    --     5.6641                38.0208                 1.1608

                    73                     74                     75
                     A                      A                      A
 Frequencies --  1402.9697              1419.9334              1434.8252
 Red. masses --     1.2339                 1.3259                 1.2650
 Frc consts  --     1.4309                 1.5750                 1.5344
 IR Inten    --    11.2349                44.4453                17.3682

                    76                     77                     78
                     A                      A                      A
 Frequencies --  1438.6950              1451.1223              1457.1129
 Red. masses --     1.3263                 2.8488                 1.8002
 Frc consts  --     1.6175                 3.5344                 2.2519
 IR Inten    --    86.5994                 5.1540               236.4446

                    79                     80                     81
                     A                      A                      A
 Frequencies --  1497.0004              1505.0702              1517.6423
 Red. masses --     2.3746                 1.0686                 1.0476
 Frc consts  --     3.1353                 1.4262                 1.4217
 IR Inten    --     3.2218                 5.8351                 1.1979

                    82                     83                     84
                     A                      A                      A
 Frequencies --  1521.9108              1526.3785              1533.1474
 Red. masses --     1.1171                 1.0476                 1.0621
 Frc consts  --     1.5245                 1.4381                 1.4708
 IR Inten    --    77.9831                 8.0976                14.9426

                    85                     86                     87
                     A                      A                      A
 Frequencies --  1539.3187              1540.9624              1564.9940
 Red. masses --     1.7385                 1.2082                 2.6474
 Frc consts  --     2.4270                 1.6904                 3.8203
 IR Inten    --    58.4296                 5.6909                36.7472

                    88                     89                     90
                     A                      A                      A
 Frequencies --  1624.7701              1641.6978              1661.8934
 Red. masses --     5.6932                 6.2892                 5.5499
 Frc consts  --     8.8551                 9.9869                 9.0311
 IR Inten    --     0.4891                 2.6457                16.7117

                    91                     92                     93
                     A                      A                      A
 Frequencies --  1667.1962              1807.9765              3055.3273
 Red. masses --     5.8512                11.3884                 1.0362
 Frc consts  --     9.5823                21.9330                 5.6991
 IR Inten    --     6.2674               352.9612                10.4648

                    94                     95                     96
                     A                      A                      A
 Frequencies --  3057.8834              3067.8529              3076.4051
 Red. masses --     1.0367                 1.0656                 1.0636
 Frc consts  --     5.7114                 5.9089                 5.9311
 IR Inten    --    34.0248                 3.0135                66.2505

                    97                     98                     99
                     A                      A                      A
 Frequencies --  3114.2421              3119.6736              3127.8074
 Red. masses --     1.1028                 1.1024                 1.0996
 Frc consts  --     6.3018                 6.3210                 6.3384
 IR Inten    --    16.8862                12.3369                38.4557

                   100                    101                    102
                     A                      A                      A
 Frequencies --  3130.6314              3145.1443              3150.3300
 Red. masses --     1.0978                 1.1035                 1.1042
 Frc consts  --     6.3393                 6.4315                 6.4569
 IR Inten    --    21.3880                22.4849                45.2333

                   103                    104                    105
                     A                      A                      A
 Frequencies --  3179.6165              3185.7351              3194.8662
 Red. masses --     1.0845                 1.0873                 1.0900
 Frc consts  --     6.4602                 6.5014                 6.5553
 IR Inten    --     5.7876                 2.5971                30.1788

                   106                    107                    108
                     A                      A                      A
 Frequencies --  3197.9126              3200.3316              3203.2498
 Red. masses --     1.0897                 1.0902                 1.0920
 Frc consts  --     6.5656                 6.5789                 6.6015
 IR Inten    --     4.1776                 3.6943                34.4418

                   109                    110                    111
                     A                      A                      A
 Frequencies --  3210.5649              3216.3120              3254.7069
 Red. masses --     1.0978                 1.0944                 1.0929
 Frc consts  --     6.6671                 6.6700                 6.8211
 IR Inten    --    26.3626                 9.1440                 2.5202

 - Thermochemistry -
 -------------------
 Temperature   298.150 Kelvin.  Pressure   1.00000 Atm.
 Atom     1 has atomic number  6 and mass  12.00000

 Molecular mass:   269.14158 amu.
 Principal axes and moments of inertia in atomic units:
                           1         2         3
     Eigenvalues --  1554.23126********************
           X            0.99999  -0.00367  -0.00227
           Y            0.00373   0.99968   0.02519
           Z            0.00217  -0.02520   0.99968
 This molecule is an asymmetric top.
 Rotational symmetry number  1.
 Warning -- assumption of classical behavior for rotation
           may cause significant error
 Rotational temperatures (Kelvin)      0.05573     0.00559     0.00540
 Rotational constants (GHZ):           1.16118     0.11654     0.11251
 Zero-point vibrational energy     859345.8 (Joules/Mol)
                                  205.38857 (Kcal/Mol)
 Warning -- explicit consideration of  27 degrees of freedom as
           vibrations may cause significant error
 Vibrational temperatures:     26.78    35.17    55.37    75.26   102.69
          (Kelvin)            114.01   141.02   145.82   191.60   201.04
                              271.60   303.90   340.09   355.30   431.57
                              461.37   509.35   551.18   584.48   601.07
                              615.32   633.08   644.32   715.29   745.32
                              809.10   879.84   908.33   917.31   943.06
                             1026.92  1043.89  1064.19  1076.90  1114.73
                             1131.45  1135.48  1185.83  1203.68  1216.83
                             1237.23  1247.27  1334.72  1363.59  1379.71
                             1383.40  1393.83  1406.76  1430.76  1463.10
                             1475.80  1503.00  1532.35  1542.77  1587.29
                             1602.16  1613.75  1617.77  1644.46  1711.32
                             1716.73  1734.92  1753.13  1801.90  1821.63
                             1888.92  1891.37  1894.34  1931.96  1941.91
                             1966.04  1972.23  2018.56  2042.96  2064.39
                             2069.96  2087.84  2096.46  2153.85  2165.46
                             2183.55  2189.69  2196.12  2205.85  2214.73
                             2217.10  2251.67  2337.68  2362.03  2391.09
                             2398.72  2601.27  4395.93  4399.61  4413.95
                             4426.26  4480.69  4488.51  4500.21  4504.27
                             4525.16  4532.62  4574.75  4583.56  4596.69
                             4601.08  4604.56  4608.76  4619.28  4627.55
                             4682.79

 Zero-point correction=                           0.327308 (Hartree/Particle)
 Thermal correction to Energy=                    0.346017
 Thermal correction to Enthalpy=                  0.346962
 Thermal correction to Gibbs Free Energy=         0.277667
 Sum of electronic and zero-point Energies=           -864.155814
 Sum of electronic and thermal Energies=              -864.137104
 Sum of electronic and thermal Enthalpies=            -864.136160
 Sum of electronic and thermal Free Energies=         -864.205455

                     E (Thermal)             CV                S
                      KCal/Mol        Cal/Mol-Kelvin    Cal/Mol-Kelvin
 Total                  217.129             71.000            145.843
 Electronic               0.000              0.000              0.000
 Translational            0.889              2.981             42.669
 Rotational               0.889              2.981             34.312
 Vibrational            215.352             65.039             68.862
 Vibration     1          0.593              1.986              6.777
 Vibration     2          0.593              1.985              6.236
 Vibration     3          0.594              1.982              5.336
 Vibration     4          0.596              1.977              4.728
 Vibration     5          0.598              1.968              4.115
 Vibration     6          0.600              1.963              3.910
 Vibration     7          0.603              1.951              3.493
 Vibration     8          0.604              1.948              3.428
 Vibration     9          0.613              1.920              2.900
 Vibration    10          0.615              1.914              2.808
 Vibration    11          0.633              1.855              2.240
 Vibration    12          0.643              1.824              2.033
 Vibration    13          0.655              1.785              1.830
 Vibration    14          0.661              1.768              1.752
 Vibration    15          0.692              1.674              1.417
 Vibration    16          0.706              1.634              1.307
 Vibration    17          0.730              1.567              1.148
 Vibration    18          0.752              1.506              1.027
 Vibration    19          0.771              1.457              0.940
 Vibration    20          0.781              1.432              0.900
 Vibration    21          0.789              1.410              0.866
 Vibration    22          0.800              1.383              0.827
 Vibration    23          0.807              1.366              0.802
 Vibration    24          0.853              1.256              0.665
 Vibration    25          0.873              1.210              0.615
 Vibration    26          0.918              1.113              0.519
 Vibration    27          0.971              1.007              0.430

 Normal termination of Gaussian 09 at Thu Sep 30 03:12:08 2021.
 Gaussian 09:  AM64L-G09RevA.02 11-Jun-2009

 ----------------------------------------------------------------------
 #p TD(NStates=10, Root=1) b3lyp/6-31G* volume pop=NPA density=current
 Geom=AllCheck Guess=Read
 ----------------------------------------------------------------------

 CCN(C(=O)Oc1ccc(cc1)c1ccccc1)CC_conf_0
 --------------------------------------
 Redundant internal coordinates taken from checkpoint file:
 C17H19NO2_7772_conf_0.chk
 Charge =  0 Multiplicity = 1

                         Standard orientation:
 ---------------------------------------------------------------------
 Center     Atomic      Atomic             Coordinates (Angstroms)
 Number     Number       Type             X           Y           Z
 ---------------------------------------------------------------------
      1          6           0       -5.516878   -0.912624    1.591739
      2          6           0       -5.125417   -1.139276    0.128487
      3          7           0       -4.067499   -0.244749   -0.359848
      4          6           0       -2.788388   -0.575848   -0.023988
      5          8           0       -2.462463   -1.563326    0.608455
      6          8           0       -1.900587    0.368239   -0.503242
      7          6           0       -0.531157    0.200066   -0.326625
      8          6           0        0.129161   -1.008013   -0.553338
      9          6           0        1.516029   -1.053422   -0.431231
     10          6           0        2.268318    0.085393   -0.097474
     11          6           0        1.573659    1.287430    0.115792
     12          6           0        0.187142    1.347338    0.006216
     13          6           0        3.746885    0.021494    0.024150
     14          6           0        4.511218   -0.771664   -0.848706
     15          6           0        5.899140   -0.833216   -0.733486
     16          6           0        6.556401   -0.099749    0.255938
     17          6           0        5.811384    0.694363    1.129582
     18          6           0        4.423194    0.752748    1.015686
     19          6           0       -4.412316    0.980663   -1.090739
     20          6           0       -4.560849    2.225178   -0.209385
     21          1           0       -6.293057   -1.628561    1.886788
     22          1           0       -5.907028    0.097398    1.756239
     23          1           0       -4.649526   -1.063824    2.240540
     24          1           0       -5.991123   -0.999565   -0.527476
     25          1           0       -4.773858   -2.166796    0.002143
     26          1           0       -0.433367   -1.900764   -0.792961
     27          1           0        2.022445   -2.003304   -0.576476
     28          1           0        2.126288    2.193430    0.347085
     29          1           0       -0.347110    2.279572    0.161499
     30          1           0        4.013607   -1.324891   -1.640450
     31          1           0        6.468968   -1.448680   -1.424885
     32          1           0        7.638353   -0.146752    0.345443
     33          1           0        6.310951    1.263044    1.909694
     34          1           0        3.851765    1.351131    1.720015
     35          1           0       -5.350445    0.780358   -1.619814
     36          1           0       -3.646331    1.153985   -1.849545
     37          1           0       -5.359020    2.103554    0.530325
     38          1           0       -4.802711    3.097107   -0.828649
     39          1           0       -3.627066    2.432328    0.322009
 ---------------------------------------------------------------------

 SCF Done:  E(RB3LYP) =  -864.483121765     A.U. after    2 cycles

 Excitation energies and oscillator strengths:

 Excited State   1:      Singlet-A      4.8357 eV  256.40 nm  f=0.7121  <S**2>=0.000
      72 -> 73         0.69590
 This state for optimization and/or second-order correction.
 Total Energy, E(TD-HF/TD-KS) =  -864.305414260
 Copying the excited state density for this state as the 1-particle RhoCI density.

 Excited State   2:      Singlet-A      4.9240 eV  251.79 nm  f=0.0025  <S**2>=0.000
      69 -> 73         0.30263
      70 -> 73         0.23742
      72 -> 74         0.57767

 Excited State   3:      Singlet-A      5.0254 eV  246.72 nm  f=0.0010  <S**2>=0.000
      69 -> 73         0.27976
      70 -> 73        -0.34790
      72 -> 75         0.52948

 Excited State   4:      Singlet-A      5.4993 eV  225.46 nm  f=0.0004  <S**2>=0.000
      71 -> 73         0.69961

 Excited State   5:      Singlet-A      5.6985 eV  217.57 nm  f=0.0193  <S**2>=0.000
      68 -> 75         0.22442
      69 -> 73         0.16303
      70 -> 73         0.49404
      72 -> 74        -0.30323
      72 -> 75         0.26329

 Excited State   6:      Singlet-A      5.8161 eV  213.17 nm  f=0.0657  <S**2>=0.000
      67 -> 73        -0.16152
      68 -> 73         0.13378
      68 -> 74         0.23738
      69 -> 73         0.46987
      72 -> 74        -0.18874
      72 -> 75        -0.32386
      72 -> 76        -0.10058

 Excited State   7:      Singlet-A      5.8483 eV  212.00 nm  f=0.0136  <S**2>=0.000
      68 -> 73         0.53916
      69 -> 73        -0.12211
      72 -> 76        -0.40760

 Excited State   8:      Singlet-A      5.9787 eV  207.38 nm  f=0.0026  <S**2>=0.000
      71 -> 74         0.65509
      71 -> 75         0.25059

 Excited State   9:      Singlet-A      6.0532 eV  204.82 nm  f=0.0142  <S**2>=0.000
      69 -> 74        -0.16612
      70 -> 74         0.62411
      70 -> 75         0.21332
      72 -> 76         0.15649

 Excited State  10:      Singlet-A      6.0713 eV  204.21 nm  f=0.0059  <S**2>=0.000
      67 -> 73         0.63582
      67 -> 76         0.15291
      68 -> 74         0.15634

 The electronic state is 1-A.
 Alpha  occ. eigenvalues --  -19.19512 -19.11650 -14.36489 -10.33071 -10.24881
 Alpha  occ. eigenvalues --  -10.22774 -10.22279 -10.19619 -10.19528 -10.19047
 Alpha  occ. eigenvalues --  -10.18954 -10.18910 -10.18765 -10.18750 -10.18718
 Alpha  occ. eigenvalues --  -10.18658 -10.18610 -10.18606 -10.18397 -10.17763
 Alpha  occ. eigenvalues --   -1.10457  -1.01418  -0.93951  -0.86347  -0.84187
 Alpha  occ. eigenvalues --   -0.77817  -0.77101  -0.74886  -0.74698  -0.73923
 Alpha  occ. eigenvalues --   -0.71656  -0.66344  -0.64101  -0.62334  -0.61587
 Alpha  occ. eigenvalues --   -0.59361  -0.58266  -0.55717  -0.52985  -0.52167
 Alpha  occ. eigenvalues --   -0.49002  -0.48072  -0.47574  -0.46094  -0.45742
 Alpha  occ. eigenvalues --   -0.44169  -0.43950  -0.43573  -0.43165  -0.43093
 Alpha  occ. eigenvalues --   -0.42324  -0.41750  -0.41457  -0.39557  -0.39063
 Alpha  occ. eigenvalues --   -0.38660  -0.37703  -0.37025  -0.36696  -0.36208
 Alpha  occ. eigenvalues --   -0.35502  -0.34939  -0.34294  -0.33795  -0.33258
 Alpha  occ. eigenvalues --   -0.31274  -0.27216  -0.26268  -0.24887  -0.24700
 Alpha  occ. eigenvalues --   -0.24255  -0.21444
 Alpha virt. eigenvalues --   -0.02301  -0.00159   0.00318   0.03012   0.05480
 Alpha virt. eigenvalues --    0.08466   0.09679   0.09987   0.10917   0.11933
 Alpha virt. eigenvalues --    0.12709   0.13323   0.14378   0.15072   0.15430

 Mulliken atomic charges:
              1
     1  C   -0.449428
     2  C   -0.136601
     3  N   -0.440214
     4  C    0.785805
     5  O   -0.513114
     6  O   -0.536549
     7  C    0.344733
     8  C   -0.134847
     9  C   -0.185918
    10  C    0.093184
    11  C   -0.183075
    12  C   -0.164724
    13  C    0.068593
    14  C   -0.173583
    15  C   -0.133295
    16  C   -0.145966
    17  C   -0.132798
    18  C   -0.174220
    19  C   -0.137319
    20  C   -0.445720
    21  H    0.149501
    22  H    0.147770
    23  H    0.181360
    24  H    0.143294
    25  H    0.180732
    26  H    0.164079
    27  H    0.145203
    28  H    0.141373
    29  H    0.144003
    30  H    0.120368
    31  H    0.121728
    32  H    0.117944
    33  H    0.121761
    34  H    0.120390
    35  H    0.149870
    36  H    0.175265
    37  H    0.155332
    38  H    0.150564
    39  H    0.164521
 Sum of Mulliken atomic charges =  -0.00000

 Dipole moment (field-independent basis, Debye):
    X=             -4.6329    Y=              1.6800    Z=             -1.3082  Tot=              5.0988
 Quadrupole moment (field-independent basis, Debye-Ang):
   XX=           -101.7784   YY=           -115.2805   ZZ=           -117.8327
   XY=             -3.9408   XZ=              3.8276   YZ=              5.3809

 Summary of Natural Population Analysis:

                                       Natural Population
                Natural  -----------------------------------------------
    Atom  No    Charge         Core      Valence    Rydberg      Total
 -----------------------------------------------------------------------
      C    1   -0.68802      1.99945     4.68115    0.00742     6.68802
      C    2   -0.25406      1.99935     4.23904    0.01567     6.25406
      N    3   -0.48360      1.99930     5.47106    0.01323     7.48360
      C    4    0.92730      1.99937     3.02791    0.04542     5.07270
      O    5   -0.64381      1.99978     6.62477    0.01926     8.64381
      O    6   -0.52283      1.99969     6.51258    0.01055     8.52283
      C    7    0.30387      1.99870     3.67446    0.02297     5.69613
      C    8   -0.25346      1.99902     4.23981    0.01463     6.25346
      C    9   -0.20852      1.99907     4.19498    0.01448     6.20852
      C   10   -0.01344      1.99902     3.99753    0.01689     6.01344
      C   11   -0.22463      1.99906     4.21081    0.01476     6.22463
      C   12   -0.24539      1.99903     4.23131    0.01506     6.24539
      C   13   -0.09032      1.99901     4.07439    0.01692     6.09032
      C   14   -0.22264      1.99905     4.20923    0.01435     6.22264
      C   15   -0.23668      1.99911     4.22262    0.01495     6.23668
      C   16   -0.25842      1.99909     4.24246    0.01687     6.25842
      C   17   -0.23529      1.99911     4.22127    0.01491     6.23529
      C   18   -0.22471      1.99905     4.21122    0.01444     6.22471
      C   19   -0.25916      1.99934     4.24456    0.01526     6.25916
      C   20   -0.68652      1.99944     4.67968    0.00739     6.68652
      H   21    0.23655      0.00000     0.76254    0.00091     0.76345
      H   22    0.22316      0.00000     0.77581    0.00102     0.77684
      H   23    0.24729      0.00000     0.75142    0.00129     0.75271
      H   24    0.22872      0.00000     0.76988    0.00139     0.77128
      H   25    0.25509      0.00000     0.74286    0.00204     0.74491
      H   26    0.26124      0.00000     0.73749    0.00127     0.73876
      H   27    0.24312      0.00000     0.75555    0.00132     0.75688
      H   28    0.24190      0.00000     0.75677    0.00133     0.75810
      H   29    0.24640      0.00000     0.75237    0.00123     0.75360
      H   30    0.22852      0.00000     0.77009    0.00139     0.77148
      H   31    0.23247      0.00000     0.76660    0.00092     0.76753
      H   32    0.22859      0.00000     0.77032    0.00109     0.77141
      H   33    0.23244      0.00000     0.76663    0.00093     0.76756
      H   34    0.22860      0.00000     0.76997    0.00143     0.77140
      H   35    0.23326      0.00000     0.76521    0.00153     0.76674
      H   36    0.25107      0.00000     0.74717    0.00176     0.74893
      H   37    0.22795      0.00000     0.77106    0.00099     0.77205
      H   38    0.23688      0.00000     0.76213    0.00098     0.76312
      H   39    0.23705      0.00000     0.76158    0.00137     0.76295
 =======================================================================
   * Total *   -0.00000     39.98404   103.66631    0.34964   144.00000

 Normal termination of Gaussian 09 at Thu Sep 30 10:21:50 2021.
