 Gaussian 09, Revision A.02,

 -----------------------------------
 #p opt b3lyp/6-31G* scf=(xqc,tight)
 -----------------------------------

 -----------------------------------
 COc1ccc2c(c1)cc(cc2)c1ccccc1_conf_0
 -----------------------------------
 Symbolic Z-matrix:
 Charge =  0 Multiplicity = 1

 SCF Done:  E(RB3LYP) =  -731.466649768     A.U. after   14 cycles
 SCF Done:  E(RB3LYP) =  -731.471197890     A.U. after   12 cycles
 SCF Done:  E(RB3LYP) =  -731.471522083     A.U. after   12 cycles
 SCF Done:  E(RB3LYP) =  -731.471547631     A.U. after   10 cycles
 SCF Done:  E(RB3LYP) =  -731.471551393     A.U. after    9 cycles
 SCF Done:  E(RB3LYP) =  -731.471552037     A.U. after    8 cycles
 SCF Done:  E(RB3LYP) =  -731.471552371     A.U. after    7 cycles
 SCF Done:  E(RB3LYP) =  -731.471552585     A.U. after    7 cycles
 SCF Done:  E(RB3LYP) =  -731.471552593     A.U. after    7 cycles
 Optimization completed.
    -- Stationary point found.
 Normal termination of Gaussian 09 at Tue Sep 28 16:54:56 2021.

 ----------------------------------------------------------------------
 #p freq b3lyp/6-31G* volume NMR pop=NPA density=current Geom=AllCheck
 Guess=Read
 ----------------------------------------------------------------------

 COc1ccc2c(c1)cc(cc2)c1ccccc1_conf_0
 -----------------------------------
 Redundant internal coordinates taken from checkpoint file:
 C17H14O_1807_conf_0.chk
 Charge =  0 Multiplicity = 1

 SCF Done:  E(RB3LYP) =  -731.471552593     A.U. after    1 cycles

  1  C    Isotropic =   137.3586   Anisotropy =    65.2841

  2  O    Isotropic =   240.1154   Anisotropy =    70.9032

  3  C    Isotropic =    40.7944   Anisotropy =   122.4520

  4  C    Isotropic =    84.8054   Anisotropy =   144.4927

  5  C    Isotropic =    66.3969   Anisotropy =   144.2575

  6  C    Isotropic =    68.8719   Anisotropy =   189.8899

  7  C    Isotropic =    61.6915   Anisotropy =   193.1111

  8  C    Isotropic =    81.7224   Anisotropy =   112.5432

  9  C    Isotropic =    69.9276   Anisotropy =   130.7836

 10  C    Isotropic =    55.3636   Anisotropy =   170.9178

 11  C    Isotropic =    72.3013   Anisotropy =   145.1573

 12  C    Isotropic =    67.0818   Anisotropy =   143.3810

 13  C    Isotropic =    53.6153   Anisotropy =   176.5788

 14  C    Isotropic =    68.4424   Anisotropy =   155.4642

 15  C    Isotropic =    67.8875   Anisotropy =   164.5391

 16  C    Isotropic =    69.5404   Anisotropy =   164.8295

 17  C    Isotropic =    67.7165   Anisotropy =   164.3609

 18  C    Isotropic =    68.3276   Anisotropy =   153.8491

 19  H    Isotropic =    28.2019   Anisotropy =     8.3174

 20  H    Isotropic =    28.4945   Anisotropy =     8.4160

 21  H    Isotropic =    28.4928   Anisotropy =     8.3877

 22  H    Isotropic =    25.3488   Anisotropy =     7.8638

 23  H    Isotropic =    24.5915   Anisotropy =     7.1136

 24  H    Isotropic =    25.1344   Anisotropy =     8.8077

 25  H    Isotropic =    24.5963   Anisotropy =    10.8588

 26  H    Isotropic =    24.8262   Anisotropy =     8.5404

 27  H    Isotropic =    24.6137   Anisotropy =     7.0651

 28  H    Isotropic =    24.7624   Anisotropy =     8.9545

 29  H    Isotropic =    24.8596   Anisotropy =     4.9637

 30  H    Isotropic =    24.9932   Anisotropy =     4.1882

 31  H    Isotropic =    24.8600   Anisotropy =     5.0980

 32  H    Isotropic =    24.6614   Anisotropy =     9.0476

  Exact polarizability: 334.032   1.837 174.587  -5.294   7.691  77.297
 Approx polarizability: 472.025  -6.497 318.354 -10.396  15.136 124.658

                     1                      2                      3
                     A                      A                      A
 Frequencies --    41.5790                59.8787                74.7200
 Red. masses --     3.8023                 3.6750                 3.9641
 Frc consts  --     0.0039                 0.0078                 0.0130
 IR Inten    --     1.0676                 1.9775                 0.9955

                     4                      5                      6
                     A                      A                      A
 Frequencies --    82.1579               137.3418               173.9409
 Red. masses --     4.5472                 4.3611                 4.1189
 Frc consts  --     0.0181                 0.0485                 0.0734
 IR Inten    --     0.3751                 0.9162                 0.0557

                     7                      8                      9
                     A                      A                      A
 Frequencies --   204.3187               243.1819               249.5909
 Red. masses --     3.9117                 1.5690                 2.6899
 Frc consts  --     0.0962                 0.0547                 0.0987
 IR Inten    --     1.0387                 0.2071                 0.2642

                    10                     11                     12
                     A                      A                      A
 Frequencies --   296.1075               315.9103               337.9685
 Red. masses --     4.4962                 3.6993                 4.2771
 Frc consts  --     0.2323                 0.2175                 0.2878
 IR Inten    --     0.2765                 1.4386                 0.8290

                    13                     14                     15
                     A                      A                      A
 Frequencies --   389.6824               418.9112               422.2720
 Red. masses --     5.0608                 3.1780                 3.8655
 Frc consts  --     0.4528                 0.3286                 0.4061
 IR Inten    --     0.4449                 0.1786                 1.0645

                    16                     17                     18
                     A                      A                      A
 Frequencies --   458.6317               487.7692               524.2855
 Red. masses --     3.7341                 2.6543                 3.7447
 Frc consts  --     0.4628                 0.3721                 0.6065
 IR Inten    --     1.2682                 7.9632                 4.2885

                    19                     20                     21
                     A                      A                      A
 Frequencies --   554.6232               578.3678               619.3470
 Red. masses --     4.4869                 6.5966                 4.3407
 Frc consts  --     0.8132                 1.3001                 0.9810
 IR Inten    --    11.0022                 2.4045                 0.5631

                    22                     23                     24
                     A                      A                      A
 Frequencies --   632.9287               647.6342               666.3932
 Red. masses --     6.1860                 6.7980                 2.7799
 Frc consts  --     1.4601                 1.6799                 0.7273
 IR Inten    --     0.6344                 2.7771                 0.4144

                    25                     26                     27
                     A                      A                      A
 Frequencies --   699.7263               714.7564               749.8683
 Red. masses --     5.7089                 1.8185                 5.3558
 Frc consts  --     1.6469                 0.5474                 1.7744
 IR Inten    --    13.4583                23.1555                10.0445

                    28                     29                     30
                     A                      A                      A
 Frequencies --   764.6290               776.5221               791.2914
 Red. masses --     2.9879                 1.8982                 4.5019
 Frc consts  --     1.0292                 0.6744                 1.6608
 IR Inten    --     9.6249                18.1788                 0.9831

                    31                     32                     33
                     A                      A                      A
 Frequencies --   808.0310               850.7229               861.0814
 Red. masses --     1.5808                 1.6143                 1.2497
 Frc consts  --     0.6081                 0.6883                 0.5459
 IR Inten    --     9.5744                29.2447                 0.3555

                    34                     35                     36
                     A                      A                      A
 Frequencies --   867.6136               914.5135               930.7710
 Red. masses --     1.3949                 1.4914                 1.7014
 Frc consts  --     0.6186                 0.7349                 0.8685
 IR Inten    --    15.2735                23.1393                 2.0205

                    37                     38                     39
                     A                      A                      A
 Frequencies --   938.4828               946.3368               967.0741
 Red. masses --     3.2404                 1.2969                 1.3298
 Frc consts  --     1.6815                 0.6843                 0.7327
 IR Inten    --     9.1966                 0.8904                 0.4357

                    40                     41                     42
                     A                      A                      A
 Frequencies --   969.8735               971.2113               994.9077
 Red. masses --     2.0367                 1.9721                 1.2486
 Frc consts  --     1.1287                 1.0960                 0.7282
 IR Inten    --     2.8082                 3.2129                 0.1213

                    43                     44                     45
                     A                      A                      A
 Frequencies --  1017.0958              1046.4366              1070.7597
 Red. masses --     5.9999                 3.3877                 1.9054
 Frc consts  --     3.6570                 2.1857                 1.2871
 IR Inten    --     0.4762                 1.5234                 0.1996

                    46                     47                     48
                     A                      A                      A
 Frequencies --  1082.5871              1113.7607              1172.8836
 Red. masses --     3.6566                 1.5954                 1.5321
 Frc consts  --     2.5250                 1.1660                 1.2418
 IR Inten    --    48.5090                 3.2317                30.8894

                    49                     50                     51
                     A                      A                      A
 Frequencies --  1183.9561              1191.4282              1193.4087
 Red. masses --     1.2678                 1.2853                 1.1233
 Frc consts  --     1.0471                 1.0749                 0.9426
 IR Inten    --     0.7116                 1.3633                 0.3122

                    52                     53                     54
                     A                      A                      A
 Frequencies --  1207.2811              1215.1768              1219.2785
 Red. masses --     1.4214                 1.4061                 1.2364
 Frc consts  --     1.2206                 1.2233                 1.0830
 IR Inten    --    84.4976                 1.5959                11.9960

                    55                     56                     57
                     A                      A                      A
 Frequencies --  1266.5368              1285.5243              1304.6538
 Red. masses --     2.2404                 2.6740                 1.8911
 Frc consts  --     2.1175                 2.6036                 1.8965
 IR Inten    --     6.1804               135.7469                67.0639

                    58                     59                     60
                     A                      A                      A
 Frequencies --  1310.8930              1331.3832              1367.3270
 Red. masses --     2.4742                 3.1223                 1.9014
 Frc consts  --     2.5050                 3.2609                 2.0944
 IR Inten    --   111.7761                67.2785                 1.3047

                    61                     62                     63
                     A                      A                      A
 Frequencies --  1379.3972              1409.7085              1424.5243
 Red. masses --     1.9630                 4.2609                 5.7844
 Frc consts  --     2.2007                 4.9889                 6.9159
 IR Inten    --     6.7702                26.8457                 2.6548

                    64                     65                     66
                     A                      A                      A
 Frequencies --  1467.8168              1496.1222              1499.6521
 Red. masses --     3.3261                 2.4819                 1.3805
 Frc consts  --     4.2221                 3.2731                 1.8292
 IR Inten    --     7.5236                 7.5722                23.4219

                    67                     68                     69
                     A                      A                      A
 Frequencies --  1516.7686              1522.8113              1534.8090
 Red. masses --     1.8901                 1.0484                 1.0602
 Frc consts  --     2.5620                 1.4324                 1.4715
 IR Inten    --    10.2350                 5.1296                50.3588

                    70                     71                     72
                     A                      A                      A
 Frequencies --  1546.7996              1569.3528              1613.4438
 Red. masses --     2.3267                 3.1407                 6.6101
 Frc consts  --     3.2798                 4.5574                10.1383
 IR Inten    --    31.1309                67.5553                 6.3092

                    73                     74                     75
                     A                      A                      A
 Frequencies --  1635.7034              1661.6474              1663.8826
 Red. masses --     5.5190                 5.5176                 5.6539
 Frc consts  --     8.7000                 8.9760                 9.2225
 IR Inten    --     0.6468                11.4178                32.6267

                    76                     77                     78
                     A                      A                      A
 Frequencies --  1687.3030              3024.4091              3083.3143
 Red. masses --     6.3361                 1.0349                 1.1068
 Frc consts  --    10.6282                 5.5775                 6.1996
 IR Inten    --   150.3167                79.4193                45.2805

                    79                     80                     81
                     A                      A                      A
 Frequencies --  3155.6347              3177.8997              3180.1054
 Red. masses --     1.0994                 1.0877                 1.0847
 Frc consts  --     6.4505                 6.4722                 6.4632
 IR Inten    --    30.6923                 6.5742                 4.5531

                    82                     83                     84
                     A                      A                      A
 Frequencies --  3183.9511              3186.3726              3189.7381
 Red. masses --     1.0889                 1.0880                 1.0893
 Frc consts  --     6.5038                 6.5085                 6.5298
 IR Inten    --    19.9739                 8.1597                 6.6484

                    85                     86                     87
                     A                      A                      A
 Frequencies --  3197.3487              3202.9488              3205.3890
 Red. masses --     1.0910                 1.0939                 1.0905
 Frc consts  --     6.5715                 6.6119                 6.6014
 IR Inten    --    18.9359                17.3445                11.0618

                    88                     89                     90
                     A                      A                      A
 Frequencies --  3206.5828              3211.2862              3227.3995
 Red. masses --     1.0931                 1.0975                 1.0915
 Frc consts  --     6.6223                 6.6684                 6.6984
 IR Inten    --    28.4671                22.6407                15.2267

 - Thermochemistry -
 -------------------
 Temperature   298.150 Kelvin.  Pressure   1.00000 Atm.
 Atom     1 has atomic number  6 and mass  12.00000

 Molecular mass:   234.10447 amu.
 Principal axes and moments of inertia in atomic units:
                           1         2         3
     Eigenvalues --  1393.95678********************
           X            1.00000   0.00031  -0.00052
           Y           -0.00031   0.99997   0.00771
           Z            0.00052  -0.00771   0.99997
 This molecule is an asymmetric top.
 Rotational symmetry number  1.
 Warning -- assumption of classical behavior for rotation
           may cause significant error
 Rotational temperatures (Kelvin)      0.06214     0.00862     0.00771
 Rotational constants (GHZ):           1.29469     0.17960     0.16075
 Zero-point vibrational energy     686521.6 (Joules/Mol)
                                  164.08260 (Kcal/Mol)
 Warning -- explicit consideration of  21 degrees of freedom as
           vibrations may cause significant error
 Vibrational temperatures:     59.82    86.15   107.51   118.21   197.60
          (Kelvin)            250.26   293.97   349.88   359.11   426.03
                              454.52   486.26   560.67   602.72   607.55
                              659.87   701.79   754.33   797.98   832.14
                              891.10   910.64   931.80   958.79  1006.75
                             1028.37  1078.89  1100.13  1117.24  1138.49
                             1162.57  1224.00  1238.90  1248.30  1315.78
                             1339.17  1350.27  1361.57  1391.40  1395.43
                             1397.35  1431.45  1463.37  1505.59  1540.58
                             1557.60  1602.45  1687.52  1703.45  1714.20
                             1717.05  1737.01  1748.37  1754.27  1822.26
                             1849.58  1877.10  1886.08  1915.56  1967.28
                             1984.64  2028.25  2049.57  2111.86  2152.58
                             2157.66  2182.29  2190.98  2208.25  2225.50
                             2257.95  2321.38  2353.41  2390.74  2393.95
                             2427.65  4351.44  4436.20  4540.25  4572.28
                             4575.46  4580.99  4584.47  4589.32  4600.27
                             4608.32  4611.83  4613.55  4620.32  4643.50

 Zero-point correction=                           0.261482 (Hartree/Particle)
 Thermal correction to Energy=                    0.275637
 Thermal correction to Enthalpy=                  0.276581
 Thermal correction to Gibbs Free Energy=         0.219793
 Sum of electronic and zero-point Energies=           -731.210070
 Sum of electronic and thermal Energies=              -731.195916
 Sum of electronic and thermal Enthalpies=            -731.194972
 Sum of electronic and thermal Free Energies=         -731.251760

                     E (Thermal)             CV                S
                      KCal/Mol        Cal/Mol-Kelvin    Cal/Mol-Kelvin
 Total                  172.965             57.228            119.520
 Electronic               0.000              0.000              0.000
 Translational            0.889              2.981             42.254
 Rotational               0.889              2.981             33.419
 Vibrational            171.187             51.267             43.847
 Vibration     1          0.594              1.981              5.182
 Vibration     2          0.597              1.973              4.461
 Vibration     3          0.599              1.966              4.025
 Vibration     4          0.600              1.961              3.839
 Vibration     5          0.614              1.916              2.841
 Vibration     6          0.627              1.875              2.392
 Vibration     7          0.640              1.834              2.094
 Vibration     8          0.659              1.774              1.779
 Vibration     9          0.662              1.763              1.733
 Vibration    10          0.690              1.681              1.439
 Vibration    11          0.703              1.643              1.331
 Vibration    12          0.718              1.600              1.222
 Vibration    13          0.758              1.492              1.001
 Vibration    14          0.782              1.429              0.896
 Vibration    15          0.785              1.422              0.884
 Vibration    16          0.817              1.342              0.770
 Vibration    17          0.844              1.277              0.689
 Vibration    18          0.879              1.196              0.600
 Vibration    19          0.910              1.130              0.535
 Vibration    20          0.935              1.078              0.488
 Vibration    21          0.979              0.991              0.418

 Optimization completed.
    -- Stationary point found.
 Normal termination of Gaussian 09 at Tue Sep 28 18:01:13 2021.
 Gaussian 09:  AM64L-G09RevA.02 11-Jun-2009

 ----------------------------------------------------------------------
 #p TD(NStates=10, Root=1) b3lyp/6-31G* volume pop=NPA density=current
 Geom=AllCheck Guess=Read
 ----------------------------------------------------------------------

 COc1ccc2c(c1)cc(cc2)c1ccccc1_conf_0
 -----------------------------------
 Redundant internal coordinates taken from checkpoint file:
 C17H14O_1807_conf_0.chk
 Charge =  0 Multiplicity = 1

                         Standard orientation:
 ---------------------------------------------------------------------
 Center     Atomic      Atomic             Coordinates (Angstroms)
 Number     Number       Type             X           Y           Z
 ---------------------------------------------------------------------
      1          6           0        5.784647   -1.167567    0.190410
      2          8           0        4.418395   -1.545086    0.231445
      3          6           0        3.463456   -0.576293    0.095675
      4          6           0        3.758654    0.800891   -0.084095
      5          6           0        2.731237    1.711550   -0.211262
      6          6           0        1.374782    1.308558   -0.167784
      7          6           0        1.080998   -0.083435    0.009609
      8          6           0        2.148092   -1.002557    0.141329
      9          6           0       -0.278799   -0.494345    0.055319
     10          6           0       -1.320257    0.408725   -0.067368
     11          6           0       -1.008555    1.791129   -0.243062
     12          6           0        0.294242    2.222388   -0.292570
     13          6           0       -2.735476   -0.039218   -0.014385
     14          6           0       -3.715039    0.737054    0.628499
     15          6           0       -5.042239    0.313986    0.686181
     16          6           0       -5.421372   -0.894912    0.100023
     17          6           0       -4.460429   -1.675838   -0.545040
     18          6           0       -3.133877   -1.251724   -0.602984
     19          1           0        6.352109   -2.091470    0.317727
     20          1           0        6.040644   -0.473888    1.002367
     21          1           0        6.052539   -0.710948   -0.771761
     22          1           0        4.786010    1.144557   -0.121373
     23          1           0        2.962059    2.765488   -0.348095
     24          1           0        1.945473   -2.060596    0.279789
     25          1           0       -0.493327   -1.547135    0.220220
     26          1           0       -1.819315    2.502963   -0.367185
     27          1           0        0.515230    3.277450   -0.438705
     28          1           0       -3.427398    1.667556    1.110068
     29          1           0       -5.780166    0.927274    1.196937
     30          1           0       -6.456041   -1.224258    0.143494
     31          1           0       -4.745817   -2.613988   -1.014028
     32          1           0       -2.399551   -1.852663   -1.131991
 ---------------------------------------------------------------------

 SCF Done:  E(RB3LYP) =  -731.471552593     A.U. after    1 cycles

 Excitation energies and oscillator strengths:

 Excited State   1:      Singlet-A      3.8627 eV  320.97 nm  f=0.0213  <S**2>=0.000
      61 -> 63        -0.21338
      61 -> 64         0.12765
      62 -> 63         0.63352
      62 -> 64         0.15465
 This state for optimization and/or second-order correction.
 Total Energy, E(TD-HF/TD-KS) =  -731.329599249
 Copying the excited state density for this state as the 1-particle RhoCI density.

 Excited State   2:      Singlet-A      4.1879 eV  296.05 nm  f=0.0858  <S**2>=0.000
      61 -> 63         0.53820
      62 -> 63         0.27492
      62 -> 64        -0.34634

 Excited State   3:      Singlet-A      4.8308 eV  256.65 nm  f=0.4344  <S**2>=0.000
      60 -> 63         0.32739
      61 -> 63        -0.24174
      61 -> 65         0.17540
      62 -> 64        -0.36082
      62 -> 65         0.36419

 Excited State   4:      Singlet-A      4.8483 eV  255.72 nm  f=0.6233  <S**2>=0.000
      59 -> 63         0.10858
      60 -> 63         0.26605
      61 -> 63         0.27430
      61 -> 65         0.17404
      62 -> 64         0.42805
      62 -> 65         0.31385

 Excited State   5:      Singlet-A      5.0272 eV  246.63 nm  f=0.0058  <S**2>=0.000
      60 -> 63        -0.42363
      61 -> 65        -0.20967
      62 -> 65         0.50992

 Excited State   6:      Singlet-A      5.1256 eV  241.89 nm  f=0.0856  <S**2>=0.000
      59 -> 63        -0.14850
      61 -> 64         0.61135
      62 -> 66         0.25207

 Excited State   7:      Singlet-A      5.1922 eV  238.79 nm  f=0.0071  <S**2>=0.000
      59 -> 63         0.52083
      62 -> 66         0.43913

 Excited State   8:      Singlet-A      5.3829 eV  230.33 nm  f=0.0098  <S**2>=0.000
      60 -> 63        -0.34548
      60 -> 64         0.29625
      61 -> 65         0.51694

 Excited State   9:      Singlet-A      5.5315 eV  224.14 nm  f=0.0296  <S**2>=0.000
      58 -> 63         0.48815
      59 -> 63         0.24030
      61 -> 64         0.16599
      62 -> 66        -0.16184
      62 -> 67         0.35339

 Excited State  10:      Singlet-A      5.7562 eV  215.39 nm  f=0.1126  <S**2>=0.000
      58 -> 63        -0.16015
      58 -> 64        -0.18129
      59 -> 63         0.17020
      59 -> 64         0.18894
      60 -> 64         0.13519
      61 -> 64         0.11055
      61 -> 66         0.50627
      61 -> 67        -0.12566
      62 -> 66        -0.20229

 The electronic state is 1-A.
 Alpha  occ. eigenvalues --  -19.17686 -10.24714 -10.24212 -10.19585 -10.19552
 Alpha  occ. eigenvalues --  -10.19540 -10.19304 -10.19152 -10.19079 -10.18756
 Alpha  occ. eigenvalues --  -10.18755 -10.18733 -10.18661 -10.18609 -10.18573
 Alpha  occ. eigenvalues --  -10.18434 -10.18373 -10.17974  -1.06249  -0.87087
 Alpha  occ. eigenvalues --   -0.85161  -0.81726  -0.77436  -0.75926  -0.74225
 Alpha  occ. eigenvalues --   -0.73701  -0.71228  -0.68733  -0.63295  -0.61091
 Alpha  occ. eigenvalues --   -0.60106  -0.58666  -0.57894  -0.53076  -0.51903
 Alpha  occ. eigenvalues --   -0.51148  -0.48970  -0.46836  -0.46450  -0.45333
 Alpha  occ. eigenvalues --   -0.44841  -0.43721  -0.43403  -0.41801  -0.41737
 Alpha  occ. eigenvalues --   -0.40842  -0.40402  -0.38970  -0.38755  -0.36385
 Alpha  occ. eigenvalues --   -0.35752  -0.34796  -0.34480  -0.33569  -0.33153
 Alpha  occ. eigenvalues --   -0.32035  -0.30260  -0.27417  -0.25596  -0.24688
 Alpha  occ. eigenvalues --   -0.21643  -0.19928
 Alpha virt. eigenvalues --   -0.04061  -0.01174   0.00229   0.02037   0.04086
 Alpha virt. eigenvalues --    0.09362   0.09940   0.10868   0.10924   0.11943
 Alpha virt. eigenvalues --    0.12939   0.14166   0.14556   0.15452   0.16256

 Mulliken atomic charges:
              1
     1  C   -0.228491
     2  O   -0.465928
     3  C    0.389583
     4  C   -0.215033
     5  C   -0.201721
     6  C    0.151465
     7  C    0.146536
     8  C   -0.241607
     9  C   -0.271324
    10  C    0.073226
    11  C   -0.149648
    12  C   -0.214338
    13  C    0.082031
    14  C   -0.185154
    15  C   -0.134917
    16  C   -0.143386
    17  C   -0.133978
    18  C   -0.183325
    19  H    0.183645
    20  H    0.173778
    21  H    0.173743
    22  H    0.127950
    23  H    0.139209
    24  H    0.155667
    25  H    0.129671
    26  H    0.145710
    27  H    0.130290
    28  H    0.111463
    29  H    0.114889
    30  H    0.111721
    31  H    0.115014
    32  H    0.113258
 Sum of Mulliken atomic charges =  -0.00000

 Dipole moment (field-independent basis, Debye):
    X=              6.5827    Y=              0.4807    Z=             -0.0269  Tot=              6.6003
 Quadrupole moment (field-independent basis, Debye-Ang):
   XX=            -80.7244   YY=            -95.8388   ZZ=           -108.2373
   XY=             -3.3723   XZ=             -0.2202   YZ=              1.0118

 Summary of Natural Population Analysis:

                                       Natural Population
                Natural  -----------------------------------------------
    Atom  No    Charge         Core      Valence    Rydberg      Total
 -----------------------------------------------------------------------
      C    1   -0.32411      1.99942     4.31070    0.01399     6.32411
      O    2   -0.45344      1.99975     6.44211    0.01158     8.45344
      C    3    0.36476      1.99880     3.61421    0.02223     5.63524
      C    4   -0.38025      1.99905     4.36689    0.01431     6.38025
      C    5   -0.16608      1.99907     4.15186    0.01515     6.16608
      C    6   -0.06708      1.99902     4.05338    0.01468     6.06708
      C    7   -0.05440      1.99904     4.03996    0.01540     6.05440
      C    8   -0.20307      1.99900     4.18876    0.01531     6.20307
      C    9   -0.21879      1.99902     4.20552    0.01425     6.21879
      C   10   -0.08078      1.99903     4.06522    0.01653     6.08078
      C   11   -0.14159      1.99906     4.12923    0.01329     6.14159
      C   12   -0.22580      1.99907     4.21163    0.01510     6.22580
      C   13   -0.08067      1.99901     4.06580    0.01586     6.08067
      C   14   -0.23607      1.99905     4.22417    0.01286     6.23607
      C   15   -0.23292      1.99910     4.21969    0.01413     6.23292
      C   16   -0.26937      1.99909     4.25583    0.01444     6.26937
      C   17   -0.23018      1.99910     4.21707    0.01402     6.23018
      C   18   -0.23946      1.99905     4.22731    0.01310     6.23946
      H   19    0.23556      0.00000     0.76395    0.00049     0.76444
      H   20    0.21772      0.00000     0.78065    0.00164     0.78228
      H   21    0.21771      0.00000     0.78065    0.00164     0.78229
      H   22    0.23688      0.00000     0.76228    0.00084     0.76312
      H   23    0.23719      0.00000     0.76173    0.00108     0.76281
      H   24    0.24874      0.00000     0.74974    0.00152     0.75126
      H   25    0.23293      0.00000     0.76576    0.00131     0.76707
      H   26    0.24076      0.00000     0.75822    0.00102     0.75924
      H   27    0.23293      0.00000     0.76596    0.00111     0.76707
      H   28    0.22543      0.00000     0.77344    0.00113     0.77457
      H   29    0.22923      0.00000     0.76987    0.00090     0.77077
      H   30    0.22788      0.00000     0.77126    0.00085     0.77212
      H   31    0.22915      0.00000     0.76994    0.00091     0.77085
      H   32    0.22717      0.00000     0.77163    0.00120     0.77283
 =======================================================================
   * Total *   -0.00000     35.98370    87.73444    0.28186   124.00000

 Normal termination of Gaussian 09 at Tue Sep 28 23:13:24 2021.
