 Gaussian 09, Revision A.02,

 -----------------------------------
 #p opt b3lyp/6-31G* scf=(xqc,tight)
 -----------------------------------

 ------------------------------------------
 COC(=O)c1cc2ccccc2cc1OC(=O)C(C)(C)C_conf_0
 ------------------------------------------
 Symbolic Z-matrix:
 Charge =  0 Multiplicity = 1

 SCF Done:  E(RB3LYP) =  -959.573620599     A.U. after   15 cycles
 SCF Done:  E(RB3LYP) =  -959.581396831     A.U. after   13 cycles
 SCF Done:  E(RB3LYP) =  -959.581050210     A.U. after   13 cycles
 SCF Done:  E(RB3LYP) =  -959.582173235     A.U. after   12 cycles
 SCF Done:  E(RB3LYP) =  -959.582479392     A.U. after   12 cycles
 SCF Done:  E(RB3LYP) =  -959.582872198     A.U. after   12 cycles
 SCF Done:  E(RB3LYP) =  -959.582978343     A.U. after   13 cycles
 SCF Done:  E(RB3LYP) =  -959.583282455     A.U. after   12 cycles
 SCF Done:  E(RB3LYP) =  -959.583467516     A.U. after   12 cycles
 SCF Done:  E(RB3LYP) =  -959.583605492     A.U. after   16 cycles
 SCF Done:  E(RB3LYP) =  -959.584546952     A.U. after   12 cycles
 SCF Done:  E(RB3LYP) =  -959.584551812     A.U. after   12 cycles
 SCF Done:  E(RB3LYP) =  -959.584563072     A.U. after   11 cycles
 SCF Done:  E(RB3LYP) =  -959.584565337     A.U. after   10 cycles
 SCF Done:  E(RB3LYP) =  -959.584566856     A.U. after    9 cycles
 SCF Done:  E(RB3LYP) =  -959.584567413     A.U. after    8 cycles
 SCF Done:  E(RB3LYP) =  -959.584567522     A.U. after    7 cycles
 SCF Done:  E(RB3LYP) =  -959.584567626     A.U. after    7 cycles
 Optimization completed.
    -- Stationary point found.
 Normal termination of Gaussian 09 at Wed Sep 29 11:36:47 2021.

 ----------------------------------------------------------------------
 #p freq b3lyp/6-31G* volume NMR pop=NPA density=current Geom=AllCheck
 Guess=Read
 ----------------------------------------------------------------------

 COC(=O)c1cc2ccccc2cc1OC(=O)C(C)(C)C_conf_0
 ------------------------------------------
 Redundant internal coordinates taken from checkpoint file:
 C17H18O4_ef6c_conf_0.chk
 Charge =  0 Multiplicity = 1

 SCF Done:  E(RB3LYP) =  -959.584567626     A.U. after    1 cycles

  1  C    Isotropic =   138.5699   Anisotropy =    62.0894

  2  O    Isotropic =   158.3599   Anisotropy =   133.5204

  3  C    Isotropic =    31.8752   Anisotropy =    76.1788

  4  O    Isotropic =   -52.4710   Anisotropy =   556.5470

  5  C    Isotropic =    70.6253   Anisotropy =   134.5153

  6  C    Isotropic =    58.5673   Anisotropy =   153.8796

  7  C    Isotropic =    66.1494   Anisotropy =   193.9428

  8  C    Isotropic =    65.6134   Anisotropy =   150.3371

  9  C    Isotropic =    70.3120   Anisotropy =   161.9565

 10  C    Isotropic =    67.6881   Anisotropy =   166.0720

 11  C    Isotropic =    68.5903   Anisotropy =   145.5017

 12  C    Isotropic =    61.1526   Anisotropy =   195.3707

 13  C    Isotropic =    74.7607   Anisotropy =   117.3974

 14  C    Isotropic =    47.0523   Anisotropy =   106.9477

 15  O    Isotropic =   105.8698   Anisotropy =   158.7204

 16  C    Isotropic =    21.9056   Anisotropy =    80.8554

 17  O    Isotropic =   -65.5654   Anisotropy =   565.0077

 18  C    Isotropic =   148.9429   Anisotropy =    23.7849

 19  C    Isotropic =   161.2081   Anisotropy =    40.2405

 20  C    Isotropic =   162.8293   Anisotropy =    31.5023

 21  C    Isotropic =   162.5416   Anisotropy =    33.9640

 22  H    Isotropic =    28.3321   Anisotropy =     8.1312

 23  H    Isotropic =    28.7224   Anisotropy =     6.2489

 24  H    Isotropic =    28.2584   Anisotropy =     9.3101

 25  H    Isotropic =    23.5366   Anisotropy =     9.8023

 26  H    Isotropic =    24.3723   Anisotropy =     7.4566

 27  H    Isotropic =    24.7615   Anisotropy =     5.0494

 28  H    Isotropic =    24.7024   Anisotropy =     5.3268

 29  H    Isotropic =    24.6175   Anisotropy =     7.8439

 30  H    Isotropic =    25.0551   Anisotropy =     9.8533

 31  H    Isotropic =    30.8164   Anisotropy =     8.2263

 32  H    Isotropic =    30.3402   Anisotropy =     7.2748

 33  H    Isotropic =    31.0012   Anisotropy =     8.2981

 34  H    Isotropic =    30.5680   Anisotropy =     7.8585

 35  H    Isotropic =    31.4463   Anisotropy =     8.1966

 36  H    Isotropic =    30.7563   Anisotropy =     7.6455

 37  H    Isotropic =    30.2104   Anisotropy =     5.0736

 38  H    Isotropic =    30.7139   Anisotropy =     8.2920

 39  H    Isotropic =    31.1137   Anisotropy =     7.9135

  Exact polarizability: 287.866 -20.316 194.706   8.916  12.813 105.359
 Approx polarizability: 405.653 -27.663 321.353  21.488  36.021 173.550

                     1                      2                      3
                     A                      A                      A
 Frequencies --    20.8264                30.9844                50.7611
 Red. masses --     2.8473                 6.4427                 4.5091
 Frc consts  --     0.0007                 0.0036                 0.0068
 IR Inten    --     0.0005                 0.9495                 0.2899

                     4                      5                      6
                     A                      A                      A
 Frequencies --    57.1124                70.5024                81.9073
 Red. masses --     4.6771                 4.5707                 5.9578
 Frc consts  --     0.0090                 0.0134                 0.0235
 IR Inten    --     0.9139                 1.5884                 1.3339

                     7                      8                      9
                     A                      A                      A
 Frequencies --   126.6820               145.4630               152.7215
 Red. masses --     3.7491                 4.8990                 1.3323
 Frc consts  --     0.0354                 0.0611                 0.0183
 IR Inten    --     0.6861                 0.3126                 0.4492

                    10                     11                     12
                     A                      A                      A
 Frequencies --   172.6231               186.3225               202.7917
 Red. masses --     2.7421                 4.5355                 1.5528
 Frc consts  --     0.0481                 0.0928                 0.0376
 IR Inten    --     0.7170                 0.7110                 0.5549

                    13                     14                     15
                     A                      A                      A
 Frequencies --   226.5268               250.5748               265.4335
 Red. masses --     1.4537                 3.8230                 1.1042
 Frc consts  --     0.0440                 0.1414                 0.0458
 IR Inten    --     0.2735                 2.6948                 0.0293

                    16                     17                     18
                     A                      A                      A
 Frequencies --   277.3044               287.8320               298.3429
 Red. masses --     1.3707                 3.2794                 3.0925
 Frc consts  --     0.0621                 0.1601                 0.1622
 IR Inten    --     0.3772                 2.9522                 0.1139

                    19                     20                     21
                     A                      A                      A
 Frequencies --   318.4412               327.4305               341.7941
 Red. masses --     4.4335                 4.4054                 4.4392
 Frc consts  --     0.2649                 0.2783                 0.3055
 IR Inten    --     6.4786                 6.0686                 3.2745

                    22                     23                     24
                     A                      A                      A
 Frequencies --   355.3869               380.5478               396.6078
 Red. masses --     3.1539                 2.5855                 4.8189
 Frc consts  --     0.2347                 0.2206                 0.4466
 IR Inten    --     5.0188                 4.1035                 3.9461

                    25                     26                     27
                     A                      A                      A
 Frequencies --   429.2744               446.5189               494.9339
 Red. masses --     3.5378                 4.4994                 2.7112
 Frc consts  --     0.3841                 0.5285                 0.3913
 IR Inten    --     2.6346                 5.1351                 8.7461

                    28                     29                     30
                     A                      A                      A
 Frequencies --   526.9418               541.0080               579.4653
 Red. masses --     5.6915                 4.3301                 4.2920
 Frc consts  --     0.9311                 0.7467                 0.8491
 IR Inten    --     1.6355                 1.8682                 1.9420

                    31                     32                     33
                     A                      A                      A
 Frequencies --   593.5873               609.3395               642.8045
 Red. masses --     5.9973                 4.9801                 6.7380
 Frc consts  --     1.2450                 1.0894                 1.6404
 IR Inten    --     6.8807                 6.4720                 2.9367

                    34                     35                     36
                     A                      A                      A
 Frequencies --   672.5409               745.7081               756.8028
 Red. masses --     5.7730                 6.2211                 5.1103
 Frc consts  --     1.5385                 2.0382                 1.7245
 IR Inten    --     2.7656                 5.9104                 7.8200

                    37                     38                     39
                     A                      A                      A
 Frequencies --   761.3678               771.6239               778.3164
 Red. masses --     1.9669                 3.4613                 2.7879
 Frc consts  --     0.6718                 1.2142                 0.9950
 IR Inten    --     8.2672                 0.7295                34.2308

                    40                     41                     42
                     A                      A                      A
 Frequencies --   799.1878               820.5616               839.4089
 Red. masses --     5.2952                 3.3530                 4.1585
 Frc consts  --     1.9926                 1.3301                 1.7264
 IR Inten    --     7.0669                 0.1307                 9.2928

                    43                     44                     45
                     A                      A                      A
 Frequencies --   867.8543               886.0260               914.4554
 Red. masses --     1.5308                 2.3399                 2.3446
 Frc consts  --     0.6793                 1.0823                 1.1552
 IR Inten    --     2.2033                 0.7333                15.8198

                    46                     47                     48
                     A                      A                      A
 Frequencies --   932.3883               945.2103               949.6251
 Red. masses --     3.7594                 1.4044                 1.7715
 Frc consts  --     1.9256                 0.7393                 0.9412
 IR Inten    --     8.8775                 4.0982                 1.5525

                    49                     50                     51
                     A                      A                      A
 Frequencies --   957.1907               967.1708               981.9585
 Red. masses --     1.6318                 1.4137                 1.1991
 Frc consts  --     0.8809                 0.7792                 0.6813
 IR Inten    --     3.4424                 9.7128                 0.0891

                    52                     53                     54
                     A                      A                      A
 Frequencies --   994.3311              1004.3539              1049.6792
 Red. masses --     1.2843                 5.5955                 2.3045
 Frc consts  --     0.7481                 3.3256                 1.4960
 IR Inten    --     0.0633                14.3072                 3.0779

                    55                     56                     57
                     A                      A                      A
 Frequencies --  1058.3167              1061.9745              1094.2332
 Red. masses --     1.5224                 1.4334                 4.7469
 Frc consts  --     1.0047                 0.9525                 3.3487
 IR Inten    --    40.4462                 3.3605                30.9074

                    58                     59                     60
                     A                      A                      A
 Frequencies --  1139.4746              1170.6603              1184.2594
 Red. masses --     3.9320                 1.6175                 1.2744
 Frc consts  --     3.0080                 1.3061                 1.0531
 IR Inten    --   460.5220                51.0687                 1.0885

                    61                     62                     63
                     A                      A                      A
 Frequencies --  1188.5262              1195.7657              1221.6412
 Red. masses --     1.2564                 1.5232                 1.5015
 Frc consts  --     1.0457                 1.2832                 1.3203
 IR Inten    --     7.1532               109.2883                 0.9330

                    64                     65                     66
                     A                      A                      A
 Frequencies --  1240.9209              1252.5386              1262.7444
 Red. masses --     2.6357                 2.2609                 2.5389
 Frc consts  --     2.3913                 2.0899                 2.3852
 IR Inten    --     0.7892               402.1049                 8.8653

                    67                     68                     69
                     A                      A                      A
 Frequencies --  1271.7931              1297.3996              1300.8233
 Red. masses --     2.6520                 1.8750                 4.1348
 Frc consts  --     2.5273                 1.8596                 4.1223
 IR Inten    --    84.3545                 9.8301               202.9328

                    70                     71                     72
                     A                      A                      A
 Frequencies --  1311.0106              1372.7840              1406.6804
 Red. masses --     3.3030                 2.4518                 4.2868
 Frc consts  --     3.3448                 2.7223                 4.9978
 IR Inten    --   150.3693               155.9870                 2.0191

                    73                     74                     75
                     A                      A                      A
 Frequencies --  1422.4473              1423.8450              1429.2701
 Red. masses --     1.2075                 7.1779                 1.2343
 Frc consts  --     1.4395                 8.5738                 1.4856
 IR Inten    --     2.2026                 2.1161                 5.2674

                    76                     77                     78
                     A                      A                      A
 Frequencies --  1458.2345              1486.8150              1494.9549
 Red. masses --     1.2224                 1.5691                 1.9210
 Frc consts  --     1.5315                 2.0437                 2.5295
 IR Inten    --    18.8190                 6.0618                69.9667

                    79                     80                     81
                     A                      A                      A
 Frequencies --  1505.7434              1508.3195              1511.4067
 Red. masses --     2.3818                 1.0496                 1.0490
 Frc consts  --     3.1817                 1.4068                 1.4118
 IR Inten    --    16.5681                 0.5270                 5.2682

                    82                     83                     84
                     A                      A                      A
 Frequencies --  1515.9182              1519.7303              1524.2203
 Red. masses --     1.0460                 1.0458                 1.0518
 Frc consts  --     1.4163                 1.4230                 1.4397
 IR Inten    --     0.8131                 0.7906                 8.5869

                    85                     86                     87
                     A                      A                      A
 Frequencies --  1530.4667              1533.1776              1549.9682
 Red. masses --     1.0497                 1.0536                 1.1605
 Frc consts  --     1.4487                 1.4592                 1.6427
 IR Inten    --     4.9174                 5.7365                42.1290

                    88                     89                     90
                     A                      A                      A
 Frequencies --  1552.5234              1619.6912              1657.2218
 Red. masses --     2.7777                 6.6099                 5.8680
 Frc consts  --     3.9446                10.2167                 9.4952
 IR Inten    --     4.7379                 1.4777                56.0742

                    91                     92                     93
                     A                      A                      A
 Frequencies --  1686.2076              1795.0120              1836.3397
 Red. masses --     6.4279                11.4975                12.7013
 Frc consts  --    10.7682                21.8266                25.2350
 IR Inten    --    66.8764               206.7537               179.5358

                    94                     95                     96
                     A                      A                      A
 Frequencies --  3050.6819              3056.1791              3062.4670
 Red. masses --     1.0349                 1.0364                 1.0369
 Frc consts  --     5.6749                 5.7036                 5.7295
 IR Inten    --    20.8666                14.6936                31.8396

                    97                     98                     99
                     A                      A                      A
 Frequencies --  3078.0910              3116.4259              3120.8957
 Red. masses --     1.0291                 1.1029                 1.1017
 Frc consts  --     5.7445                 6.3108                 6.3222
 IR Inten    --    36.0294                16.5205                12.1700

                   100                    101                    102
                     A                      A                      A
 Frequencies --  3128.0849              3135.4347              3142.4430
 Red. masses --     1.1017                 1.1023                 1.1020
 Frc consts  --     6.3516                 6.3849                 6.4119
 IR Inten    --    54.2047                21.0238                21.0544

                   103                    104                    105
                     A                      A                      A
 Frequencies --  3149.1688              3155.0230              3181.3627
 Red. masses --     1.1012                 1.1077                 1.1072
 Frc consts  --     6.4347                 6.4965                 6.6027
 IR Inten    --    24.6357                17.4997                19.2334

                   106                    107                    108
                     A                      A                      A
 Frequencies --  3183.0152              3188.7226              3200.0455
 Red. masses --     1.0857                 1.0882                 1.0938
 Frc consts  --     6.4809                 6.5194                 6.5991
 IR Inten    --     2.1056                 0.3116                23.8514

                   109                    110                    111
                     A                      A                      A
 Frequencies --  3206.9699              3212.3566              3218.2136
 Red. masses --     1.0911                 1.0971                 1.0902
 Frc consts  --     6.6114                 6.6706                 6.6527
 IR Inten    --    10.8687                28.4742                 1.2914

 - Thermochemistry -
 -------------------
 Temperature   298.150 Kelvin.  Pressure   1.00000 Atm.
 Atom     1 has atomic number  6 and mass  12.00000

 Molecular mass:   286.12051 amu.
 Principal axes and moments of inertia in atomic units:
                           1         2         3
     Eigenvalues --  3352.386058998.06971**********
           X            0.99996   0.00792   0.00314
           Y           -0.00792   0.99997  -0.00088
           Z           -0.00315   0.00085   0.99999
 This molecule is an asymmetric top.
 Rotational symmetry number  1.
 Warning -- assumption of classical behavior for rotation
           may cause significant error
 Rotational temperatures (Kelvin)      0.02584     0.00963     0.00755
 Rotational constants (GHZ):           0.53835     0.20057     0.15725
 Zero-point vibrational energy     834175.2 (Joules/Mol)
                                  199.37265 (Kcal/Mol)
 Warning -- explicit consideration of  32 degrees of freedom as
           vibrations may cause significant error
 Vibrational temperatures:     29.96    44.58    73.03    82.17   101.44
          (Kelvin)            117.85   182.27   209.29   219.73   248.37
                              268.08   291.77   325.92   360.52   381.90
                              398.98   414.13   429.25   458.17   471.10
                              491.76   511.32   547.52   570.63   617.63
                              642.44   712.10   758.15   778.39   833.72
                              854.04   876.70   924.85   967.64  1072.91
                             1088.87  1095.44  1110.19  1119.82  1149.85
                             1180.60  1207.72  1248.65  1274.79  1315.70
                             1341.50  1359.95  1366.30  1377.18  1391.54
                             1412.82  1430.62  1445.04  1510.25  1522.68
                             1527.94  1574.36  1639.45  1684.32  1703.88
                             1710.02  1720.44  1757.67  1785.41  1802.12
                             1816.81  1829.82  1866.67  1871.59  1886.25
                             1975.13  2023.90  2046.58  2048.59  2056.40
                             2098.07  2139.19  2150.90  2166.43  2170.13
                             2174.57  2181.07  2186.55  2193.01  2202.00
                             2205.90  2230.06  2233.73  2330.37  2384.37
                             2426.07  2582.62  2642.08  4389.25  4397.15
                             4406.20  4428.68  4483.84  4490.27  4500.61
                             4511.19  4521.27  4530.95  4539.37  4577.27
                             4579.64  4587.85  4604.15  4614.11  4621.86
                             4630.29

 Zero-point correction=                           0.317721 (Hartree/Particle)
 Thermal correction to Energy=                    0.337709
 Thermal correction to Enthalpy=                  0.338653
 Thermal correction to Gibbs Free Energy=         0.268234
 Sum of electronic and zero-point Energies=           -959.266847
 Sum of electronic and thermal Energies=              -959.246859
 Sum of electronic and thermal Enthalpies=            -959.245915
 Sum of electronic and thermal Free Energies=         -959.316333

                     E (Thermal)             CV                S
                      KCal/Mol        Cal/Mol-Kelvin    Cal/Mol-Kelvin
 Total                  211.916             75.839            148.208
 Electronic               0.000              0.000              0.000
 Translational            0.889              2.981             42.852
 Rotational               0.889              2.981             34.203
 Vibrational            210.138             69.877             71.154
 Vibration     1          0.593              1.986              6.554
 Vibration     2          0.594              1.984              5.765
 Vibration     3          0.595              1.977              4.788
 Vibration     4          0.596              1.975              4.555
 Vibration     5          0.598              1.968              4.139
 Vibration     6          0.600              1.962              3.845
 Vibration     7          0.611              1.926              2.996
 Vibration     8          0.617              1.908              2.731
 Vibration     9          0.619              1.900              2.638
 Vibration    10          0.626              1.876              2.407
 Vibration    11          0.632              1.859              2.264
 Vibration    12          0.639              1.836              2.108
 Vibration    13          0.650              1.801              1.906
 Vibration    14          0.663              1.762              1.727
 Vibration    15          0.671              1.736              1.626
 Vibration    16          0.678              1.715              1.550
 Vibration    17          0.685              1.696              1.487
 Vibration    18          0.691              1.677              1.426
 Vibration    19          0.705              1.638              1.318
 Vibration    20          0.711              1.621              1.273
 Vibration    21          0.721              1.592              1.204
 Vibration    22          0.731              1.564              1.142
 Vibration    23          0.750              1.512              1.037
 Vibration    24          0.763              1.477              0.975
 Vibration    25          0.791              1.407              0.861
 Vibration    26          0.806              1.369              0.806
 Vibration    27          0.851              1.261              0.671
 Vibration    28          0.882              1.190              0.594
 Vibration    29          0.896              1.159              0.563
 Vibration    30          0.936              1.076              0.486
 Vibration    31          0.951              1.045              0.461
 Vibration    32          0.968              1.012              0.434

 Normal termination of Gaussian 09 at Wed Sep 29 14:34:51 2021.
 Gaussian 09:  AM64L-G09RevA.02 11-Jun-2009

 ----------------------------------------------------------------------
 #p TD(NStates=10, Root=1) b3lyp/6-31G* volume pop=NPA density=current
 Geom=AllCheck Guess=Read
 ----------------------------------------------------------------------

 COC(=O)c1cc2ccccc2cc1OC(=O)C(C)(C)C_conf_0
 ------------------------------------------
 Redundant internal coordinates taken from checkpoint file:
 C17H18O4_ef6c_conf_0.chk
 Charge =  0 Multiplicity = 1

                         Standard orientation:
 ---------------------------------------------------------------------
 Center     Atomic      Atomic             Coordinates (Angstroms)
 Number     Number       Type             X           Y           Z
 ---------------------------------------------------------------------
      1          6           0       -2.441439    3.073665   -0.546022
      2          8           0       -1.529700    1.962670   -0.574753
      3          6           0       -0.330039    2.204269   -0.003480
      4          8           0       -0.033764    3.285176    0.466336
      5          6           0        0.614563    1.046878   -0.059831
      6          6           0        1.948428    1.357572    0.141922
      7          6           0        2.974530    0.386914    0.077325
      8          6           0        4.343380    0.716185    0.273140
      9          6           0        5.314841   -0.255407    0.197558
     10          6           0        4.959317   -1.599603   -0.078518
     11          6           0        3.642069   -1.950483   -0.273473
     12          6           0        2.616764   -0.970785   -0.200382
     13          6           0        1.246278   -1.285518   -0.380015
     14          6           0        0.274560   -0.316988   -0.311060
     15          8           0       -1.029723   -0.743624   -0.547091
     16          6           0       -1.938403   -0.701049    0.484682
     17          8           0       -1.673110   -0.258465    1.574645
     18          6           0       -3.266677   -1.337682    0.066197
     19          6           0       -3.025438   -2.855120   -0.118817
     20          6           0       -4.294682   -1.102274    1.184437
     21          6           0       -3.766212   -0.728099   -1.259836
     22          1           0       -2.673360    3.351138    0.485434
     23          1           0       -3.337255    2.728369   -1.062963
     24          1           0       -2.010213    3.936863   -1.058980
     25          1           0        2.199382    2.392543    0.352036
     26          1           0        4.607661    1.749298    0.484343
     27          1           0        6.358935    0.003339    0.349370
     28          1           0        5.736130   -2.357296   -0.135682
     29          1           0        3.370567   -2.981998   -0.483677
     30          1           0        0.945748   -2.311355   -0.571237
     31          1           0       -2.655311   -3.313315    0.805515
     32          1           0       -2.301433   -3.048946   -0.915846
     33          1           0       -3.968253   -3.346809   -0.384578
     34          1           0       -3.954150   -1.527472    2.132663
     35          1           0       -5.248870   -1.568853    0.914673
     36          1           0       -4.467385   -0.033245    1.344880
     37          1           0       -3.039988   -0.867552   -2.064488
     38          1           0       -3.956863    0.345175   -1.155586
     39          1           0       -4.706000   -1.210795   -1.551931
 ---------------------------------------------------------------------

 SCF Done:  E(RB3LYP) =  -959.584567627     A.U. after    1 cycles

 Excitation energies and oscillator strengths:

 Excited State   1:      Singlet-A      3.9789 eV  311.61 nm  f=0.0421  <S**2>=0.000
      75 -> 77         0.19646
      75 -> 78        -0.16413
      76 -> 77         0.63217
      76 -> 78         0.17500
 This state for optimization and/or second-order correction.
 Total Energy, E(TD-HF/TD-KS) =  -959.438346237
 Copying the excited state density for this state as the 1-particle RhoCI density.

 Excited State   2:      Singlet-A      4.3878 eV  282.56 nm  f=0.0124  <S**2>=0.000
      75 -> 77         0.45345
      76 -> 77        -0.26452
      76 -> 78         0.46271

 Excited State   3:      Singlet-A      4.7713 eV  259.85 nm  f=0.0158  <S**2>=0.000
      73 -> 77         0.56143
      73 -> 78         0.16178
      74 -> 77         0.31325
      76 -> 78         0.12904

 Excited State   4:      Singlet-A      5.1561 eV  240.46 nm  f=0.0089  <S**2>=0.000
      73 -> 77        -0.30967
      74 -> 77         0.62312

 Excited State   5:      Singlet-A      5.2785 eV  234.89 nm  f=0.7060  <S**2>=0.000
      73 -> 77        -0.16366
      74 -> 78         0.16898
      74 -> 79         0.14196
      75 -> 77        -0.39049
      76 -> 78         0.40465
      76 -> 79         0.25053
      76 -> 80        -0.14919

 Excited State   6:      Singlet-A      5.4449 eV  227.71 nm  f=0.1238  <S**2>=0.000
      72 -> 77         0.10036
      74 -> 78         0.13343
      74 -> 79         0.14963
      75 -> 77         0.16030
      75 -> 78         0.52093
      76 -> 77         0.10256
      76 -> 79         0.27836

 Excited State   7:      Singlet-A      5.5451 eV  223.59 nm  f=0.1548  <S**2>=0.000
      72 -> 77         0.21013
      73 -> 79        -0.10910
      74 -> 78         0.33496
      74 -> 79         0.29663
      75 -> 78        -0.31126
      76 -> 78        -0.15507
      76 -> 79         0.16813
      76 -> 80         0.25016

 Excited State   8:      Singlet-A      5.6266 eV  220.35 nm  f=0.0482  <S**2>=0.000
      72 -> 77         0.37757
      74 -> 78        -0.37293
      74 -> 79        -0.15816
      76 -> 79         0.33597
      76 -> 80         0.21297

 Excited State   9:      Singlet-A      5.7557 eV  215.41 nm  f=0.2103  <S**2>=0.000
      72 -> 77         0.41893
      73 -> 78         0.10279
      74 -> 78         0.25440
      74 -> 79        -0.11315
      75 -> 77        -0.12426
      75 -> 78         0.11590
      76 -> 78         0.12213
      76 -> 79        -0.35685
      76 -> 81        -0.15511

 Excited State  10:      Singlet-A      5.7833 eV  214.38 nm  f=0.0471  <S**2>=0.000
      70 -> 77         0.10407
      73 -> 77        -0.16695
      73 -> 78         0.58300
      76 -> 79         0.20015
      76 -> 80        -0.13991

 The electronic state is 1-A.
 Alpha  occ. eigenvalues --  -19.19893 -19.19335 -19.13963 -19.13224 -10.31705
 Alpha  occ. eigenvalues --  -10.31630 -10.26294 -10.24001 -10.21508 -10.21349
 Alpha  occ. eigenvalues --  -10.21030 -10.20588 -10.20392 -10.20106 -10.19965
 Alpha  occ. eigenvalues --  -10.19915 -10.19884 -10.19817 -10.18525 -10.18143
 Alpha  occ. eigenvalues --  -10.17569  -1.11008  -1.10009  -1.02373  -1.01102
 Alpha  occ. eigenvalues --   -0.88330  -0.83667  -0.82151  -0.78516  -0.76258
 Alpha  occ. eigenvalues --   -0.73907  -0.72170  -0.69304  -0.68873  -0.66487
 Alpha  occ. eigenvalues --   -0.64401  -0.60754  -0.60484  -0.57609  -0.56299
 Alpha  occ. eigenvalues --   -0.53780  -0.51806  -0.49411  -0.48876  -0.48078
 Alpha  occ. eigenvalues --   -0.47847  -0.46932  -0.46311  -0.45509  -0.44877
 Alpha  occ. eigenvalues --   -0.43879  -0.43344  -0.42749  -0.42549  -0.41803
 Alpha  occ. eigenvalues --   -0.40902  -0.40246  -0.39204  -0.39076  -0.38667
 Alpha  occ. eigenvalues --   -0.38280  -0.36965  -0.36419  -0.35769  -0.35273
 Alpha  occ. eigenvalues --   -0.34362  -0.33852  -0.33497  -0.32611  -0.31011
 Alpha  occ. eigenvalues --   -0.30008  -0.29187  -0.27577  -0.27024  -0.24875
 Alpha  occ. eigenvalues --   -0.22239
 Alpha virt. eigenvalues --   -0.05735  -0.03138   0.00915   0.02041   0.04084
 Alpha virt. eigenvalues --    0.07317   0.09007   0.10303   0.10836   0.11325
 Alpha virt. eigenvalues --    0.12330   0.12849   0.13417   0.14034   0.14805

 Mulliken atomic charges:
              1
     1  C   -0.212638
     2  O   -0.487054
     3  C    0.562867
     4  O   -0.524906
     5  C    0.072342
     6  C   -0.290629
     7  C    0.161258
     8  C   -0.181142
     9  C   -0.113734
    10  C   -0.152078
    11  C   -0.176148
    12  C    0.139152
    13  C   -0.242573
    14  C    0.339274
    15  O   -0.530626
    16  C    0.664396
    17  O   -0.456247
    18  C   -0.015800
    19  C   -0.454323
    20  C   -0.436192
    21  C   -0.449415
    22  H    0.167921
    23  H    0.148562
    24  H    0.165905
    25  H    0.168613
    26  H    0.155799
    27  H    0.151890
    28  H    0.136517
    29  H    0.145773
    30  H    0.151698
    31  H    0.154476
    32  H    0.157617
    33  H    0.153178
    34  H    0.161001
    35  H    0.138361
    36  H    0.156501
    37  H    0.166157
    38  H    0.159692
    39  H    0.144555
 Sum of Mulliken atomic charges =  -0.00000

 Dipole moment (field-independent basis, Debye):
    X=              1.1583    Y=             -4.0503    Z=             -2.0887  Tot=              4.7021
 Quadrupole moment (field-independent basis, Debye-Ang):
   XX=            -92.1102   YY=           -121.1999   ZZ=           -128.4257
   XY=             -2.0282   XZ=              3.5887   YZ=             -2.1460

 Summary of Natural Population Analysis:

                                       Natural Population
                Natural  -----------------------------------------------
    Atom  No    Charge         Core      Valence    Rydberg      Total
 -----------------------------------------------------------------------
      C    1   -0.31814      1.99942     4.30450    0.01422     6.31814
      O    2   -0.56303      1.99974     6.55279    0.01050     8.56303
      C    3    0.75343      1.99938     3.20207    0.04512     5.24657
      O    4   -0.63955      1.99979     6.62062    0.01914     8.63955
      C    5   -0.21688      1.99882     4.19991    0.01815     6.21688
      C    6   -0.17204      1.99905     4.15683    0.01616     6.17204
      C    7   -0.06380      1.99903     4.04983    0.01495     6.06380
      C    8   -0.17165      1.99906     4.15813    0.01445     6.17165
      C    9   -0.16307      1.99911     4.14964    0.01432     6.16307
      C   10   -0.28815      1.99913     4.27321    0.01581     6.28815
      C   11   -0.14919      1.99906     4.13610    0.01403     6.14919
      C   12   -0.07791      1.99903     4.06392    0.01496     6.07791
      C   13   -0.20396      1.99897     4.19041    0.01458     6.20396
      C   14    0.40324      1.99868     3.57466    0.02342     5.59676
      O   15   -0.52980      1.99968     6.51877    0.01135     8.52980
      C   16    0.85275      1.99926     3.09814    0.04984     5.14725
      O   17   -0.56106      1.99977     6.54123    0.02007     8.56106
      C   18   -0.15029      1.99904     4.13895    0.01231     6.15029
      C   19   -0.66825      1.99938     4.65925    0.00961     6.66825
      C   20   -0.66975      1.99940     4.65937    0.01099     6.66975
      C   21   -0.66743      1.99938     4.65784    0.01020     6.66743
      H   22    0.21789      0.00000     0.78045    0.00166     0.78211
      H   23    0.20943      0.00000     0.78991    0.00067     0.79057
      H   24    0.21778      0.00000     0.78052    0.00170     0.78222
      H   25    0.25997      0.00000     0.73793    0.00210     0.74003
      H   26    0.24361      0.00000     0.75533    0.00106     0.75639
      H   27    0.24223      0.00000     0.75699    0.00078     0.75777
      H   28    0.24062      0.00000     0.75860    0.00078     0.75938
      H   29    0.23694      0.00000     0.76200    0.00106     0.76306
      H   30    0.24711      0.00000     0.75138    0.00152     0.75289
      H   31    0.23713      0.00000     0.76193    0.00095     0.76287
      H   32    0.23925      0.00000     0.75958    0.00118     0.76075
      H   33    0.23771      0.00000     0.76128    0.00100     0.76229
      H   34    0.24567      0.00000     0.75324    0.00109     0.75433
      H   35    0.23070      0.00000     0.76840    0.00090     0.76930
      H   36    0.24248      0.00000     0.75655    0.00097     0.75752
      H   37    0.24640      0.00000     0.75261    0.00099     0.75360
      H   38    0.23661      0.00000     0.76228    0.00111     0.76339
      H   39    0.23302      0.00000     0.76592    0.00106     0.76698
 =======================================================================
   * Total *   -0.00000     41.98419   109.62106    0.39475   152.00000

 Normal termination of Gaussian 09 at Wed Sep 29 22:49:19 2021.
