 Gaussian 09, Revision A.02,

 -----------------------------------
 #p opt b3lyp/6-31G* scf=(xqc,tight)
 -----------------------------------

 ------------------------------------------
 O=C(C(C)(C)C)Oc1ccc2c(c1)oc1c2cccc1_conf_0
 ------------------------------------------
 Symbolic Z-matrix:
 Charge =  0 Multiplicity = 1

 SCF Done:  E(RB3LYP) =  -883.140633147     A.U. after   16 cycles
 SCF Done:  E(RB3LYP) =  -883.145019471     A.U. after   16 cycles
 SCF Done:  E(RB3LYP) =  -883.142487833     A.U. after   14 cycles
 SCF Done:  E(RB3LYP) =  -883.145420581     A.U. after   13 cycles
 SCF Done:  E(RB3LYP) =  -883.145758287     A.U. after   12 cycles
 SCF Done:  E(RB3LYP) =  -883.145983796     A.U. after   12 cycles
 SCF Done:  E(RB3LYP) =  -883.146229727     A.U. after   11 cycles
 SCF Done:  E(RB3LYP) =  -883.146396334     A.U. after   16 cycles
 SCF Done:  E(RB3LYP) =  -883.146423549     A.U. after   10 cycles
 SCF Done:  E(RB3LYP) =  -883.146431002     A.U. after   10 cycles
 SCF Done:  E(RB3LYP) =  -883.146434171     A.U. after   10 cycles
 SCF Done:  E(RB3LYP) =  -883.146437899     A.U. after   11 cycles
 SCF Done:  E(RB3LYP) =  -883.146438880     A.U. after   10 cycles
 SCF Done:  E(RB3LYP) =  -883.146439058     A.U. after    7 cycles
 Optimization completed.
    -- Stationary point found.
 Normal termination of Gaussian 09 at Wed Sep 29 10:44:43 2021.

 ----------------------------------------------------------------------
 #p freq b3lyp/6-31G* volume NMR pop=NPA density=current Geom=AllCheck
 Guess=Read
 ----------------------------------------------------------------------

 O=C(C(C)(C)C)Oc1ccc2c(c1)oc1c2cccc1_conf_0
 ------------------------------------------
 Redundant internal coordinates taken from checkpoint file:
 C17H16O3_7711_conf_0.chk
 Charge =  0 Multiplicity = 1

 SCF Done:  E(RB3LYP) =  -883.146439057     A.U. after    1 cycles

  1  O    Isotropic =   -64.2979   Anisotropy =   574.6171

  2  C    Isotropic =    22.4878   Anisotropy =    77.3089

  3  C    Isotropic =   148.9279   Anisotropy =    24.3439

  4  C    Isotropic =   162.2711   Anisotropy =    37.8029

  5  C    Isotropic =   162.0053   Anisotropy =    37.3478

  6  C    Isotropic =   162.8249   Anisotropy =    31.3939

  7  O    Isotropic =   106.9324   Anisotropy =   158.3469

  8  C    Isotropic =    45.4288   Anisotropy =   107.0505

  9  C    Isotropic =    77.1464   Anisotropy =   145.0471

 10  C    Isotropic =    75.3867   Anisotropy =   157.1578

 11  C    Isotropic =    73.8717   Anisotropy =   140.0461

 12  C    Isotropic =    40.5120   Anisotropy =   109.6565

 13  C    Isotropic =    91.0322   Anisotropy =   114.9581

 14  O    Isotropic =   124.0395   Anisotropy =   159.1578

 15  C    Isotropic =    40.2939   Anisotropy =   109.7239

 16  C    Isotropic =    71.3725   Anisotropy =   144.3560

 17  C    Isotropic =    75.2971   Anisotropy =   156.9266

 18  C    Isotropic =    73.1595   Anisotropy =   158.8550

 19  C    Isotropic =    69.8501   Anisotropy =   162.6391

 20  C    Isotropic =    84.0179   Anisotropy =   138.7911

 21  H    Isotropic =    30.3118   Anisotropy =     7.3340

 22  H    Isotropic =    30.8158   Anisotropy =     8.0134

 23  H    Isotropic =    31.0738   Anisotropy =     7.9737

 24  H    Isotropic =    30.4063   Anisotropy =     5.8995

 25  H    Isotropic =    31.0665   Anisotropy =     7.9125

 26  H    Isotropic =    30.8102   Anisotropy =     8.1619

 27  H    Isotropic =    30.6569   Anisotropy =     7.8469

 28  H    Isotropic =    30.6061   Anisotropy =     8.2187

 29  H    Isotropic =    31.4560   Anisotropy =     7.9240

 30  H    Isotropic =    24.9747   Anisotropy =     8.9906

 31  H    Isotropic =    24.3761   Anisotropy =     6.9485

 32  H    Isotropic =    25.3515   Anisotropy =     7.8293

 33  H    Isotropic =    24.3590   Anisotropy =     7.2612

 34  H    Isotropic =    24.9182   Anisotropy =     4.8964

 35  H    Isotropic =    24.8635   Anisotropy =     4.6990

 36  H    Isotropic =    24.9551   Anisotropy =     5.8324

  Exact polarizability: 309.896  -3.362 172.494   6.563  -3.349  93.290
 Approx polarizability: 407.354  -4.697 314.970  14.058  -2.408 146.257

                     1                      2                      3
                     A                      A                      A
 Frequencies --    16.4629                32.8848                43.5641
 Red. masses --     3.6298                 4.7720                 4.8467
 Frc consts  --     0.0006                 0.0030                 0.0054
 IR Inten    --     0.2019                 0.4740                 0.7630

                     4                      5                      6
                     A                      A                      A
 Frequencies --    62.0751               104.4181               153.6587
 Red. masses --     6.5606                 5.4692                 3.7503
 Frc consts  --     0.0149                 0.0351                 0.0522
 IR Inten    --     1.0456                 0.3133                 0.5008

                     7                      8                      9
                     A                      A                      A
 Frequencies --   168.4766               194.0077               214.0003
 Red. masses --     4.5194                 3.0116                 1.2647
 Frc consts  --     0.0756                 0.0668                 0.0341
 IR Inten    --     0.1224                 0.9035                 0.4739

                    10                     11                     12
                     A                      A                      A
 Frequencies --   228.0738               243.9702               269.6708
 Red. masses --     3.8518                 1.9535                 1.0725
 Frc consts  --     0.1181                 0.0685                 0.0460
 IR Inten    --     0.5294                 0.8125                 0.1531

                    13                     14                     15
                     A                      A                      A
 Frequencies --   280.0553               297.7128               319.6578
 Red. masses --     1.3822                 3.1752                 5.8719
 Frc consts  --     0.0639                 0.1658                 0.3535
 IR Inten    --     0.6198                 3.6637                 0.2526

                    16                     17                     18
                     A                      A                      A
 Frequencies --   352.1451               355.7049               368.6478
 Red. masses --     3.1156                 3.8712                 2.8645
 Frc consts  --     0.2276                 0.2886                 0.2294
 IR Inten    --     0.4607                 7.8349                 1.1881

                    19                     20                     21
                     A                      A                      A
 Frequencies --   388.2505               433.4219               453.0238
 Red. masses --     3.8222                 4.6615                 3.0916
 Frc consts  --     0.3395                 0.5159                 0.3738
 IR Inten    --     2.4017                 5.9880                 1.1311

                    22                     23                     24
                     A                      A                      A
 Frequencies --   455.8814               478.3431               544.1768
 Red. masses --     3.5337                 4.2791                 4.6396
 Frc consts  --     0.4327                 0.5769                 0.8095
 IR Inten    --     2.3153                 1.0346                 0.3125

                    25                     26                     27
                     A                      A                      A
 Frequencies --   562.8943               577.1738               585.6543
 Red. masses --     6.6312                 4.0487                 4.8318
 Frc consts  --     1.2379                 0.7947                 0.9764
 IR Inten    --     0.7002                 0.3547                 7.1042

                    28                     29                     30
                     A                      A                      A
 Frequencies --   613.1419               643.1551               679.0269
 Red. masses --     5.5835                 4.4686                 7.0429
 Frc consts  --     1.2367                 1.0891                 1.9133
 IR Inten    --     4.8141                 4.8322                 0.4588

                    31                     32                     33
                     A                      A                      A
 Frequencies --   726.5964               750.9865               755.6889
 Red. masses --     4.2284                 4.9788                 4.4261
 Frc consts  --     1.3153                 1.6544                 1.4892
 IR Inten    --     3.2101                 3.5742                 3.4849

                    34                     35                     36
                     A                      A                      A
 Frequencies --   758.4415               766.2717               788.0618
 Red. masses --     5.4576                 1.4195                 6.4891
 Frc consts  --     1.8497                 0.4911                 2.3744
 IR Inten    --     2.5012                57.7527                 1.6546

                    37                     38                     39
                     A                      A                      A
 Frequencies --   803.4041               830.9019               863.9619
 Red. masses --     2.4568                 1.9738                 1.7376
 Frc consts  --     0.9343                 0.8029                 0.7642
 IR Inten    --     7.6119                 3.7205                 9.8313

                    40                     41                     42
                     A                      A                      A
 Frequencies --   864.9905               868.7438               900.1468
 Red. masses --     4.7760                 1.4452                 3.3693
 Frc consts  --     2.1054                 0.6426                 1.6085
 IR Inten    --     8.5165                 2.1280                31.0633

                    43                     44                     45
                     A                      A                      A
 Frequencies --   933.2148               938.7933               948.5378
 Red. masses --     1.3529                 1.3003                 1.7622
 Frc consts  --     0.6942                 0.6752                 0.9342
 IR Inten    --     1.2688                 1.8369                 1.4790

                    46                     47                     48
                     A                      A                      A
 Frequencies --   956.6577               973.4060               976.4401
 Red. masses --     1.6637                 1.2375                 2.8682
 Frc consts  --     0.8971                 0.6908                 1.6112
 IR Inten    --     6.7191                 0.0323                22.1421

                    49                     50                     51
                     A                      A                      A
 Frequencies --   980.4343              1023.6248              1045.8515
 Red. masses --     1.1998                 6.8708                 1.9917
 Frc consts  --     0.6795                 4.2417                 1.2835
 IR Inten    --     0.0404                 4.9650                 2.0987

                    52                     53                     54
                     A                      A                      A
 Frequencies --  1057.7066              1059.9943              1128.6930
 Red. masses --     1.4650                 1.4402                 2.1910
 Frc consts  --     0.9656                 0.9534                 1.6446
 IR Inten    --    38.5921                17.1767                90.1276

                    55                     56                     57
                     A                      A                      A
 Frequencies --  1135.9679              1154.4802              1171.9801
 Red. masses --     1.9803                 2.0091                 1.9922
 Frc consts  --     1.5056                 1.5777                 1.6122
 IR Inten    --    54.6227               524.2966               470.1154

                    58                     59                     60
                     A                      A                      A
 Frequencies --  1187.4257              1227.0268              1240.0438
 Red. masses --     1.1777                 2.2670                 3.1804
 Frc consts  --     0.9783                 2.0110                 2.8814
 IR Inten    --    28.4131                10.2926                24.9406

                    61                     62                     63
                     A                      A                      A
 Frequencies --  1242.7918              1263.2939              1291.1571
 Red. masses --     2.6804                 2.7776                 3.4742
 Frc consts  --     2.4392                 2.6117                 3.4124
 IR Inten    --     1.9544                 4.1373               134.2864

                    64                     65                     66
                     A                      A                      A
 Frequencies --  1300.4658              1310.0533              1340.6179
 Red. masses --     1.8414                 3.1681                 1.9690
 Frc consts  --     1.8348                 3.2035                 2.0850
 IR Inten    --     2.6701                29.2635                 3.4009

                    67                     68                     69
                     A                      A                      A
 Frequencies --  1376.5313              1396.6712              1421.0746
 Red. masses --     7.1424                 4.6921                 1.2089
 Frc consts  --     7.9738                 5.3927                 1.4384
 IR Inten    --    36.3817                16.3431                 3.9068

                    70                     71                     72
                     A                      A                      A
 Frequencies --  1430.0038              1458.1832              1474.9995
 Red. masses --     1.2304                 1.2216                 3.6652
 Frc consts  --     1.4825                 1.5304                 4.6983
 IR Inten    --     5.1431                19.2610                26.9362

                    73                     74                     75
                     A                      A                      A
 Frequencies --  1505.6335              1508.5073              1509.3884
 Red. masses --     2.5423                 1.0580                 2.6732
 Frc consts  --     3.3956                 1.4186                 3.5883
 IR Inten    --    94.8927                 0.2399                12.2612

                    76                     77                     78
                     A                      A                      A
 Frequencies --  1515.4648              1520.6759              1530.3355
 Red. masses --     1.0454                 1.0461                 1.0490
 Frc consts  --     1.4146                 1.4252                 1.4475
 IR Inten    --     0.1367                 0.0977                 5.8507

                    79                     80                     81
                     A                      A                      A
 Frequencies --  1532.6122              1540.2328              1551.0384
 Red. masses --     1.0666                 3.0533                 1.0798
 Frc consts  --     1.4761                 4.2677                 1.5305
 IR Inten    --     8.7508                55.4840                19.1440

                    82                     83                     84
                     A                      A                      A
 Frequencies --  1635.8868              1645.9703              1657.9739
 Red. masses --     7.7626                 6.6397                 6.8315
 Frc consts  --    12.2395                10.5984                11.0642
 IR Inten    --     5.0616                 8.1211                49.0469

                    85                     86                     87
                     A                      A                      A
 Frequencies --  1688.0452              1833.7841              3050.5567
 Red. masses --     7.5219                12.7013                 1.0355
 Frc consts  --    12.6284                25.1649                 5.6776
 IR Inten    --    20.8458               184.7860                27.2879

                    88                     89                     90
                     A                      A                      A
 Frequencies --  3052.6752              3061.7628              3114.3236
 Red. masses --     1.0361                 1.0364                 1.1031
 Frc consts  --     5.6885                 5.7244                 6.3038
 IR Inten    --    11.1899                29.7579                11.6890

                    91                     92                     93
                     A                      A                      A
 Frequencies --  3116.2165              3129.7131              3138.7683
 Red. masses --     1.1024                 1.1019                 1.1028
 Frc consts  --     6.3076                 6.3593                 6.4013
 IR Inten    --    25.3864                41.6415                12.6387

                    94                     95                     96
                     A                      A                      A
 Frequencies --  3140.3120              3143.7590              3189.5990
 Red. masses --     1.1019                 1.1010                 1.0858
 Frc consts  --     6.4025                 6.4113                 6.5083
 IR Inten    --    11.3252                46.4836                 0.8230

                    97                     98                     99
                     A                      A                      A
 Frequencies --  3199.9707              3204.1173              3211.7024
 Red. masses --     1.0901                 1.0902                 1.0949
 Frc consts  --     6.5769                 6.5943                 6.6541
 IR Inten    --     8.7835                 7.5808                28.3495

                   100                    101                    102
                     A                      A                      A
 Frequencies --  3225.2817              3240.2064              3246.5126
 Red. masses --     1.0950                 1.0928                 1.0930
 Frc consts  --     6.7113                 6.7601                 6.7874
 IR Inten    --    11.0896                 0.9752                 4.4547

 - Thermochemistry -
 -------------------
 Temperature   298.150 Kelvin.  Pressure   1.00000 Atm.
 Atom     1 has atomic number  8 and mass  15.99491

 Molecular mass:   268.10994 amu.
 Principal axes and moments of inertia in atomic units:
                           1         2         3
     Eigenvalues --  1402.79085********************
           X            0.99998   0.00573   0.00199
           Y           -0.00570   0.99987  -0.01511
           Z           -0.00207   0.01509   0.99988
 This molecule is an asymmetric top.
 Rotational symmetry number  1.
 Warning -- assumption of classical behavior for rotation
           may cause significant error
 Rotational temperatures (Kelvin)      0.06174     0.00650     0.00614
 Rotational constants (GHZ):           1.28654     0.13541     0.12790
 Zero-point vibrational energy     764920.2 (Joules/Mol)
                                  182.82032 (Kcal/Mol)
 Warning -- explicit consideration of  28 degrees of freedom as
           vibrations may cause significant error
 Vibrational temperatures:     23.69    47.31    62.68    89.31   150.23
          (Kelvin)            221.08   242.40   279.13   307.90   328.15
                              351.02   388.00   402.94   428.34   459.92
                              506.66   511.78   530.40   558.61   623.60
                              651.80   655.91   688.23   782.95   809.88
                              830.42   842.62   882.17   925.36   976.97
                             1045.41  1080.50  1087.27  1091.23  1102.49
                             1133.84  1155.92  1195.48  1243.05  1244.53
                             1249.93  1295.11  1342.69  1350.71  1364.73
                             1376.42  1400.51  1404.88  1410.62  1472.77
                             1504.75  1521.80  1525.09  1623.94  1634.40
                             1661.04  1686.22  1708.44  1765.42  1784.14
                             1788.10  1817.60  1857.68  1871.08  1884.87
                             1928.85  1980.52  2009.50  2044.61  2057.45
                             2098.00  2122.19  2166.27  2170.40  2171.67
                             2180.41  2187.91  2201.81  2205.08  2216.05
                             2231.60  2353.67  2368.18  2385.45  2428.72
                             2638.40  4389.07  4392.11  4405.19  4480.81
                             4483.53  4502.95  4515.98  4518.20  4523.16
                             4589.12  4604.04  4610.00  4620.92  4640.46
                             4661.93  4671.00

 Zero-point correction=                           0.291343 (Hartree/Particle)
 Thermal correction to Energy=                    0.308631
 Thermal correction to Enthalpy=                  0.309575
 Thermal correction to Gibbs Free Energy=         0.245003
 Sum of electronic and zero-point Energies=           -882.855096
 Sum of electronic and thermal Energies=              -882.837808
 Sum of electronic and thermal Enthalpies=            -882.836864
 Sum of electronic and thermal Free Energies=         -882.901436

                     E (Thermal)             CV                S
                      KCal/Mol        Cal/Mol-Kelvin    Cal/Mol-Kelvin
 Total                  193.669             68.283            135.903
 Electronic               0.000              0.000              0.000
 Translational            0.889              2.981             42.658
 Rotational               0.889              2.981             33.933
 Vibrational            191.891             62.321             59.312
 Vibration     1          0.593              1.986              7.021
 Vibration     2          0.594              1.983              5.647
 Vibration     3          0.595              1.980              5.090
 Vibration     4          0.597              1.972              4.390
 Vibration     5          0.605              1.946              3.370
 Vibration     6          0.619              1.899              2.626
 Vibration     7          0.625              1.881              2.452
 Vibration     8          0.635              1.848              2.189
 Vibration     9          0.644              1.820              2.009
 Vibration    10          0.651              1.798              1.894
 Vibration    11          0.659              1.773              1.774
 Vibration    12          0.674              1.729              1.598
 Vibration    13          0.680              1.710              1.533
 Vibration    14          0.691              1.678              1.430
 Vibration    15          0.706              1.636              1.312
 Vibration    16          0.729              1.571              1.157
 Vibration    17          0.731              1.564              1.141
 Vibration    18          0.741              1.537              1.085
 Vibration    19          0.756              1.495              1.007
 Vibration    20          0.794              1.397              0.848
 Vibration    21          0.812              1.354              0.787
 Vibration    22          0.814              1.348              0.778
 Vibration    23          0.835              1.298              0.715
 Vibration    24          0.899              1.152              0.556
 Vibration    25          0.919              1.112              0.518
 Vibration    26          0.934              1.081              0.491
 Vibration    27          0.943              1.062              0.475
 Vibration    28          0.972              1.004              0.428

 Optimization completed.
    -- Stationary point found.
 Normal termination of Gaussian 09 at Wed Sep 29 12:31:59 2021.
 Gaussian 09:  AM64L-G09RevA.02 11-Jun-2009

 ----------------------------------------------------------------------
 #p TD(NStates=10, Root=1) b3lyp/6-31G* volume pop=NPA density=current
 Geom=AllCheck Guess=Read
 ----------------------------------------------------------------------

 O=C(C(C)(C)C)Oc1ccc2c(c1)oc1c2cccc1_conf_0
 ------------------------------------------
 Redundant internal coordinates taken from checkpoint file:
 C17H16O3_7711_conf_0.chk
 Charge =  0 Multiplicity = 1

                         Standard orientation:
 ---------------------------------------------------------------------
 Center     Atomic      Atomic             Coordinates (Angstroms)
 Number     Number       Type             X           Y           Z
 ---------------------------------------------------------------------
      1          8           0        2.923208   -1.158026   -1.197159
      2          6           0        3.173694   -0.328593   -0.357811
      3          6           0        4.565095    0.205576   -0.003655
      4          6           0        4.597271    1.733228   -0.234278
      5          6           0        4.859096   -0.104594    1.481726
      6          6           0        5.598064   -0.488258   -0.905495
      7          8           0        2.214248    0.273375    0.423276
      8          6           0        0.867270   -0.059816    0.277259
      9          6           0        0.425006   -1.389591    0.354096
     10          6           0       -0.935937   -1.675491    0.285912
     11          6           0       -1.850481   -0.625440    0.146701
     12          6           0       -1.361574    0.692620    0.080131
     13          6           0       -0.013189    1.011767    0.140400
     14          8           0       -2.378563    1.607964   -0.050863
     15          6           0       -3.546296    0.874694   -0.071177
     16          6           0       -3.293995   -0.505512    0.046374
     17          6           0       -4.375027   -1.394282    0.043100
     18          6           0       -5.664175   -0.877226   -0.076495
     19          6           0       -5.883279    0.505454   -0.192162
     20          6           0       -4.820048    1.410828   -0.191539
     21          1           0        3.875217    2.249273    0.404449
     22          1           0        4.374060    1.981872   -1.278246
     23          1           0        5.597634    2.117456   -0.004244
     24          1           0        4.134870    0.380010    2.142373
     25          1           0        5.860090    0.258634    1.741151
     26          1           0        4.833971   -1.183451    1.674529
     27          1           0        5.399099   -0.289156   -1.962784
     28          1           0        5.582219   -1.573260   -0.765283
     29          1           0        6.602824   -0.122156   -0.666550
     30          1           0        1.149305   -2.187712    0.456547
     31          1           0       -1.275783   -2.705467    0.342155
     32          1           0        0.347047    2.032527    0.089663
     33          1           0       -4.214534   -2.465185    0.131129
     34          1           0       -6.514248   -1.553423   -0.081030
     35          1           0       -6.898725    0.880154   -0.284153
     36          1           0       -4.973149    2.481199   -0.280262
 ---------------------------------------------------------------------

 SCF Done:  E(RB3LYP) =  -883.146439057     A.U. after    1 cycles

 Excitation energies and oscillator strengths:

 Excited State   1:      Singlet-A      4.5236 eV  274.08 nm  f=0.0219  <S**2>=0.000
      70 -> 72         0.62824
      71 -> 73        -0.28435
 This state for optimization and/or second-order correction.
 Total Energy, E(TD-HF/TD-KS) =  -882.980199317
 Copying the excited state density for this state as the 1-particle RhoCI density.

 Excited State   2:      Singlet-A      4.5782 eV  270.81 nm  f=0.4694  <S**2>=0.000
      70 -> 73         0.16639
      71 -> 72         0.66369

 Excited State   3:      Singlet-A      5.2182 eV  237.60 nm  f=0.0602  <S**2>=0.000
      69 -> 72         0.42588
      71 -> 72        -0.10438
      71 -> 73        -0.24143
      71 -> 74         0.39051
      71 -> 75        -0.24773

 Excited State   4:      Singlet-A      5.4401 eV  227.91 nm  f=0.0302  <S**2>=0.000
      67 -> 72        -0.11906
      68 -> 72         0.35513
      68 -> 73         0.13286
      68 -> 74        -0.30665
      69 -> 74         0.13620
      70 -> 72        -0.14231
      70 -> 74         0.13244
      70 -> 75         0.14657
      71 -> 73        -0.32888

 Excited State   5:      Singlet-A      5.4815 eV  226.19 nm  f=0.0113  <S**2>=0.000
      69 -> 72        -0.22945
      70 -> 72         0.10600
      70 -> 74         0.15506
      70 -> 75        -0.10358
      71 -> 74         0.54124
      71 -> 75         0.26574

 Excited State   6:      Singlet-A      5.5152 eV  224.80 nm  f=0.0600  <S**2>=0.000
      68 -> 72         0.19794
      68 -> 74        -0.15481
      69 -> 72         0.12747
      69 -> 74         0.11604
      70 -> 72         0.19241
      70 -> 73        -0.23650
      70 -> 75        -0.14156
      71 -> 73         0.40786
      71 -> 75        -0.29826

 Excited State   7:      Singlet-A      5.7045 eV  217.34 nm  f=0.2015  <S**2>=0.000
      69 -> 72         0.30505
      69 -> 74         0.11474
      70 -> 73         0.30794
      70 -> 74         0.47537
      71 -> 72        -0.10819
      71 -> 73         0.11321
      71 -> 75         0.10668

 Excited State   8:      Singlet-A      5.7507 eV  215.60 nm  f=0.2430  <S**2>=0.000
      68 -> 72         0.26861
      70 -> 73         0.50143
      70 -> 74        -0.35706
      71 -> 72        -0.11803

 Excited State   9:      Singlet-A      5.9702 eV  207.67 nm  f=0.1305  <S**2>=0.000
      67 -> 72         0.39903
      68 -> 72         0.29548
      69 -> 72         0.21064
      70 -> 73        -0.13381
      70 -> 75         0.22383
      70 -> 76         0.10173
      71 -> 75         0.27065
      71 -> 76         0.14252

 Excited State  10:      Singlet-A      6.0502 eV  204.93 nm  f=0.0181  <S**2>=0.000
      67 -> 72        -0.18627
      68 -> 72         0.37549
      68 -> 73        -0.19995
      68 -> 74         0.33746
      68 -> 76        -0.11226
      69 -> 72        -0.10410
      69 -> 73         0.19352
      69 -> 74        -0.12564
      70 -> 74         0.19692

 The electronic state is 1-A.
 Alpha  occ. eigenvalues --  -19.21080 -19.20242 -19.14298 -10.31890 -10.25908
 Alpha  occ. eigenvalues --  -10.25314 -10.24885 -10.21642 -10.20304 -10.20120
 Alpha  occ. eigenvalues --  -10.20083 -10.20046 -10.19853 -10.19759 -10.19692
 Alpha  occ. eigenvalues --  -10.19504 -10.19211 -10.18465 -10.18437 -10.17621
 Alpha  occ. eigenvalues --   -1.10909  -1.10661  -1.02654  -0.86620  -0.85806
 Alpha  occ. eigenvalues --   -0.82645  -0.78820  -0.76534  -0.74157  -0.73370
 Alpha  occ. eigenvalues --   -0.69406  -0.68959  -0.66926  -0.63903  -0.62438
 Alpha  occ. eigenvalues --   -0.59525  -0.58587  -0.56073  -0.52603  -0.50763
 Alpha  occ. eigenvalues --   -0.50005  -0.48919  -0.47774  -0.46567  -0.46369
 Alpha  occ. eigenvalues --   -0.45996  -0.44902  -0.44418  -0.44017  -0.43516
 Alpha  occ. eigenvalues --   -0.42696  -0.41602  -0.40360  -0.39476  -0.39271
 Alpha  occ. eigenvalues --   -0.38429  -0.37387  -0.37060  -0.36446  -0.36068
 Alpha  occ. eigenvalues --   -0.35534  -0.34991  -0.34057  -0.33720  -0.33625
 Alpha  occ. eigenvalues --   -0.32083  -0.28151  -0.27382  -0.26093  -0.22888
 Alpha  occ. eigenvalues --   -0.21880
 Alpha virt. eigenvalues --   -0.03682  -0.00199   0.00285   0.01369   0.03915
 Alpha virt. eigenvalues --    0.08101   0.09002   0.09576   0.12317   0.12527
 Alpha virt. eigenvalues --    0.14002   0.14785   0.14840   0.15061   0.15193

 Mulliken atomic charges:
              1
     1  O   -0.467994
     2  C    0.626039
     3  C   -0.006202
     4  C   -0.450439
     5  C   -0.451253
     6  C   -0.433653
     7  O   -0.537769
     8  C    0.335721
     9  C   -0.137320
    10  C   -0.222340
    11  C    0.103526
    12  C    0.306204
    13  C   -0.255143
    14  O   -0.502514
    15  C    0.305087
    16  C    0.086027
    17  C   -0.199119
    18  C   -0.127892
    19  C   -0.157438
    20  C   -0.195068
    21  H    0.161207
    22  H    0.151126
    23  H    0.146852
    24  H    0.164423
    25  H    0.146975
    26  H    0.148627
    27  H    0.156257
    28  H    0.154521
    29  H    0.136042
    30  H    0.158073
    31  H    0.139981
    32  H    0.155464
    33  H    0.139779
    34  H    0.139813
    35  H    0.131483
    36  H    0.150917
 Sum of Mulliken atomic charges =  -0.00000

 Dipole moment (field-independent basis, Debye):
    X=             -0.8015    Y=              0.5415    Z=              1.2608  Tot=              1.5891
 Quadrupole moment (field-independent basis, Debye-Ang):
   XX=            -97.7542   YY=           -109.1804   ZZ=           -121.3156
   XY=              5.0640   XZ=              4.4310   YZ=             -3.9705

 Summary of Natural Population Analysis:

                                       Natural Population
                Natural  -----------------------------------------------
    Atom  No    Charge         Core      Valence    Rydberg      Total
 -----------------------------------------------------------------------
      O    1   -0.58160      1.99977     6.56181    0.02002     8.58160
      C    2    0.83391      1.99928     3.11768    0.04914     5.16609
      C    3   -0.15092      1.99905     4.13947    0.01240     6.15092
      C    4   -0.66883      1.99938     4.65966    0.00979     6.66883
      C    5   -0.66911      1.99938     4.66001    0.00971     6.66911
      C    6   -0.66961      1.99940     4.65914    0.01108     6.66961
      O    7   -0.54776      1.99970     6.53691    0.01116     8.54776
      C    8    0.25676      1.99878     3.72139    0.02307     5.74324
      C    9   -0.20987      1.99904     4.19650    0.01434     6.20987
      C   10   -0.23413      1.99906     4.21951    0.01556     6.23413
      C   11   -0.11396      1.99898     4.09923    0.01575     6.11396
      C   12    0.32948      1.99875     3.64837    0.02340     5.67052
      C   13   -0.30178      1.99891     4.28614    0.01673     6.30178
      O   14   -0.38397      1.99973     6.37333    0.01091     8.38397
      C   15    0.31328      1.99873     3.66494    0.02305     5.68672
      C   16   -0.11404      1.99898     4.09912    0.01594     6.11404
      C   17   -0.22044      1.99905     4.20638    0.01500     6.22044
      C   18   -0.19236      1.99913     4.17881    0.01442     6.19236
      C   19   -0.28075      1.99915     4.26595    0.01564     6.28075
      C   20   -0.25254      1.99900     4.23793    0.01561     6.25254
      H   21    0.24254      0.00000     0.75631    0.00115     0.75746
      H   22    0.23595      0.00000     0.76314    0.00091     0.76405
      H   23    0.23370      0.00000     0.76524    0.00106     0.76630
      H   24    0.24432      0.00000     0.75460    0.00108     0.75568
      H   25    0.23372      0.00000     0.76514    0.00114     0.76628
      H   26    0.23457      0.00000     0.76450    0.00093     0.76543
      H   27    0.24292      0.00000     0.75604    0.00105     0.75708
      H   28    0.24205      0.00000     0.75689    0.00106     0.75795
      H   29    0.22916      0.00000     0.76991    0.00093     0.77084
      H   30    0.25496      0.00000     0.74410    0.00093     0.74504
      H   31    0.24054      0.00000     0.75862    0.00085     0.75946
      H   32    0.25809      0.00000     0.74064    0.00128     0.74191
      H   33    0.23898      0.00000     0.76011    0.00091     0.76102
      H   34    0.23881      0.00000     0.76043    0.00076     0.76119
      H   35    0.23896      0.00000     0.76033    0.00071     0.76104
      H   36    0.24898      0.00000     0.74998    0.00104     0.75102
 =======================================================================
   * Total *    0.00000     39.98326   101.65824    0.35851   142.00000

 Normal termination of Gaussian 09 at Wed Sep 29 20:05:34 2021.
