 Gaussian 09, Revision A.02,

 -----------------------------------
 #p opt b3lyp/6-31G* scf=(xqc,tight)
 -----------------------------------

 ------------------------------------------
 CCN(C(=O)Oc1cccc2c1c1ccccc1[nH]2)CC_conf_0
 ------------------------------------------
 Symbolic Z-matrix:
 Charge =  0 Multiplicity = 1

 SCF Done:  E(RB3LYP) =  -918.633642557     A.U. after   16 cycles
 SCF Done:  E(RB3LYP) =  -918.643723982     A.U. after   13 cycles
 SCF Done:  E(RB3LYP) =  -918.642224042     A.U. after   13 cycles
 SCF Done:  E(RB3LYP) =  -918.644799197     A.U. after   12 cycles
 SCF Done:  E(RB3LYP) =  -918.645516164     A.U. after   13 cycles
 SCF Done:  E(RB3LYP) =  -918.645926261     A.U. after   15 cycles
 SCF Done:  E(RB3LYP) =  -918.646719854     A.U. after   15 cycles
 SCF Done:  E(RB3LYP) =  -918.647124068     A.U. after   12 cycles
 SCF Done:  E(RB3LYP) =  -918.647168089     A.U. after   13 cycles
 SCF Done:  E(RB3LYP) =  -918.647336727     A.U. after   12 cycles
 SCF Done:  E(RB3LYP) =  -918.647440850     A.U. after   12 cycles
 SCF Done:  E(RB3LYP) =  -918.647446711     A.U. after   10 cycles
 SCF Done:  E(RB3LYP) =  -918.647447991     A.U. after   10 cycles
 SCF Done:  E(RB3LYP) =  -918.647449065     A.U. after    9 cycles
 SCF Done:  E(RB3LYP) =  -918.647450216     A.U. after    8 cycles
 SCF Done:  E(RB3LYP) =  -918.647450811     A.U. after    7 cycles
 SCF Done:  E(RB3LYP) =  -918.647451033     A.U. after    7 cycles
 SCF Done:  E(RB3LYP) =  -918.647451096     A.U. after    6 cycles
 Optimization completed.
    -- Stationary point found.
 Normal termination of Gaussian 09 at Wed Sep 29 23:58:12 2021.

 ----------------------------------------------------------------------
 #p freq b3lyp/6-31G* volume NMR pop=NPA density=current Geom=AllCheck
 Guess=Read
 ----------------------------------------------------------------------

 CCN(C(=O)Oc1cccc2c1c1ccccc1[nH]2)CC_conf_0
 ------------------------------------------
 Redundant internal coordinates taken from checkpoint file:
 C17H18N2O2_440a_conf_0.chk
 Charge =  0 Multiplicity = 1

 SCF Done:  E(RB3LYP) =  -918.647451096     A.U. after    2 cycles

  1  C    Isotropic =   174.6333   Anisotropy =    22.2282

  2  C    Isotropic =   147.1878   Anisotropy =    40.1975

  3  N    Isotropic =   157.9749   Anisotropy =    69.6789

  4  C    Isotropic =    46.5873   Anisotropy =    78.7664

  5  O    Isotropic =    61.1559   Anisotropy =   381.4374

  6  O    Isotropic =   145.6030   Anisotropy =   137.6223

  7  C    Isotropic =    48.2137   Anisotropy =    96.6467

  8  C    Isotropic =    80.3763   Anisotropy =   137.7701

  9  C    Isotropic =    70.0794   Anisotropy =   158.5047

 10  C    Isotropic =    90.6443   Anisotropy =   129.9175

 11  C    Isotropic =    57.1660   Anisotropy =   130.6022

 12  C    Isotropic =    79.4868   Anisotropy =   128.5104

 13  C    Isotropic =    73.4063   Anisotropy =   143.6833

 14  C    Isotropic =    72.8012   Anisotropy =   155.8904

 15  C    Isotropic =    76.4544   Anisotropy =   152.1933

 16  C    Isotropic =    70.8551   Anisotropy =   162.1836

 17  C    Isotropic =    87.1408   Anisotropy =   133.2796

 18  C    Isotropic =    59.2352   Anisotropy =   134.2181

 19  N    Isotropic =   145.7491   Anisotropy =    31.0247

 20  C    Isotropic =   146.4069   Anisotropy =    43.4800

 21  C    Isotropic =   175.4244   Anisotropy =    21.4516

 22  H    Isotropic =    31.3150   Anisotropy =    10.2973

 23  H    Isotropic =    30.9050   Anisotropy =     7.6689

 24  H    Isotropic =    30.6991   Anisotropy =     5.8509

 25  H    Isotropic =    29.1857   Anisotropy =     6.4686

 26  H    Isotropic =    27.9089   Anisotropy =     7.3714

 27  H    Isotropic =    25.1769   Anisotropy =     9.0220

 28  H    Isotropic =    24.9275   Anisotropy =     4.8631

 29  H    Isotropic =    25.3858   Anisotropy =     5.4526

 30  H    Isotropic =    24.0678   Anisotropy =     9.1728

 31  H    Isotropic =    25.1040   Anisotropy =     6.0395

 32  H    Isotropic =    24.9086   Anisotropy =     4.7450

 33  H    Isotropic =    25.2050   Anisotropy =     6.0312

 34  H    Isotropic =    25.7349   Anisotropy =    11.2855

 35  H    Isotropic =    28.2180   Anisotropy =     6.4637

 36  H    Isotropic =    29.4502   Anisotropy =     6.7327

 37  H    Isotropic =    30.6764   Anisotropy =     5.8828

 38  H    Isotropic =    31.3855   Anisotropy =    10.9839

 39  H    Isotropic =    31.0207   Anisotropy =     6.9982

  Exact polarizability: 242.344  -9.703 251.009  -6.054  -0.894 105.849
 Approx polarizability: 358.636 -13.922 411.282 -14.991  -8.349 156.225

                     1                      2                      3
                     A                      A                      A
 Frequencies --    17.6646                29.4265                43.1772
 Red. masses --     3.9319                 3.6753                 3.9178
 Frc consts  --     0.0007                 0.0019                 0.0043
 IR Inten    --     0.1034                 1.2399                 0.8434

                     4                      5                      6
                     A                      A                      A
 Frequencies --    58.3125                65.5952                94.3538
 Red. masses --     3.0263                 3.0197                 6.7159
 Frc consts  --     0.0061                 0.0077                 0.0352
 IR Inten    --     0.2643                 0.5438                 0.7712

                     7                      8                      9
                     A                      A                      A
 Frequencies --   107.6890               113.9185               137.5484
 Red. masses --     3.9083                 4.3279                 4.1602
 Frc consts  --     0.0267                 0.0331                 0.0464
 IR Inten    --     6.0849                 1.8437                 0.3186

                    10                     11                     12
                     A                      A                      A
 Frequencies --   185.9188               213.5352               234.5000
 Red. masses --     4.4087                 2.3414                 1.1933
 Frc consts  --     0.0898                 0.0629                 0.0387
 IR Inten    --     3.1477                 1.3343                 0.5305

                    13                     14                     15
                     A                      A                      A
 Frequencies --   251.1276               261.1700               281.6229
 Red. masses --     3.4376                 1.5223                 4.1735
 Frc consts  --     0.1277                 0.0612                 0.1950
 IR Inten    --     0.6822                 1.5358                24.5289

                    16                     17                     18
                     A                      A                      A
 Frequencies --   317.0162               326.9241               342.4380
 Red. masses --     3.9302                 2.7716                 4.0386
 Frc consts  --     0.2327                 0.1745                 0.2790
 IR Inten    --     3.2342                 1.6040                 1.8503

                    19                     20                     21
                     A                      A                      A
 Frequencies --   352.3456               383.4919               430.5122
 Red. masses --     1.2523                 3.6279                 3.4418
 Frc consts  --     0.0916                 0.3144                 0.3758
 IR Inten    --    69.5620                10.7053                 3.1300

                    22                     23                     24
                     A                      A                      A
 Frequencies --   444.5185               455.4832               509.0821
 Red. masses --     3.1627                 4.6117                 3.2825
 Frc consts  --     0.3682                 0.5637                 0.5012
 IR Inten    --     3.6849                 3.9644                 6.1469

                    25                     26                     27
                     A                      A                      A
 Frequencies --   535.0362               556.5396               561.4661
 Red. masses --     4.0963                 4.3580                 6.7254
 Frc consts  --     0.6909                 0.7953                 1.2492
 IR Inten    --     3.8289                 2.2452                 1.1379

                    28                     29                     30
                     A                      A                      A
 Frequencies --   583.1760               601.0878               616.3568
 Red. masses --     3.9329                 4.4784                 5.4212
 Frc consts  --     0.7881                 0.9533                 1.2134
 IR Inten    --     0.8391                 2.4663                 5.7275

                    31                     32                     33
                     A                      A                      A
 Frequencies --   650.8834               666.5910               730.1437
 Red. masses --     4.5769                 6.4298                 3.0705
 Frc consts  --     1.1424                 1.6833                 0.9644
 IR Inten    --     3.3067                 0.6986                19.7892

                    34                     35                     36
                     A                      A                      A
 Frequencies --   736.5687               743.2279               757.8251
 Red. masses --     3.3961                 8.2936                 1.3689
 Frc consts  --     1.0856                 2.6992                 0.4632
 IR Inten    --    14.4279                17.7137                23.0564

                    37                     38                     39
                     A                      A                      A
 Frequencies --   767.3826               784.3473               793.3196
 Red. masses --     1.8300                 2.5468                 1.2226
 Frc consts  --     0.6349                 0.9231                 0.4534
 IR Inten    --    35.1261                 8.7329                 3.6903

                    40                     41                     42
                     A                      A                      A
 Frequencies --   796.0138               815.2207               836.2195
 Red. masses --     1.6526                 3.9421                 2.6381
 Frc consts  --     0.6170                 1.5436                 1.0869
 IR Inten    --    11.3826                 0.4199                 7.5407

                    43                     44                     45
                     A                      A                      A
 Frequencies --   858.8298               868.3852               880.4053
 Red. masses --     1.5141                 1.7112                 5.0498
 Frc consts  --     0.6580                 0.7603                 2.3062
 IR Inten    --     0.2808                 0.4895                 0.9020

                    46                     47                     48
                     A                      A                      A
 Frequencies --   925.4179               944.2428               945.5537
 Red. masses --     1.3510                 2.3048                 1.3001
 Frc consts  --     0.6817                 1.2107                 0.6849
 IR Inten    --     0.7708                17.7699                 1.5915

                    49                     50                     51
                     A                      A                      A
 Frequencies --   963.0791               966.4371              1019.6184
 Red. masses --     2.4988                 1.2357                 7.4221
 Frc consts  --     1.3655                 0.6800                 4.5462
 IR Inten    --    18.6615                 0.0991                10.2082

                    52                     53                     54
                     A                      A                      A
 Frequencies --  1036.7956              1049.7327              1095.9227
 Red. masses --     3.0516                 2.2130                 2.6053
 Frc consts  --     1.9327                 1.4368                 1.8436
 IR Inten    --     9.3223                 2.5422               120.4492

                    55                     56                     57
                     A                      A                      A
 Frequencies --  1098.6217              1103.2503              1118.8280
 Red. masses --     1.8782                 1.9905                 1.8617
 Frc consts  --     1.3356                 1.4274                 1.3730
 IR Inten    --    23.8524                12.5781                10.2823

                    58                     59                     60
                     A                      A                      A
 Frequencies --  1126.6566              1142.9787              1183.5306
 Red. masses --     1.7217                 1.6309                 1.5098
 Frc consts  --     1.2876                 1.2553                 1.2461
 IR Inten    --    26.0570                14.5437               213.5616

                    61                     62                     63
                     A                      A                      A
 Frequencies --  1188.3009              1199.3084              1237.4599
 Red. masses --     1.5853                 1.2402                 2.1611
 Frc consts  --     1.3189                 1.0510                 1.9498
 IR Inten    --   125.7124                29.8844               170.7597

                    64                     65                     66
                     A                      A                      A
 Frequencies --  1248.5110              1259.9109              1279.2535
 Red. masses --     1.5897                 2.7270                 2.5722
 Frc consts  --     1.4600                 2.5504                 2.4801
 IR Inten    --    31.5452                58.7795               186.0871

                    67                     68                     69
                     A                      A                      A
 Frequencies --  1308.2639              1317.0103              1333.4587
 Red. masses --     1.5753                 3.4936                 2.7785
 Frc consts  --     1.5886                 3.5703                 2.9108
 IR Inten    --   208.8008                20.6648                 5.8696

                    70                     71                     72
                     A                      A                      A
 Frequencies --  1358.3529              1369.7794              1388.2857
 Red. masses --     1.3200                 3.0348                 4.4220
 Frc consts  --     1.4350                 3.3549                 5.0215
 IR Inten    --    18.8703                70.4037                21.2689

                    73                     74                     75
                     A                      A                      A
 Frequencies --  1400.1118              1421.0846              1437.0019
 Red. masses --     1.2810                 1.2811                 1.2929
 Frc consts  --     1.4795                 1.5243                 1.5730
 IR Inten    --    21.9102                 9.9486                 9.6784

                    76                     77                     78
                     A                      A                      A
 Frequencies --  1439.2874              1441.7516              1459.8940
 Red. masses --     1.2632                 2.8400                 2.1210
 Frc consts  --     1.5417                 3.4782                 2.6633
 IR Inten    --    25.2594                15.6108               273.5758

                    79                     80                     81
                     A                      A                      A
 Frequencies --  1481.3620              1502.5420              1506.3615
 Red. masses --     2.8589                 2.4114                 1.0743
 Frc consts  --     3.6963                 3.2076                 1.4363
 IR Inten    --    17.4591                31.2443                 7.2442

                    82                     83                     84
                     A                      A                      A
 Frequencies --  1520.8472              1522.7358              1526.5078
 Red. masses --     1.0480                 1.0664                 1.0808
 Frc consts  --     1.4282                 1.4569                 1.4838
 IR Inten    --     4.2757                 4.9810                37.2881

                    85                     86                     87
                     A                      A                      A
 Frequencies --  1534.3906              1535.0344              1536.6223
 Red. masses --     1.0703                 1.7581                 1.5035
 Frc consts  --     1.4847                 2.4408                 2.0917
 IR Inten    --     6.6297                21.0516                12.4708

                    88                     89                     90
                     A                      A                      A
 Frequencies --  1553.8151              1631.5242              1637.6069
 Red. masses --     3.0837                 5.8034                 6.4216
 Frc consts  --     4.3865                 9.1016                10.1464
 IR Inten    --    26.2446                 4.0580                18.6231

                    91                     92                     93
                     A                      A                      A
 Frequencies --  1667.5132              1680.9522              1815.2160
 Red. masses --     6.3214                 7.7486                11.3604
 Frc consts  --    10.3562                12.8998                22.0546
 IR Inten    --    60.9654                12.4468               358.6432

                    94                     95                     96
                     A                      A                      A
 Frequencies --  3051.9102              3052.5455              3063.4735
 Red. masses --     1.0363                 1.0358                 1.0683
 Frc consts  --     5.6871                 5.6866                 5.9072
 IR Inten    --    17.7920                19.8809                26.8808

                    97                     98                     99
                     A                      A                      A
 Frequencies --  3073.1180              3112.6361              3115.2346
 Red. masses --     1.0683                 1.1021                 1.1021
 Frc consts  --     5.9443                 6.2909                 6.3015
 IR Inten    --    35.6813                19.2022                21.5274

                   100                    101                    102
                     A                      A                      A
 Frequencies --  3132.7810              3133.6557              3146.2161
 Red. masses --     1.0992                 1.0978                 1.1030
 Frc consts  --     6.3558                 6.3515                 6.4330
 IR Inten    --    20.6509                21.3449                21.0493

                   103                    104                    105
                     A                      A                      A
 Frequencies --  3150.4299              3182.8532              3191.5715
 Red. masses --     1.0993                 1.0856                 1.0869
 Frc consts  --     6.4285                 6.4796                 6.5233
 IR Inten    --    34.2614                 0.7428                 3.7013

                   106                    107                    108
                     A                      A                      A
 Frequencies --  3193.3336              3206.1052              3207.4660
 Red. masses --     1.0900                 1.0948                 1.0943
 Frc consts  --     6.5489                 6.6304                 6.6332
 IR Inten    --    17.1528                38.2632                25.7038

                   109                    110                    111
                     A                      A                      A
 Frequencies --  3224.4112              3242.4588              3665.9888
 Red. masses --     1.0932                 1.0928                 1.0794
 Frc consts  --     6.6966                 6.7691                 8.5469
 IR Inten    --    14.0778                 4.6835                54.1083

 - Thermochemistry -
 -------------------
 Temperature   298.150 Kelvin.  Pressure   1.00000 Atm.
 Atom     1 has atomic number  6 and mass  12.00000

 Molecular mass:   282.13683 amu.
 Principal axes and moments of inertia in atomic units:
                           1         2         3
     Eigenvalues --  3913.951468553.81050**********
           X            0.99987   0.01563  -0.00301
           Y           -0.01562   0.99987   0.00336
           Z            0.00306  -0.00331   0.99999
 This molecule is an asymmetric top.
 Rotational symmetry number  1.
 Warning -- assumption of classical behavior for rotation
           may cause significant error
 Rotational temperatures (Kelvin)      0.02213     0.01013     0.00794
 Rotational constants (GHZ):           0.46110     0.21099     0.16544
 Zero-point vibrational energy     845779.6 (Joules/Mol)
                                  202.14618 (Kcal/Mol)
 Warning -- explicit consideration of  30 degrees of freedom as
           vibrations may cause significant error
 Vibrational temperatures:     25.42    42.34    62.12    83.90    94.38
          (Kelvin)            135.75   154.94   163.90   197.90   267.50
                              307.23   337.39   361.32   375.76   405.19
                              456.11   470.37   492.69   506.95   551.76
                              619.41   639.56   655.34   732.45   769.80
                              800.74   807.82   839.06   864.83   886.80
                              936.47   959.07  1050.51  1059.76  1069.34
                             1090.34  1104.09  1128.50  1141.41  1145.28
                             1172.92  1203.13  1235.66  1249.41  1266.71
                             1331.47  1358.55  1360.44  1385.65  1390.49
                             1467.00  1491.72  1510.33  1576.79  1580.67
                             1587.33  1609.74  1621.01  1644.49  1702.83
                             1709.70  1725.54  1780.43  1796.33  1812.73
                             1840.56  1882.30  1894.88  1918.55  1954.36
                             1970.80  1997.43  2014.45  2044.62  2067.52
                             2070.81  2074.36  2100.46  2131.35  2161.82
                             2167.32  2188.16  2190.87  2196.30  2207.64
                             2208.57  2210.85  2235.59  2347.40  2356.15
                             2399.18  2418.51  2611.69  4391.01  4391.93
                             4407.65  4421.53  4478.38  4482.12  4507.37
                             4508.63  4526.70  4532.76  4579.41  4591.95
                             4594.49  4612.86  4614.82  4639.20  4665.17
                             5274.53

 Zero-point correction=                           0.322140 (Hartree/Particle)
 Thermal correction to Energy=                    0.341035
 Thermal correction to Enthalpy=                  0.341979
 Thermal correction to Gibbs Free Energy=         0.273090
 Sum of electronic and zero-point Energies=           -918.325311
 Sum of electronic and thermal Energies=              -918.306416
 Sum of electronic and thermal Enthalpies=            -918.305472
 Sum of electronic and thermal Free Energies=         -918.374361

                     E (Thermal)             CV                S
                      KCal/Mol        Cal/Mol-Kelvin    Cal/Mol-Kelvin
 Total                  214.003             72.815            144.990
 Electronic               0.000              0.000              0.000
 Translational            0.889              2.981             42.810
 Rotational               0.889              2.981             34.256
 Vibrational            212.225             66.854             67.924
 Vibration     1          0.593              1.986              6.881
 Vibration     2          0.593              1.984              5.868
 Vibration     3          0.595              1.980              5.108
 Vibration     4          0.596              1.974              4.514
 Vibration     5          0.597              1.971              4.281
 Vibration     6          0.603              1.953              3.568
 Vibration     7          0.606              1.943              3.310
 Vibration     8          0.607              1.938              3.201
 Vibration     9          0.614              1.916              2.838
 Vibration    10          0.632              1.859              2.268
 Vibration    11          0.644              1.820              2.013
 Vibration    12          0.654              1.788              1.844
 Vibration    13          0.663              1.761              1.723
 Vibration    14          0.669              1.744              1.654
 Vibration    15          0.681              1.708              1.524
 Vibration    16          0.704              1.641              1.325
 Vibration    17          0.711              1.622              1.275
 Vibration    18          0.722              1.591              1.201
 Vibration    19          0.729              1.570              1.156
 Vibration    20          0.753              1.505              1.025
 Vibration    21          0.792              1.404              0.857
 Vibration    22          0.804              1.373              0.813
 Vibration    23          0.814              1.349              0.779
 Vibration    24          0.864              1.230              0.636
 Vibration    25          0.890              1.173              0.576
 Vibration    26          0.912              1.125              0.531
 Vibration    27          0.917              1.115              0.521
 Vibration    28          0.940              1.068              0.480
 Vibration    29          0.959              1.029              0.448
 Vibration    30          0.976              0.997              0.422

 Optimization completed.
    -- Stationary point found.
 Normal termination of Gaussian 09 at Thu Sep 30 02:38:47 2021.
 Gaussian 09:  AM64L-G09RevA.02 11-Jun-2009

 ----------------------------------------------------------------------
 #p TD(NStates=10, Root=1) b3lyp/6-31G* volume pop=NPA density=current
 Geom=AllCheck Guess=Read
 ----------------------------------------------------------------------

 CCN(C(=O)Oc1cccc2c1c1ccccc1[nH]2)CC_conf_0
 ------------------------------------------
 Redundant internal coordinates taken from checkpoint file:
 C17H18N2O2_440a_conf_0.chk
 Charge =  0 Multiplicity = 1

                         Standard orientation:
 ---------------------------------------------------------------------
 Center     Atomic      Atomic             Coordinates (Angstroms)
 Number     Number       Type             X           Y           Z
 ---------------------------------------------------------------------
      1          6           0       -3.349424   -0.589720    2.508577
      2          6           0       -2.929876   -1.217583    1.176225
      3          7           0       -3.063200   -0.302668    0.038077
      4          6           0       -2.082621    0.547916   -0.376464
      5          8           0       -2.176622    1.334409   -1.298772
      6          8           0       -0.944721    0.391803    0.396760
      7          6           0        0.134332    1.249262    0.205245
      8          6           0       -0.001177    2.632931    0.235952
      9          6           0        1.135861    3.449080    0.131848
     10          6           0        2.415292    2.913644    0.006476
     11          6           0        2.528961    1.522485   -0.018672
     12          6           0        1.399754    0.665212    0.074009
     13          6           0        1.892767   -0.696459    0.007003
     14          6           0        1.291598   -1.961452    0.035009
     15          6           0        2.092685   -3.096252   -0.060060
     16          6           0        3.488420   -2.985343   -0.183602
     17          6           0        4.113758   -1.741076   -0.216792
     18          6           0        3.305697   -0.606211   -0.121974
     19          7           0        3.662299    0.732960   -0.131936
     20          6           0       -4.338592   -0.262046   -0.685431
     21          6           0       -4.376067   -1.213260   -1.883945
     22          1           0       -3.268051   -1.323853    3.318649
     23          1           0       -4.386334   -0.236365    2.474398
     24          1           0       -2.703978    0.260487    2.750156
     25          1           0       -3.549303   -2.094909    0.956876
     26          1           0       -1.896482   -1.562252    1.235273
     27          1           0       -0.986386    3.073351    0.324979
     28          1           0        1.009969    4.527859    0.152052
     29          1           0        3.288656    3.554924   -0.069872
     30          1           0        0.214154   -2.050799    0.122614
     31          1           0        1.634549   -4.081095   -0.039922
     32          1           0        4.093081   -3.885345   -0.255856
     33          1           0        5.192952   -1.657803   -0.314851
     34          1           0        4.602746    1.082897   -0.226159
     35          1           0       -4.503319    0.765006   -1.018253
     36          1           0       -5.130018   -0.511678    0.030366
     37          1           0       -3.608980   -0.931775   -2.611551
     38          1           0       -5.353525   -1.165788   -2.378022
     39          1           0       -4.200903   -2.251374   -1.578191
 ---------------------------------------------------------------------

 SCF Done:  E(RB3LYP) =  -918.647451096     A.U. after    1 cycles

 Excitation energies and oscillator strengths:

 Excited State   1:      Singlet-A      4.1302 eV  300.19 nm  f=0.0537  <S**2>=0.000
      74 -> 77         0.20271
      75 -> 76         0.66743
 This state for optimization and/or second-order correction.
 Total Energy, E(TD-HF/TD-KS) =  -918.495667258
 Copying the excited state density for this state as the 1-particle RhoCI density.

 Excited State   2:      Singlet-A      4.5806 eV  270.68 nm  f=0.1070  <S**2>=0.000
      74 -> 76         0.59762
      75 -> 77        -0.34256

 Excited State   3:      Singlet-A      5.2241 eV  237.33 nm  f=0.0796  <S**2>=0.000
      72 -> 76         0.19654
      73 -> 76         0.60615
      74 -> 76         0.17693
      74 -> 78        -0.13353
      75 -> 77         0.18267

 Excited State   4:      Singlet-A      5.3142 eV  233.31 nm  f=0.3355  <S**2>=0.000
      72 -> 76        -0.27596
      74 -> 76         0.19324
      74 -> 78         0.29909
      75 -> 77         0.48950
      75 -> 79         0.15914

 Excited State   5:      Singlet-A      5.3885 eV  230.09 nm  f=0.1104  <S**2>=0.000
      74 -> 77         0.58110
      75 -> 76        -0.16496
      75 -> 78        -0.29756

 Excited State   6:      Singlet-A      5.4184 eV  228.82 nm  f=0.1603  <S**2>=0.000
      72 -> 76         0.54181
      73 -> 76        -0.32242
      74 -> 76         0.17180
      75 -> 77         0.21438

 Excited State   7:      Singlet-A      5.8952 eV  210.31 nm  f=0.0159  <S**2>=0.000
      71 -> 76         0.57723
      74 -> 77        -0.11994
      75 -> 78        -0.33525

 Excited State   8:      Singlet-A      5.9367 eV  208.84 nm  f=0.1019  <S**2>=0.000
      70 -> 76         0.24600
      71 -> 76         0.32355
      72 -> 77         0.12659
      73 -> 77         0.19585
      74 -> 77         0.19916
      75 -> 78         0.42964
      75 -> 79         0.12282

 Excited State   9:      Singlet-A      5.9883 eV  207.04 nm  f=0.4025  <S**2>=0.000
      71 -> 76        -0.13801
      72 -> 76         0.12703
      74 -> 76        -0.16488
      74 -> 78         0.22680
      75 -> 77        -0.18999
      75 -> 79         0.55814

 Excited State  10:      Singlet-A      6.1666 eV  201.06 nm  f=0.0838  <S**2>=0.000
      70 -> 76        -0.27715
      73 -> 77         0.52602
      74 -> 78        -0.17893
      75 -> 79         0.16715
      75 -> 80        -0.23088

 The electronic state is 1-A.
 Alpha  occ. eigenvalues --  -19.19060 -19.11197 -14.37442 -14.36166 -10.32699
 Alpha  occ. eigenvalues --  -10.24580 -10.22587 -10.22551 -10.22339 -10.22020
 Alpha  occ. eigenvalues --  -10.18765 -10.18763 -10.18750 -10.18702 -10.18578
 Alpha  occ. eigenvalues --  -10.18577 -10.18451 -10.18222 -10.17830 -10.17756
 Alpha  occ. eigenvalues --  -10.17734  -1.09985  -1.00987  -0.97775  -0.93755
 Alpha  occ. eigenvalues --   -0.84185  -0.83751  -0.77569  -0.77106  -0.75571
 Alpha  occ. eigenvalues --   -0.73942  -0.72086  -0.71522  -0.66353  -0.64319
 Alpha  occ. eigenvalues --   -0.63436  -0.60942  -0.59904  -0.58506  -0.55898
 Alpha  occ. eigenvalues --   -0.52594  -0.52363  -0.50208  -0.49310  -0.49014
 Alpha  occ. eigenvalues --   -0.47135  -0.45558  -0.45093  -0.44227  -0.43846
 Alpha  occ. eigenvalues --   -0.43394  -0.42886  -0.42538  -0.42333  -0.41430
 Alpha  occ. eigenvalues --   -0.40312  -0.39515  -0.38964  -0.37718  -0.37172
 Alpha  occ. eigenvalues --   -0.36987  -0.36570  -0.35644  -0.35001  -0.34822
 Alpha  occ. eigenvalues --   -0.34391  -0.33830  -0.32340  -0.30158  -0.27613
 Alpha  occ. eigenvalues --   -0.26524  -0.24388  -0.23765  -0.20888  -0.19787
 Alpha virt. eigenvalues --   -0.02248   0.00940   0.03430   0.04664   0.05906
 Alpha virt. eigenvalues --    0.07932   0.08311   0.09401   0.10820   0.11845
 Alpha virt. eigenvalues --    0.11915   0.14064   0.14146   0.15040   0.15575

 Mulliken atomic charges:
              1
     1  C   -0.442048
     2  C   -0.151753
     3  N   -0.441861
     4  C    0.788269
     5  O   -0.516787
     6  O   -0.569976
     7  C    0.273253
     8  C   -0.123203
     9  C   -0.182539
    10  C   -0.169433
    11  C    0.314857
    12  C    0.036149
    13  C    0.085715
    14  C   -0.221987
    15  C   -0.127000
    16  C   -0.166653
    17  C   -0.187570
    18  C    0.327530
    19  N   -0.759344
    20  C   -0.143848
    21  C   -0.442854
    22  H    0.147662
    23  H    0.148660
    24  H    0.165275
    25  H    0.147754
    26  H    0.187233
    27  H    0.151460
    28  H    0.125059
    29  H    0.125010
    30  H    0.134281
    31  H    0.125660
    32  H    0.115360
    33  H    0.116963
    34  H    0.342945
    35  H    0.180577
    36  H    0.142110
    37  H    0.175576
    38  H    0.145501
    39  H    0.143998
 Sum of Mulliken atomic charges =  -0.00000

 Dipole moment (field-independent basis, Debye):
    X=              0.9340    Y=             -0.3622    Z=              1.5970  Tot=              1.8852
 Quadrupole moment (field-independent basis, Debye-Ang):
   XX=            -92.3282   YY=           -117.5230   ZZ=           -128.4838
   XY=             12.9540   XZ=             -5.8008   YZ=              2.0750

 Summary of Natural Population Analysis:

                                       Natural Population
                Natural  -----------------------------------------------
    Atom  No    Charge         Core      Valence    Rydberg      Total
 -----------------------------------------------------------------------
      C    1   -0.68742      1.99945     4.68054    0.00743     6.68742
      C    2   -0.25756      1.99934     4.24307    0.01515     6.25756
      N    3   -0.50251      1.99930     5.48963    0.01359     7.50251
      C    4    0.93977      1.99936     3.01508    0.04579     5.06023
      O    5   -0.64504      1.99978     6.62618    0.01909     8.64504
      O    6   -0.55661      1.99969     6.54673    0.01018     8.55661
      C    7    0.29812      1.99865     3.68032    0.02290     5.70188
      C    8   -0.20620      1.99903     4.19356    0.01362     6.20620
      C    9   -0.29035      1.99915     4.27490    0.01629     6.29035
      C   10   -0.25830      1.99901     4.24443    0.01485     6.25830
      C   11    0.16048      1.99899     3.82141    0.01912     5.83952
      C   12   -0.11840      1.99893     4.10319    0.01628     6.11840
      C   13   -0.07881      1.99901     4.06306    0.01674     6.07881
      C   14   -0.26589      1.99905     4.25077    0.01606     6.26589
      C   15   -0.18559      1.99912     4.17232    0.01416     6.18559
      C   16   -0.29510      1.99914     4.27966    0.01630     6.29510
      C   17   -0.27993      1.99902     4.26558    0.01533     6.27993
      C   18    0.16284      1.99898     3.81913    0.01905     5.83716
      N   19   -0.44780      1.99927     5.43878    0.00976     7.44780
      C   20   -0.25441      1.99935     4.23966    0.01540     6.25441
      C   21   -0.68802      1.99945     4.68111    0.00745     6.68802
      H   22    0.23499      0.00000     0.76408    0.00093     0.76501
      H   23    0.22663      0.00000     0.77245    0.00092     0.77337
      H   24    0.23820      0.00000     0.76049    0.00130     0.76180
      H   25    0.23006      0.00000     0.76848    0.00147     0.76994
      H   26    0.25177      0.00000     0.74667    0.00156     0.74823
      H   27    0.25287      0.00000     0.74611    0.00102     0.74713
      H   28    0.23727      0.00000     0.76200    0.00073     0.76273
      H   29    0.23395      0.00000     0.76511    0.00094     0.76605
      H   30    0.23421      0.00000     0.76474    0.00105     0.76579
      H   31    0.23235      0.00000     0.76685    0.00080     0.76765
      H   32    0.23177      0.00000     0.76748    0.00076     0.76823
      H   33    0.23004      0.00000     0.76893    0.00103     0.76996
      H   34    0.43838      0.00000     0.55989    0.00174     0.56162
      H   35    0.25676      0.00000     0.74125    0.00199     0.74324
      H   36    0.22564      0.00000     0.77299    0.00136     0.77436
      H   37    0.24403      0.00000     0.75473    0.00125     0.75597
      H   38    0.23377      0.00000     0.76534    0.00089     0.76623
      H   39    0.22404      0.00000     0.77501    0.00095     0.77596
 =======================================================================
   * Total *   -0.00000     41.98307   107.65169    0.36524   150.00000

 Normal termination of Gaussian 09 at Thu Sep 30 10:50:36 2021.
