 Gaussian 09, Revision A.02,

 -----------------------------------
 #p opt b3lyp/6-31G* scf=(xqc,tight)
 -----------------------------------

 ------------------------------------
 CCN(C(=O)Oc1ccccc1c1ccccc1)CC_conf_0
 ------------------------------------
 Symbolic Z-matrix:
 Charge =  0 Multiplicity = 1

 SCF Done:  E(RB3LYP) =  -864.474492116     A.U. after   16 cycles
 SCF Done:  E(RB3LYP) =  -864.479095392     A.U. after   13 cycles
 SCF Done:  E(RB3LYP) =  -864.479475573     A.U. after   12 cycles
 SCF Done:  E(RB3LYP) =  -864.479889372     A.U. after   12 cycles
 SCF Done:  E(RB3LYP) =  -864.480252402     A.U. after   12 cycles
 SCF Done:  E(RB3LYP) =  -864.480297437     A.U. after   11 cycles
 SCF Done:  E(RB3LYP) =  -864.480317755     A.U. after   11 cycles
 SCF Done:  E(RB3LYP) =  -864.480336643     A.U. after   11 cycles
 SCF Done:  E(RB3LYP) =  -864.480383989     A.U. after   12 cycles
 SCF Done:  E(RB3LYP) =  -864.456990991     A.U. after   15 cycles
 SCF Done:  E(RB3LYP) =  -864.480609506     A.U. after   11 cycles
 SCF Done:  E(RB3LYP) =  -864.480625572     A.U. after   11 cycles
 SCF Done:  E(RB3LYP) =  -864.480632957     A.U. after   10 cycles
 SCF Done:  E(RB3LYP) =  -864.480635785     A.U. after    9 cycles
 SCF Done:  E(RB3LYP) =  -864.480639642     A.U. after   10 cycles
 SCF Done:  E(RB3LYP) =  -864.480640925     A.U. after    8 cycles
 SCF Done:  E(RB3LYP) =  -864.480641289     A.U. after    8 cycles
 SCF Done:  E(RB3LYP) =  -864.480641264     A.U. after    7 cycles
 Optimization completed.
    -- Stationary point found.
 Normal termination of Gaussian 09 at Thu Sep 30 01:13:35 2021.

 ----------------------------------------------------------------------
 #p freq b3lyp/6-31G* volume NMR pop=NPA density=current Geom=AllCheck
 Guess=Read
 ----------------------------------------------------------------------

 CCN(C(=O)Oc1ccccc1c1ccccc1)CC_conf_0
 ------------------------------------
 Redundant internal coordinates taken from checkpoint file:
 C17H19NO2_477a_conf_0.chk
 Charge =  0 Multiplicity = 1

 SCF Done:  E(RB3LYP) =  -864.480641264     A.U. after    1 cycles

  1  C    Isotropic =   172.1619   Anisotropy =    24.9532

  2  C    Isotropic =   142.8059   Anisotropy =    46.6699

  3  N    Isotropic =   157.4252   Anisotropy =    68.9590

  4  C    Isotropic =    44.6468   Anisotropy =    65.0540

  5  O    Isotropic =    55.3574   Anisotropy =   375.8520

  6  O    Isotropic =   138.7469   Anisotropy =   122.0145

  7  C    Isotropic =    46.3101   Anisotropy =   104.0556

  8  C    Isotropic =    70.8794   Anisotropy =   144.7152

  9  C    Isotropic =    68.5281   Anisotropy =   161.3331

 10  C    Isotropic =    70.9980   Anisotropy =   162.0873

 11  C    Isotropic =    64.9483   Anisotropy =   149.4140

 12  C    Isotropic =    57.9919   Anisotropy =   156.7028

 13  C    Isotropic =    56.0768   Anisotropy =   171.9632

 14  C    Isotropic =    67.4531   Anisotropy =   152.6379

 15  C    Isotropic =    68.2340   Anisotropy =   164.9489

 16  C    Isotropic =    69.6020   Anisotropy =   166.1740

 17  C    Isotropic =    68.7862   Anisotropy =   165.0800

 18  C    Isotropic =    66.3483   Anisotropy =   163.9235

 19  C    Isotropic =   141.3769   Anisotropy =    49.7367

 20  C    Isotropic =   172.9037   Anisotropy =    24.2760

 21  H    Isotropic =    31.4145   Anisotropy =    10.2356

 22  H    Isotropic =    30.9427   Anisotropy =     7.2705

 23  H    Isotropic =    30.6239   Anisotropy =     5.3321

 24  H    Isotropic =    29.6723   Anisotropy =     6.1405

 25  H    Isotropic =    28.5563   Anisotropy =     6.1847

 26  H    Isotropic =    25.1795   Anisotropy =     8.0783

 27  H    Isotropic =    24.9660   Anisotropy =     4.5384

 28  H    Isotropic =    25.0506   Anisotropy =     4.0547

 29  H    Isotropic =    25.0030   Anisotropy =     8.4499

 30  H    Isotropic =    25.0338   Anisotropy =     8.2518

 31  H    Isotropic =    24.9107   Anisotropy =     4.4678

 32  H    Isotropic =    24.9974   Anisotropy =     4.0090

 33  H    Isotropic =    24.9934   Anisotropy =     5.6319

 34  H    Isotropic =    24.7358   Anisotropy =     8.0824

 35  H    Isotropic =    29.6540   Anisotropy =     6.4880

 36  H    Isotropic =    28.1050   Anisotropy =     5.9451

 37  H    Isotropic =    31.0270   Anisotropy =     6.5954

 38  H    Isotropic =    31.3173   Anisotropy =    10.6355

 39  H    Isotropic =    30.3426   Anisotropy =     5.8334

  Exact polarizability: 202.715  -1.889 226.843  14.178   2.318 127.326
 Approx polarizability: 289.441  -3.710 342.240  28.254   1.823 205.035

                     1                      2                      3
                     A                      A                      A
 Frequencies --    25.1246                29.5668                39.7496
 Red. masses --     3.9925                 4.5282                 2.7935
 Frc consts  --     0.0015                 0.0023                 0.0026
 IR Inten    --     1.0897                 0.1980                 0.0125

                     4                      5                      6
                     A                      A                      A
 Frequencies --    54.4161                71.6020                82.7886
 Red. masses --     3.5339                 3.1067                 3.5046
 Frc consts  --     0.0062                 0.0094                 0.0142
 IR Inten    --     0.1589                 0.1364                 0.4396

                     7                      8                      9
                     A                      A                      A
 Frequencies --    91.1645               107.2768               115.0853
 Red. masses --     4.1651                 4.0600                 6.0694
 Frc consts  --     0.0204                 0.0275                 0.0474
 IR Inten    --     2.2125                 2.9103                 0.4001

                    10                     11                     12
                     A                      A                      A
 Frequencies --   135.7542               194.8437               220.7205
 Red. masses --     4.0988                 1.9822                 2.0212
 Frc consts  --     0.0445                 0.0443                 0.0580
 IR Inten    --     0.4283                 0.0721                 0.2253

                    13                     14                     15
                     A                      A                      A
 Frequencies --   238.3881               250.3071               269.4758
 Red. masses --     1.4515                 1.9152                 4.6823
 Frc consts  --     0.0486                 0.0707                 0.2003
 IR Inten    --     1.7014                 0.6704                 1.0125

                    16                     17                     18
                     A                      A                      A
 Frequencies --   300.2554               327.2162               360.3939
 Red. masses --     2.9759                 3.6988                 4.4472
 Frc consts  --     0.1581                 0.2333                 0.3403
 IR Inten    --     3.4992                 1.8675                 1.5155

                    19                     20                     21
                     A                      A                      A
 Frequencies --   401.8414               421.3606               440.7823
 Red. masses --     2.6953                 3.0843                 3.8709
 Frc consts  --     0.2564                 0.3226                 0.4431
 IR Inten    --     7.8823                 0.1533                 4.1909

                    22                     23                     24
                     A                      A                      A
 Frequencies --   448.4749               488.7860               504.2224
 Red. masses --     3.9892                 3.4925                 3.5940
 Frc consts  --     0.4727                 0.4916                 0.5384
 IR Inten    --     0.0881                 5.4822                 1.9429

                    25                     26                     27
                     A                      A                      A
 Frequencies --   546.9883               567.3664               611.3877
 Red. masses --     4.0779                 3.5949                 4.7668
 Frc consts  --     0.7189                 0.6818                 1.0498
 IR Inten    --     3.3412                 5.0830                 3.2318

                    28                     29                     30
                     A                      A                      A
 Frequencies --   628.3224               632.3040               645.3318
 Red. masses --     6.8473                 5.8268                 4.7199
 Frc consts  --     1.5927                 1.3726                 1.1581
 IR Inten    --     5.6253                 0.6051                 1.4146

                    31                     32                     33
                     A                      A                      A
 Frequencies --   719.7719               732.9417               748.0388
 Red. masses --     2.1279                 3.6698                 4.8728
 Frc consts  --     0.6495                 1.1615                 1.6065
 IR Inten    --    24.5516                 5.8786                 1.3795

                    34                     35                     36
                     A                      A                      A
 Frequencies --   753.4730               761.5409               786.7331
 Red. masses --     9.5992                 1.4123                 1.4340
 Frc consts  --     3.2109                 0.4826                 0.5229
 IR Inten    --    30.4253                50.7629                12.1993

                    37                     38                     39
                     A                      A                      A
 Frequencies --   787.7741               793.0002               838.6249
 Red. masses --     1.5119                 1.2402                 2.2701
 Frc consts  --     0.5528                 0.4595                 0.9406
 IR Inten    --     2.1810                10.2386                 5.9213

                    40                     41                     42
                     A                      A                      A
 Frequencies --   848.4301               871.1246               887.3367
 Red. masses --     4.0234                 1.2504                 1.7658
 Frc consts  --     1.7064                 0.5590                 0.8191
 IR Inten    --     2.0895                 0.4096                 0.8270

                    43                     44                     45
                     A                      A                      A
 Frequencies --   939.5647               948.1426               949.6458
 Red. masses --     1.3829                 2.2098                 1.3875
 Frc consts  --     0.7192                 1.1704                 0.7372
 IR Inten    --     4.1937                 5.7774                 0.6312

                    46                     47                     48
                     A                      A                      A
 Frequencies --   978.4721               980.2229               981.2488
 Red. masses --     2.7718                 1.2576                 1.3247
 Frc consts  --     1.5636                 0.7119                 0.7515
 IR Inten    --    50.6511                 0.1059                 0.8104

                    49                     50                     51
                     A                      A                      A
 Frequencies --  1007.3228              1017.7494              1027.9915
 Red. masses --     1.2564                 6.0602                 7.2075
 Frc consts  --     0.7512                 3.6985                 4.4876
 IR Inten    --     1.9983                 0.6135                 9.6470

                    52                     53                     54
                     A                      A                      A
 Frequencies --  1062.7243              1065.8407              1079.4100
 Red. masses --     3.1095                 2.1737                 1.9388
 Frc consts  --     2.0691                 1.4549                 1.3310
 IR Inten    --     6.1228                 0.3434                16.9291

                    55                     56                     57
                     A                      A                      A
 Frequencies --  1104.9672              1110.5942              1120.9133
 Red. masses --     1.9503                 1.6207                 1.7941
 Frc consts  --     1.4030                 1.1778                 1.3281
 IR Inten    --     3.0156                 3.5013                23.7970

                    58                     59                     60
                     A                      A                      A
 Frequencies --  1124.2482              1141.6051              1192.0561
 Red. masses --     1.6513                 1.6961                 1.3292
 Frc consts  --     1.2297                 1.3024                 1.1128
 IR Inten    --    36.8266                15.9049                54.0379

                    61                     62                     63
                     A                      A                      A
 Frequencies --  1192.9405              1193.2037              1217.4185
 Red. masses --     1.1179                 1.6975                 1.1435
 Frc consts  --     0.9373                 1.4240                 0.9986
 IR Inten    --     5.6097               118.1861                 1.5709

                    64                     65                     66
                     A                      A                      A
 Frequencies --  1234.3989              1263.6226              1286.8976
 Red. masses --     3.3078                 2.6063                 1.9338
 Frc consts  --     2.9697                 2.4520                 1.8869
 IR Inten    --   329.9892                20.6727                67.2161

                    67                     68                     69
                     A                      A                      A
 Frequencies --  1310.5122              1319.8308              1338.1963
 Red. masses --     2.7653                 1.6726                 2.6715
 Frc consts  --     2.7982                 1.7166                 2.8187
 IR Inten    --    41.3776               168.4977                 0.6248

                    70                     71                     72
                     A                      A                      A
 Frequencies --  1345.7392              1366.6888              1369.6384
 Red. masses --     7.5801                 1.3636                 1.6149
 Frc consts  --     8.0881                 1.5006                 1.7848
 IR Inten    --     0.0263                33.0715                 1.0475

                    73                     74                     75
                     A                      A                      A
 Frequencies --  1403.2688              1419.9582              1435.1026
 Red. masses --     1.2348                 1.3309                 1.2717
 Frc consts  --     1.4326                 1.5811                 1.5432
 IR Inten    --     8.9082                40.3393                21.5717

                    76                     77                     78
                     A                      A                      A
 Frequencies --  1438.5594              1457.9419              1481.5579
 Red. masses --     1.3211                 1.7920                 2.1579
 Frc consts  --     1.6108                 2.2443                 2.7907
 IR Inten    --    65.1360               178.8583                 3.9387

                    79                     80                     81
                     A                      A                      A
 Frequencies --  1501.2910              1504.5630              1518.1687
 Red. masses --     2.2932                 1.0782                 1.0475
 Frc consts  --     3.0452                 1.4380                 1.4224
 IR Inten    --     1.1605                 6.6432                 1.6062

                    82                     83                     84
                     A                      A                      A
 Frequencies --  1522.3308              1526.6654              1531.1008
 Red. masses --     1.1903                 1.0486                 1.5714
 Frc consts  --     1.6252                 1.4400                 2.1705
 IR Inten    --    41.6052                 5.5263                27.2389

                    85                     86                     87
                     A                      A                      A
 Frequencies --  1533.3668              1541.4897              1553.9385
 Red. masses --     1.2209                 1.1141                 2.5755
 Frc consts  --     1.6914                 1.5598                 3.6642
 IR Inten    --     3.5101                 8.0601                 5.7944

                    88                     89                     90
                     A                      A                      A
 Frequencies --  1627.5617              1640.3931              1662.0118
 Red. masses --     5.3980                 5.9987                 5.9896
 Frc consts  --     8.4248                 9.5105                 9.7480
 IR Inten    --     1.0483                 2.8224                 0.9987

                    91                     92                     93
                     A                      A                      A
 Frequencies --  1663.4472              1801.7736              3055.0128
 Red. masses --     5.7534                11.3413                 1.0361
 Frc consts  --     9.3798                21.6926                 5.6973
 IR Inten    --     3.5790               363.7607                 9.6585

                    94                     95                     96
                     A                      A                      A
 Frequencies --  3057.2264              3068.9017              3076.8630
 Red. masses --     1.0364                 1.0646                 1.0643
 Frc consts  --     5.7073                 5.9073                 5.9365
 IR Inten    --    35.3202                 2.4846                50.1023

                    97                     98                     99
                     A                      A                      A
 Frequencies --  3113.7620              3119.5114              3126.9242
 Red. masses --     1.1030                 1.1024                 1.0999
 Frc consts  --     6.3008                 6.3209                 6.3366
 IR Inten    --    16.9539                14.2229                34.3679

                   100                    101                    102
                     A                      A                      A
 Frequencies --  3131.0294              3145.1836              3148.9548
 Red. masses --     1.0979                 1.1035                 1.1044
 Frc consts  --     6.3412                 6.4314                 6.4524
 IR Inten    --    17.1134                12.2992                50.0811

                   103                    104                    105
                     A                      A                      A
 Frequencies --  3179.2210              3187.0189              3188.1138
 Red. masses --     1.0847                 1.0873                 1.0861
 Frc consts  --     6.4595                 6.5066                 6.5042
 IR Inten    --     1.2884                 5.5070                 2.5156

                   106                    107                    108
                     A                      A                      A
 Frequencies --  3196.6458              3198.9869              3206.0342
 Red. masses --     1.0918                 1.0900                 1.0952
 Frc consts  --     6.5736                 6.5720                 6.6324
 IR Inten    --    32.2596                 4.3650                26.6735

                   109                    110                    111
                     A                      A                      A
 Frequencies --  3209.3975              3212.9745              3219.5911
 Red. masses --     1.0942                 1.0961                 1.0961
 Frc consts  --     6.6402                 6.6667                 6.6945
 IR Inten    --    29.8442                10.1311                11.4287

 - Thermochemistry -
 -------------------
 Temperature   298.150 Kelvin.  Pressure   1.00000 Atm.
 Atom     1 has atomic number  6 and mass  12.00000

 Molecular mass:   269.14158 amu.
 Principal axes and moments of inertia in atomic units:
                           1         2         3
     Eigenvalues --  4204.294656766.658359214.67911
           X            0.99995   0.00947  -0.00306
           Y           -0.00947   0.99995   0.00068
           Z            0.00306  -0.00065   1.00000
 This molecule is an asymmetric top.
 Rotational symmetry number  1.
 Warning -- assumption of classical behavior for rotation
           may cause significant error
 Rotational temperatures (Kelvin)      0.02060     0.01280     0.00940
 Rotational constants (GHZ):           0.42926     0.26671     0.19586
 Zero-point vibrational energy     859264.1 (Joules/Mol)
                                  205.36905 (Kcal/Mol)
 Warning -- explicit consideration of  27 degrees of freedom as
           vibrations may cause significant error
 Vibrational temperatures:     36.15    42.54    57.19    78.29   103.02
          (Kelvin)            119.11   131.17   154.35   165.58   195.32
                              280.34   317.57   342.99   360.14   387.72
                              432.00   470.79   518.53   578.16   606.24
                              634.19   645.25   703.25   725.46   786.99
                              816.31   879.65   904.01   909.74   928.49
                             1035.59  1054.54  1076.26  1084.08  1095.69
                             1131.93  1133.43  1140.95  1206.59  1220.70
                             1253.35  1276.68  1351.82  1364.16  1366.33
                             1407.80  1410.32  1411.80  1449.31  1464.31
                             1479.05  1529.02  1533.51  1553.03  1589.80
                             1597.90  1612.74  1617.54  1642.51  1715.10
                             1716.37  1716.75  1751.59  1776.02  1818.07
                             1851.56  1885.53  1898.94  1925.36  1936.22
                             1966.36  1970.60  2018.99  2043.00  2064.79
                             2069.76  2097.65  2131.63  2160.02  2164.73
                             2184.30  2190.29  2196.53  2202.91  2206.17
                             2217.86  2235.77  2341.70  2360.16  2391.26
                             2393.33  2592.35  4395.48  4398.66  4415.46
                             4426.91  4480.00  4488.28  4498.94  4504.85
                             4525.21  4530.64  4574.18  4585.40  4586.98
                             4599.25  4602.62  4612.76  4617.60  4622.75
                             4632.27

 Zero-point correction=                           0.327276 (Hartree/Particle)
 Thermal correction to Energy=                    0.345993
 Thermal correction to Enthalpy=                  0.346937
 Thermal correction to Gibbs Free Energy=         0.278198
 Sum of electronic and zero-point Energies=           -864.153365
 Sum of electronic and thermal Energies=              -864.134648
 Sum of electronic and thermal Enthalpies=            -864.133704
 Sum of electronic and thermal Free Energies=         -864.202443

                     E (Thermal)             CV                S
                      KCal/Mol        Cal/Mol-Kelvin    Cal/Mol-Kelvin
 Total                  217.114             70.915            144.673
 Electronic               0.000              0.000              0.000
 Translational            0.889              2.981             42.669
 Rotational               0.889              2.981             33.927
 Vibrational            215.336             64.953             68.077
 Vibration     1          0.593              1.985              6.181
 Vibration     2          0.593              1.984              5.858
 Vibration     3          0.594              1.981              5.272
 Vibration     4          0.596              1.976              4.650
 Vibration     5          0.598              1.968              4.109
 Vibration     6          0.600              1.961              3.824
 Vibration     7          0.602              1.955              3.635
 Vibration     8          0.606              1.943              3.318
 Vibration     9          0.608              1.937              3.181
 Vibration    10          0.614              1.918              2.863
 Vibration    11          0.636              1.847              2.181
 Vibration    12          0.647              1.810              1.953
 Vibration    13          0.656              1.782              1.815
 Vibration    14          0.663              1.762              1.728
 Vibration    15          0.674              1.729              1.600
 Vibration    16          0.693              1.673              1.415
 Vibration    17          0.711              1.621              1.274
 Vibration    18          0.735              1.554              1.120
 Vibration    19          0.767              1.466              0.956
 Vibration    20          0.784              1.424              0.887
 Vibration    21          0.801              1.381              0.824
 Vibration    22          0.807              1.364              0.800
 Vibration    23          0.845              1.275              0.687
 Vibration    24          0.860              1.241              0.648
 Vibration    25          0.902              1.146              0.550
 Vibration    26          0.923              1.102              0.509
 Vibration    27          0.971              1.008              0.430

 Optimization completed.
    -- Stationary point found.
 Normal termination of Gaussian 09 at Thu Sep 30 03:39:47 2021.
 Gaussian 09:  AM64L-G09RevA.02 11-Jun-2009

 ----------------------------------------------------------------------
 #p TD(NStates=10, Root=1) b3lyp/6-31G* volume pop=NPA density=current
 Geom=AllCheck Guess=Read
 ----------------------------------------------------------------------

 CCN(C(=O)Oc1ccccc1c1ccccc1)CC_conf_0
 ------------------------------------
 Redundant internal coordinates taken from checkpoint file:
 C17H19NO2_477a_conf_0.chk
 Charge =  0 Multiplicity = 1

                         Standard orientation:
 ---------------------------------------------------------------------
 Center     Atomic      Atomic             Coordinates (Angstroms)
 Number     Number       Type             X           Y           Z
 ---------------------------------------------------------------------
      1          6           0       -3.104305   -0.221137    2.406342
      2          6           0       -2.445694   -1.171130    1.400994
      3          7           0       -2.446873   -0.683996    0.015722
      4          6           0       -1.501269    0.169124   -0.466417
      5          8           0       -1.457162    0.609321   -1.601730
      6          8           0       -0.565252    0.467199    0.502128
      7          6           0        0.442083    1.379363    0.182291
      8          6           0        0.140758    2.738860    0.195072
      9          6           0        1.155599    3.675914    0.013559
     10          6           0        2.470589    3.244195   -0.167342
     11          6           0        2.757570    1.880964   -0.180071
     12          6           0        1.750908    0.914026   -0.017957
     13          6           0        2.090963   -0.534227   -0.058684
     14          6           0        3.119791   -1.041359    0.749976
     15          6           0        3.474545   -2.389406    0.692695
     16          6           0        2.807397   -3.252727   -0.177490
     17          6           0        1.785817   -2.757742   -0.991136
     18          6           0        1.429182   -1.410948   -0.933992
     19          6           0       -3.522423   -1.066039   -0.908239
     20          6           0       -4.641623   -0.027887   -1.030814
     21          1           0       -3.058027   -0.650262    3.414260
     22          1           0       -4.156741   -0.041663    2.162394
     23          1           0       -2.583243    0.740877    2.422297
     24          1           0       -2.965579   -2.135349    1.397317
     25          1           0       -1.411617   -1.363535    1.694602
     26          1           0       -0.886682    3.048348    0.357804
     27          1           0        0.919286    4.736217    0.019463
     28          1           0        3.270187    3.966442   -0.306200
     29          1           0        3.777331    1.543038   -0.342324
     30          1           0        3.632624   -0.374467    1.438153
     31          1           0        4.270125   -2.764977    1.331080
     32          1           0        3.083539   -4.302878   -0.224156
     33          1           0        1.269468   -3.420734   -1.680652
     34          1           0        0.654100   -1.024104   -1.588996
     35          1           0       -3.922557   -2.023406   -0.558115
     36          1           0       -3.072269   -1.231860   -1.890782
     37          1           0       -5.138400    0.147977   -0.070625
     38          1           0       -5.397271   -0.373295   -1.746215
     39          1           0       -4.236172    0.920384   -1.395262
 ---------------------------------------------------------------------

 SCF Done:  E(RB3LYP) =  -864.480641264     A.U. after    1 cycles

 Excitation energies and oscillator strengths:

 Excited State   1:      Singlet-A      5.0705 eV  244.52 nm  f=0.0571  <S**2>=0.000
      70 -> 73         0.40157
      71 -> 73         0.16238
      72 -> 73         0.35721
      72 -> 74        -0.38812
 This state for optimization and/or second-order correction.
 Total Energy, E(TD-HF/TD-KS) =  -864.294302991
 Copying the excited state density for this state as the 1-particle RhoCI density.

 Excited State   2:      Singlet-A      5.1592 eV  240.32 nm  f=0.0955  <S**2>=0.000
      69 -> 73         0.39995
      70 -> 73        -0.12623
      72 -> 73         0.38407
      72 -> 74         0.25634
      72 -> 75         0.29012

 Excited State   3:      Singlet-A      5.2115 eV  237.90 nm  f=0.1519  <S**2>=0.000
      69 -> 73        -0.31013
      70 -> 73        -0.21791
      72 -> 73         0.44522
      72 -> 74         0.10770
      72 -> 75        -0.33824

 Excited State   4:      Singlet-A      5.4150 eV  228.97 nm  f=0.0142  <S**2>=0.000
      70 -> 73        -0.19482
      71 -> 73         0.67358

 Excited State   5:      Singlet-A      5.7584 eV  215.31 nm  f=0.0788  <S**2>=0.000
      68 -> 73         0.27877
      68 -> 74        -0.11120
      70 -> 73         0.38962
      70 -> 76        -0.11687
      72 -> 74         0.36677
      72 -> 75        -0.19821
      72 -> 76        -0.20425

 Excited State   6:      Singlet-A      5.8539 eV  211.80 nm  f=0.0273  <S**2>=0.000
      68 -> 75         0.13273
      69 -> 73        -0.35248
      69 -> 76        -0.13732
      70 -> 75         0.15428
      71 -> 74         0.30456
      72 -> 74         0.17836
      72 -> 75         0.40049

 Excited State   7:      Singlet-A      5.8943 eV  210.35 nm  f=0.0050  <S**2>=0.000
      68 -> 73        -0.11624
      69 -> 73         0.15248
      70 -> 74        -0.21816
      71 -> 74         0.58110
      71 -> 75        -0.16932
      72 -> 75        -0.16505

 Excited State   8:      Singlet-A      5.9470 eV  208.48 nm  f=0.0329  <S**2>=0.000
      68 -> 73         0.48906
      68 -> 74         0.13301
      68 -> 75        -0.10415
      70 -> 73        -0.16386
      71 -> 74         0.14218
      72 -> 74        -0.22265
      72 -> 76        -0.31202

 Excited State   9:      Singlet-A      6.0480 eV  205.00 nm  f=0.0080  <S**2>=0.000
      67 -> 73        -0.22303
      69 -> 73        -0.10159
      69 -> 74         0.44796
      69 -> 75        -0.22661
      70 -> 74        -0.21910
      70 -> 75        -0.15882
      71 -> 75        -0.28047

 Excited State  10:      Singlet-A      6.0562 eV  204.72 nm  f=0.0096  <S**2>=0.000
      67 -> 73         0.57459
      68 -> 73        -0.13901
      69 -> 75        -0.12250
      70 -> 74        -0.13866
      71 -> 75        -0.14720
      72 -> 76        -0.24174

 The electronic state is 1-A.
 Alpha  occ. eigenvalues --  -19.18913 -19.11393 -14.36264 -10.32730 -10.24730
 Alpha  occ. eigenvalues --  -10.22447 -10.22159 -10.19917 -10.19630 -10.19148
 Alpha  occ. eigenvalues --  -10.19035 -10.19001 -10.18854 -10.18735 -10.18677
 Alpha  occ. eigenvalues --  -10.18641 -10.18602 -10.18350 -10.18134 -10.17728
 Alpha  occ. eigenvalues --   -1.10182  -1.00977  -0.93755  -0.86252  -0.84208
 Alpha  occ. eigenvalues --   -0.77476  -0.77148  -0.75639  -0.73984  -0.73324
 Alpha  occ. eigenvalues --   -0.71823  -0.66137  -0.63819  -0.62321  -0.61263
 Alpha  occ. eigenvalues --   -0.59762  -0.58103  -0.55434  -0.52716  -0.51759
 Alpha  occ. eigenvalues --   -0.48917  -0.48367  -0.48033  -0.46175  -0.45157
 Alpha  occ. eigenvalues --   -0.44568  -0.44222  -0.43714  -0.43314  -0.43008
 Alpha  occ. eigenvalues --   -0.41799  -0.41567  -0.40532  -0.40012  -0.38528
 Alpha  occ. eigenvalues --   -0.38392  -0.37435  -0.36593  -0.36407  -0.35978
 Alpha  occ. eigenvalues --   -0.35518  -0.35040  -0.34179  -0.33651  -0.33481
 Alpha  occ. eigenvalues --   -0.29989  -0.27031  -0.26330  -0.24601  -0.24331
 Alpha  occ. eigenvalues --   -0.24006  -0.22574
 Alpha virt. eigenvalues --   -0.01958  -0.00057   0.00460   0.02410   0.05176
 Alpha virt. eigenvalues --    0.08621   0.09305   0.10144   0.10954   0.12236
 Alpha virt. eigenvalues --    0.12926   0.14104   0.14571   0.15178   0.15509

 Mulliken atomic charges:
              1
     1  C   -0.445690
     2  C   -0.138969
     3  N   -0.443612
     4  C    0.808630
     5  O   -0.521527
     6  O   -0.552789
     7  C    0.334178
     8  C   -0.150511
     9  C   -0.152050
    10  C   -0.107342
    11  C   -0.212201
    12  C    0.049575
    13  C    0.074026
    14  C   -0.158803
    15  C   -0.139876
    16  C   -0.134167
    17  C   -0.136666
    18  C   -0.186407
    19  C   -0.135806
    20  C   -0.448722
    21  H    0.149856
    22  H    0.151923
    23  H    0.164059
    24  H    0.147922
    25  H    0.186048
    26  H    0.138677
    27  H    0.134668
    28  H    0.140379
    29  H    0.135997
    30  H    0.128706
    31  H    0.124007
    32  H    0.122744
    33  H    0.125851
    34  H    0.152172
    35  H    0.142790
    36  H    0.179827
    37  H    0.147110
    38  H    0.148338
    39  H    0.177654
 Sum of Mulliken atomic charges =  -0.00000

 Dipole moment (field-independent basis, Debye):
    X=             -1.9627    Y=             -0.6345    Z=              2.1446  Tot=              2.9756
 Quadrupole moment (field-independent basis, Debye-Ang):
   XX=           -104.7449   YY=           -107.3514   ZZ=           -121.2118
   XY=              6.1916   XZ=             -0.8592   YZ=              1.9636

 Summary of Natural Population Analysis:

                                       Natural Population
                Natural  -----------------------------------------------
    Atom  No    Charge         Core      Valence    Rydberg      Total
 -----------------------------------------------------------------------
      C    1   -0.68656      1.99945     4.67979    0.00733     6.68656
      C    2   -0.25944      1.99934     4.24479    0.01531     6.25944
      N    3   -0.49128      1.99929     5.47875    0.01325     7.49128
      C    4    0.93737      1.99936     3.01693    0.04634     5.06263
      O    5   -0.64296      1.99977     6.62420    0.01899     8.64296
      O    6   -0.54165      1.99968     6.53162    0.01035     8.54165
      C    7    0.38653      1.99865     3.59173    0.02309     5.61347
      C    8   -0.27418      1.99902     4.25779    0.01737     6.27418
      C    9   -0.25302      1.99913     4.23705    0.01684     6.25302
      C   10   -0.16810      1.99911     4.15317    0.01583     6.16810
      C   11   -0.26847      1.99908     4.25229    0.01709     6.26847
      C   12   -0.07748      1.99893     4.06028    0.01827     6.07748
      C   13   -0.06289      1.99901     4.04659    0.01728     6.06289
      C   14   -0.20763      1.99903     4.19530    0.01329     6.20763
      C   15   -0.24732      1.99910     4.23344    0.01478     6.24732
      C   16   -0.24350      1.99909     4.22946    0.01495     6.24350
      C   17   -0.22479      1.99910     4.21145    0.01424     6.22479
      C   18   -0.23934      1.99904     4.22523    0.01507     6.23934
      C   19   -0.25261      1.99935     4.23781    0.01545     6.25261
      C   20   -0.68763      1.99945     4.68084    0.00734     6.68763
      H   21    0.23644      0.00000     0.76263    0.00093     0.76356
      H   22    0.22606      0.00000     0.77294    0.00100     0.77394
      H   23    0.23715      0.00000     0.76144    0.00142     0.76285
      H   24    0.23191      0.00000     0.76663    0.00146     0.76809
      H   25    0.25696      0.00000     0.74144    0.00161     0.74304
      H   26    0.24274      0.00000     0.75625    0.00102     0.75726
      H   27    0.23617      0.00000     0.76298    0.00085     0.76383
      H   28    0.23526      0.00000     0.76389    0.00085     0.76474
      H   29    0.23837      0.00000     0.76065    0.00097     0.76163
      H   30    0.23514      0.00000     0.76351    0.00135     0.76486
      H   31    0.23369      0.00000     0.76540    0.00090     0.76631
      H   32    0.23109      0.00000     0.76801    0.00090     0.76891
      H   33    0.23380      0.00000     0.76531    0.00090     0.76620
      H   34    0.24355      0.00000     0.75476    0.00169     0.75645
      H   35    0.22847      0.00000     0.77021    0.00132     0.77153
      H   36    0.25425      0.00000     0.74369    0.00206     0.74575
      H   37    0.22298      0.00000     0.77601    0.00101     0.77702
      H   38    0.23581      0.00000     0.76332    0.00087     0.76419
      H   39    0.24512      0.00000     0.75361    0.00127     0.75488
 =======================================================================
   * Total *    0.00000     39.98400   103.66117    0.35484   144.00000

 Normal termination of Gaussian 09 at Thu Sep 30 11:05:56 2021.
