 Gaussian 09, Revision A.02,

 -----------------------------------
 #p opt b3lyp/6-31G* scf=(xqc,tight)
 -----------------------------------

 -------------------------------------
 COc1cccc(c1)c1ccc(cc1)C(C)(C)C_conf_0
 -------------------------------------
 Symbolic Z-matrix:
 Charge =  0 Multiplicity = 1

 SCF Done:  E(RB3LYP) =  -735.081568255     A.U. after   14 cycles
 SCF Done:  E(RB3LYP) =  -735.083584453     A.U. after   12 cycles
 SCF Done:  E(RB3LYP) =  -735.083759040     A.U. after   11 cycles
 SCF Done:  E(RB3LYP) =  -735.083778808     A.U. after   10 cycles
 SCF Done:  E(RB3LYP) =  -735.083803855     A.U. after   10 cycles
 SCF Done:  E(RB3LYP) =  -735.083808137     A.U. after    8 cycles
 SCF Done:  E(RB3LYP) =  -735.083808417     A.U. after    7 cycles
 SCF Done:  E(RB3LYP) =  -735.083808532     A.U. after    7 cycles
 SCF Done:  E(RB3LYP) =  -735.083808634     A.U. after    7 cycles
 Optimization completed.
    -- Stationary point found.
 Normal termination of Gaussian 09 at Tue Sep 28 20:32:57 2021.

 ----------------------------------------------------------------------
 #p freq b3lyp/6-31G* volume NMR pop=NPA density=current Geom=AllCheck
 Guess=Read
 ----------------------------------------------------------------------

 COc1cccc(c1)c1ccc(cc1)C(C)(C)C_conf_0
 -------------------------------------
 Redundant internal coordinates taken from checkpoint file:
 C17H20O_df8f_conf_0.chk
 Charge =  0 Multiplicity = 1

 SCF Done:  E(RB3LYP) =  -735.083808634     A.U. after    1 cycles

  1  C    Isotropic =   137.4438   Anisotropy =    65.4876

  2  O    Isotropic =   237.8628   Anisotropy =    75.6023

  3  C    Isotropic =    38.4874   Anisotropy =   125.5449

  4  C    Isotropic =    87.8126   Anisotropy =   141.6873

  5  C    Isotropic =    66.7801   Anisotropy =   162.0936

  6  C    Isotropic =    76.5149   Anisotropy =   143.2547

  7  C    Isotropic =    52.7133   Anisotropy =   172.4971

  8  C    Isotropic =    79.2972   Anisotropy =   123.7221

  9  C    Isotropic =    56.2527   Anisotropy =   172.8699

 10  C    Isotropic =    68.6819   Anisotropy =   150.8044

 11  C    Isotropic =    70.9987   Anisotropy =   157.0032

 12  C    Isotropic =    48.6432   Anisotropy =   183.8714

 13  C    Isotropic =    68.5654   Anisotropy =   161.2517

 14  C    Isotropic =    68.7794   Anisotropy =   150.7427

 15  C    Isotropic =   153.1218   Anisotropy =    10.2086

 16  C    Isotropic =   161.0446   Anisotropy =    30.9276

 17  C    Isotropic =   157.2591   Anisotropy =    39.3180

 18  C    Isotropic =   157.1555   Anisotropy =    39.6360

 19  H    Isotropic =    28.2762   Anisotropy =     8.2659

 20  H    Isotropic =    28.6220   Anisotropy =     8.3532

 21  H    Isotropic =    28.5942   Anisotropy =     8.3325

 22  H    Isotropic =    25.8581   Anisotropy =     6.7498

 23  H    Isotropic =    25.0132   Anisotropy =     4.9801

 24  H    Isotropic =    25.2801   Anisotropy =     8.1481

 25  H    Isotropic =    25.3717   Anisotropy =    10.0227

 26  H    Isotropic =    24.8670   Anisotropy =     9.1330

 27  H    Isotropic =    24.9664   Anisotropy =    10.6914

 28  H    Isotropic =    24.7397   Anisotropy =    10.2350

 29  H    Isotropic =    24.8431   Anisotropy =     8.8543

 30  H    Isotropic =    30.5899   Anisotropy =     7.9752

 31  H    Isotropic =    30.5962   Anisotropy =     7.7689

 32  H    Isotropic =    31.0755   Anisotropy =     7.6690

 33  H    Isotropic =    30.9471   Anisotropy =     7.6618

 34  H    Isotropic =    30.9642   Anisotropy =     8.6350

 35  H    Isotropic =    30.5493   Anisotropy =     7.3158

 36  H    Isotropic =    30.9327   Anisotropy =     7.6671

 37  H    Isotropic =    30.5335   Anisotropy =     7.5230

 38  H    Isotropic =    30.9576   Anisotropy =     8.6656

  Exact polarizability: 293.660   1.533 170.846  -2.547   5.538 103.028
 Approx polarizability: 374.599   0.580 297.162  -5.839  16.189 157.883

                     1                      2                      3
                     A                      A                      A
 Frequencies --    35.3431                45.7176                64.6602
 Red. masses --     3.4535                 3.6807                 3.4392
 Frc consts  --     0.0025                 0.0045                 0.0085
 IR Inten    --     0.3238                 0.5468                 1.3134

                     4                      5                      6
                     A                      A                      A
 Frequencies --    76.2705                92.3506               134.1862
 Red. masses --     3.7633                 3.7587                 3.7558
 Frc consts  --     0.0129                 0.0189                 0.0398
 IR Inten    --     0.7445                 1.9471                 0.1858

                     7                      8                      9
                     A                      A                      A
 Frequencies --   194.7850               209.9391               224.3916
 Red. masses --     3.7034                 1.6625                 1.5339
 Frc consts  --     0.0828                 0.0432                 0.0455
 IR Inten    --     0.0494                 0.1773                 0.0478

                    10                     11                     12
                     A                      A                      A
 Frequencies --   226.0824               252.6722               274.0414
 Red. masses --     2.7105                 2.0155                 1.7031
 Frc consts  --     0.0816                 0.0758                 0.0754
 IR Inten    --     0.4794                 0.7416                 0.6259

                    13                     14                     15
                     A                      A                      A
 Frequencies --   277.5405               290.4671               317.8283
 Red. masses --     1.2804                 2.3757                 2.6407
 Frc consts  --     0.0581                 0.1181                 0.1572
 IR Inten    --     0.3104                 0.6277                 0.3453

                    16                     17                     18
                     A                      A                      A
 Frequencies --   324.6930               358.1053               372.4504
 Red. masses --     1.0832                 2.8490                 2.9509
 Frc consts  --     0.0673                 0.2153                 0.2412
 IR Inten    --     0.0222                 0.0250                 0.0488

                    19                     20                     21
                     A                      A                      A
 Frequencies --   399.9417               422.8157               426.1645
 Red. masses --     3.1750                 3.0834                 3.6632
 Frc consts  --     0.2992                 0.3248                 0.3920
 IR Inten    --     0.4534                 0.5060                 0.4731

                    22                     23                     24
                     A                      A                      A
 Frequencies --   463.2498               475.0807               500.6750
 Red. masses --     3.0747                 3.3474                 4.3256
 Frc consts  --     0.3888                 0.4451                 0.6389
 IR Inten    --     1.1253                 1.6636                 1.0654

                    25                     26                     27
                     A                      A                      A
 Frequencies --   556.0758               570.4872               585.1948
 Red. masses --     3.3707                 3.4427                 3.6692
 Frc consts  --     0.6141                 0.6601                 0.7403
 IR Inten    --     1.5088                10.3998                 3.5791

                    28                     29                     30
                     A                      A                      A
 Frequencies --   631.7680               659.0333               677.6360
 Red. masses --     3.7322                 6.5002                 5.7176
 Frc consts  --     0.8777                 1.6634                 1.5469
 IR Inten    --     2.7372                 0.1910                 1.5115

                    31                     32                     33
                     A                      A                      A
 Frequencies --   710.2895               750.6564               761.2024
 Red. masses --     2.3871                 5.6056                 3.7381
 Frc consts  --     0.7096                 1.8610                 1.2761
 IR Inten    --     5.0965                 7.8898                 5.8939

                    34                     35                     36
                     A                      A                      A
 Frequencies --   793.2927               845.8154               855.0661
 Red. masses --     1.5375                 2.5599                 1.5606
 Frc consts  --     0.5701                 1.0790                 0.6723
 IR Inten    --    39.4332                 3.8268                22.8261

                    37                     38                     39
                     A                      A                      A
 Frequencies --   859.1097               878.0448               885.2956
 Red. masses --     1.2806                 4.1282                 1.4747
 Frc consts  --     0.5569                 1.8752                 0.6810
 IR Inten    --     4.5854                13.4036                 4.1487

                    40                     41                     42
                     A                      A                      A
 Frequencies --   898.0266               936.2728               948.0222
 Red. masses --     1.5305                 1.7813                 1.7157
 Frc consts  --     0.7272                 0.9200                 0.9085
 IR Inten    --     9.0644                 1.0180                 0.8693

                    43                     44                     45
                     A                      A                      A
 Frequencies --   964.8232               969.0931               971.7725
 Red. masses --     1.2586                 1.3138                 1.2473
 Frc consts  --     0.6903                 0.7270                 0.6940
 IR Inten    --     0.5734                 0.4221                 0.0417

                    46                     47                     48
                     A                      A                      A
 Frequencies --   980.2890              1012.4140              1032.9412
 Red. masses --     1.2509                 5.9621                 3.6585
 Frc consts  --     0.7082                 3.6005                 2.2999
 IR Inten    --     0.2141                 0.4443                16.9064

                    49                     50                     51
                     A                      A                      A
 Frequencies --  1055.3916              1062.2889              1065.5286
 Red. masses --     1.4253                 1.3908                 3.3120
 Frc consts  --     0.9354                 0.9247                 2.2155
 IR Inten    --     3.5080                 0.0216                 7.5912

                    52                     53                     54
                     A                      A                      A
 Frequencies --  1094.1998              1130.7642              1144.0874
 Red. masses --     2.7579                 1.6413                 2.3799
 Frc consts  --     1.9455                 1.2364                 1.8354
 IR Inten    --    58.5624                 4.9895                24.4411

                    55                     56                     57
                     A                      A                      A
 Frequencies --  1159.3610              1185.1026              1207.5721
 Red. masses --     1.4453                 1.2705                 1.1190
 Frc consts  --     1.1445                 1.0513                 0.9614
 IR Inten    --     4.6137                 0.7628                10.7288

                    58                     59                     60
                     A                      A                      A
 Frequencies --  1215.0730              1236.1229              1238.2019
 Red. masses --     1.4424                 1.1912                 2.6290
 Frc consts  --     1.2547                 1.0724                 2.3748
 IR Inten    --    14.2084                 2.9572                 3.8714

                    61                     62                     63
                     A                      A                      A
 Frequencies --  1242.5476              1257.8460              1301.1373
 Red. masses --     2.3004                 2.4299                 3.0175
 Frc consts  --     2.0926                 2.2651                 3.0098
 IR Inten    --     1.2910               126.5046                36.6949

                    64                     65                     66
                     A                      A                      A
 Frequencies --  1314.1837              1335.0461              1343.0134
 Red. masses --     2.5311                 3.0370                 4.0047
 Frc consts  --     2.5756                 3.1892                 4.2558
 IR Inten    --     8.9068               116.7481                12.5936

                    67                     68                     69
                     A                      A                      A
 Frequencies --  1353.6285              1373.6407              1424.7725
 Red. masses --     1.3744                 3.5156                 1.3148
 Frc consts  --     1.4838                 3.9084                 1.5725
 IR Inten    --     2.7964                34.3069                 2.9284

                    70                     71                     72
                     A                      A                      A
 Frequencies --  1426.5911              1449.0673              1458.4876
 Red. masses --     1.2150                 2.3825                 1.2168
 Frc consts  --     1.4568                 2.9475                 1.5250
 IR Inten    --     3.3601                17.7141                 2.2936

                    73                     74                     75
                     A                      A                      A
 Frequencies --  1485.6600              1502.1181              1512.7643
 Red. masses --     2.3843                 1.4032                 1.0498
 Frc consts  --     3.1006                 1.8655                 1.4155
 IR Inten    --    36.6687                 3.9364                 0.0039

                    76                     77                     78
                     A                      A                      A
 Frequencies --  1517.3180              1519.8437              1520.4132
 Red. masses --     1.0458                 1.0486                 1.0577
 Frc consts  --     1.4185                 1.4271                 1.4406
 IR Inten    --     0.1359                 5.0681                 2.4025

                    79                     80                     81
                     A                      A                      A
 Frequencies --  1532.8076              1535.1338              1536.3195
 Red. masses --     1.1272                 1.1010                 1.8892
 Frc consts  --     1.5604                 1.5287                 2.6272
 IR Inten    --    37.0835                38.0592                24.3183

                    82                     83                     84
                     A                      A                      A
 Frequencies --  1537.4920              1549.6717              1567.5479
 Red. masses --     1.0534                 1.0691                 2.3698
 Frc consts  --     1.4672                 1.5127                 3.4309
 IR Inten    --     6.0984                 7.5134                17.5713

                    85                     86                     87
                     A                      A                      A
 Frequencies --  1611.8312              1637.9646              1665.7990
 Red. masses --     5.3887                 5.6686                 5.9655
 Frc consts  --     8.2485                 8.9605                 9.7530
 IR Inten    --    17.2676                61.8233               107.6445

                    88                     89                     90
                     A                      A                      A
 Frequencies --  1671.0569              3023.2576              3042.8024
 Red. masses --     5.7079                 1.0349                 1.0355
 Frc consts  --     9.3909                 5.5730                 5.6486
 IR Inten    --     5.0087                66.2873                27.0858

                    91                     92                     93
                     A                      A                      A
 Frequencies --  3043.0766              3050.9561              3081.3196
 Red. masses --     1.0350                 1.0364                 1.1066
 Frc consts  --     5.6467                 5.6839                 6.1906
 IR Inten    --    24.8424                33.9975                44.9156

                    94                     95                     96
                     A                      A                      A
 Frequencies --  3107.6521              3108.1423              3115.2501
 Red. masses --     1.1016                 1.1021                 1.1028
 Frc consts  --     6.2684                 6.2732                 6.3057
 IR Inten    --     5.7124                 2.7792                24.7083

                    97                     98                     99
                     A                      A                      A
 Frequencies --  3115.8856              3121.6247              3124.0105
 Red. masses --     1.1013                 1.1021                 1.1013
 Frc consts  --     6.2994                 6.3275                 6.3323
 IR Inten    --   109.3946                19.4900                45.2532

                   100                    101                    102
                     A                      A                      A
 Frequencies --  3155.1496              3184.8163              3187.0117
 Red. masses --     1.0995                 1.0862                 1.0870
 Frc consts  --     6.4488                 6.4913                 6.5049
 IR Inten    --    28.3704                22.8770                 8.9116

                   103                    104                    105
                     A                      A                      A
 Frequencies --  3192.9388              3202.6271              3210.4256
 Red. masses --     1.0882                 1.0933                 1.0921
 Frc consts  --     6.5366                 6.6071                 6.6319
 IR Inten    --    10.1234                12.6451                22.3250

                   106                    107                    108
                     A                      A                      A
 Frequencies --  3215.2291              3222.8255              3228.4362
 Red. masses --     1.0902                 1.0911                 1.0919
 Frc consts  --     6.6401                 6.6769                 6.7053
 IR Inten    --     0.6356                13.7708                14.0014

 - Thermochemistry -
 -------------------
 Temperature   298.150 Kelvin.  Pressure   1.00000 Atm.
 Atom     1 has atomic number  6 and mass  12.00000

 Molecular mass:   240.15142 amu.
 Principal axes and moments of inertia in atomic units:
                           1         2         3
     Eigenvalues --  1436.99307********************
           X            1.00000   0.00109  -0.00033
           Y           -0.00109   0.99995   0.00956
           Z            0.00034  -0.00956   0.99995
 This molecule is an asymmetric top.
 Rotational symmetry number  1.
 Warning -- assumption of classical behavior for rotation
           may cause significant error
 Rotational temperatures (Kelvin)      0.06027     0.00757     0.00704
 Rotational constants (GHZ):           1.25592     0.15763     0.14674
 Zero-point vibrational energy     860730.5 (Joules/Mol)
                                  205.71953 (Kcal/Mol)
 Warning -- explicit consideration of  27 degrees of freedom as
           vibrations may cause significant error
 Vibrational temperatures:     50.85    65.78    93.03   109.74   132.87
          (Kelvin)            193.06   280.25   302.06   322.85   325.28
                              363.54   394.28   399.32   417.92   457.28
                              467.16   515.23   535.87   575.43   608.34
                              613.15   666.51   683.53   720.36   800.07
                              820.80   841.96   908.97   948.20   974.97
                             1021.95  1080.03  1095.20  1141.37  1216.94
                             1230.25  1236.07  1263.31  1273.74  1292.06
                             1347.09  1363.99  1388.16  1394.31  1398.16
                             1410.42  1456.64  1486.17  1518.47  1528.39
                             1533.06  1574.31  1626.92  1646.08  1668.06
                             1705.10  1737.42  1748.22  1778.50  1781.49
                             1787.75  1809.76  1872.04  1890.81  1920.83
                             1932.29  1947.57  1976.36  2049.93  2052.54
                             2084.88  2098.44  2137.53  2161.21  2176.53
                             2183.08  2186.71  2187.53  2205.37  2208.71
                             2210.42  2212.11  2229.63  2255.35  2319.06
                             2356.66  2396.71  2404.28  4349.79  4377.91
                             4378.30  4389.64  4433.33  4471.21  4471.92
                             4482.14  4483.06  4491.32  4494.75  4539.55
                             4582.23  4585.39  4593.92  4607.86  4619.08
                             4625.99  4636.92  4644.99

 Zero-point correction=                           0.327835 (Hartree/Particle)
 Thermal correction to Energy=                    0.344855
 Thermal correction to Enthalpy=                  0.345799
 Thermal correction to Gibbs Free Energy=         0.283207
 Sum of electronic and zero-point Energies=           -734.755974
 Sum of electronic and thermal Energies=              -734.738953
 Sum of electronic and thermal Enthalpies=            -734.738009
 Sum of electronic and thermal Free Energies=         -734.800602

                     E (Thermal)             CV                S
                      KCal/Mol        Cal/Mol-Kelvin    Cal/Mol-Kelvin
 Total                  216.400             67.330            131.737
 Electronic               0.000              0.000              0.000
 Translational            0.889              2.981             42.330
 Rotational               0.889              2.981             33.670
 Vibrational            214.622             61.368             55.738
 Vibration     1          0.594              1.982              5.504
 Vibration     2          0.595              1.979              4.995
 Vibration     3          0.597              1.971              4.310
 Vibration     4          0.599              1.965              3.985
 Vibration     5          0.602              1.955              3.610
 Vibration     6          0.613              1.919              2.885
 Vibration     7          0.635              1.847              2.182
 Vibration     8          0.642              1.826              2.044
 Vibration     9          0.649              1.804              1.923
 Vibration    10          0.650              1.801              1.910
 Vibration    11          0.664              1.758              1.712
 Vibration    12          0.676              1.721              1.571
 Vibration    13          0.679              1.715              1.549
 Vibration    14          0.686              1.691              1.471
 Vibration    15          0.704              1.640              1.321
 Vibration    16          0.709              1.626              1.286
 Vibration    17          0.733              1.559              1.130
 Vibration    18          0.744              1.529              1.070
 Vibration    19          0.766              1.470              0.963
 Vibration    20          0.785              1.421              0.882
 Vibration    21          0.788              1.413              0.871
 Vibration    22          0.821              1.332              0.757
 Vibration    23          0.832              1.305              0.723
 Vibration    24          0.856              1.249              0.656
 Vibration    25          0.912              1.126              0.532
 Vibration    26          0.927              1.095              0.503
 Vibration    27          0.942              1.063              0.476

 Optimization completed.
    -- Stationary point found.
 Normal termination of Gaussian 09 at Tue Sep 28 21:48:02 2021.
 Gaussian 09:  AM64L-G09RevA.02 11-Jun-2009

 ----------------------------------------------------------------------
 #p TD(NStates=10, Root=1) b3lyp/6-31G* volume pop=NPA density=current
 Geom=AllCheck Guess=Read
 ----------------------------------------------------------------------

 COc1cccc(c1)c1ccc(cc1)C(C)(C)C_conf_0
 -------------------------------------
 Redundant internal coordinates taken from checkpoint file:
 C17H20O_df8f_conf_0.chk
 Charge =  0 Multiplicity = 1

                         Standard orientation:
 ---------------------------------------------------------------------
 Center     Atomic      Atomic             Coordinates (Angstroms)
 Number     Number       Type             X           Y           Z
 ---------------------------------------------------------------------
      1          6           0        5.964757   -1.399909    0.291259
      2          8           0        4.551868   -1.515226    0.287385
      3          6           0        3.811770   -0.386077    0.072434
      4          6           0        4.349918    0.885479   -0.153806
      5          6           0        3.479304    1.961674   -0.352239
      6          6           0        2.100364    1.787585   -0.327197
      7          6           0        1.551720    0.510621   -0.098894
      8          6           0        2.422777   -0.565085    0.100415
      9          6           0        0.080840    0.306398   -0.069813
     10          6           0       -0.508121   -0.851365   -0.595418
     11          6           0       -1.890135   -1.041369   -0.564955
     12          6           0       -2.751226   -0.085340   -0.010084
     13          6           0       -2.155205    1.074468    0.514336
     14          6           0       -0.778227    1.268717    0.486801
     15          6           0       -4.279369   -0.259427    0.042693
     16          6           0       -4.739130   -1.592105   -0.578497
     17          6           0       -4.750684   -0.227709    1.516204
     18          6           0       -4.956762    0.893936   -0.735236
     19          1           0        6.346878   -2.403991    0.485434
     20          1           0        6.313523   -0.721090    1.081107
     21          1           0        6.346011   -1.049386   -0.677322
     22          1           0        5.421386    1.047413   -0.177327
     23          1           0        3.894240    2.949094   -0.537814
     24          1           0        1.443126    2.631516   -0.512631
     25          1           0        2.041563   -1.559631    0.308640
     26          1           0        0.119826   -1.607746   -1.058422
     27          1           0       -2.290594   -1.953556   -0.993583
     28          1           0       -2.776384    1.844345    0.964264
     29          1           0       -0.359061    2.169044    0.927799
     30          1           0       -4.315407   -2.454951   -0.052096
     31          1           0       -4.462323   -1.666733   -1.636275
     32          1           0       -5.830494   -1.671213   -0.516438
     33          1           0       -4.293307   -1.040786    2.091423
     34          1           0       -5.840326   -0.342615    1.571343
     35          1           0       -4.489974    0.715716    2.007311
     36          1           0       -4.647139    0.892302   -1.786591
     37          1           0       -4.703858    1.872888   -0.314607
     38          1           0       -6.048179    0.788242   -0.701312
 ---------------------------------------------------------------------

 SCF Done:  E(RB3LYP) =  -735.083808634     A.U. after    1 cycles

 Excitation energies and oscillator strengths:

 Excited State   1:      Singlet-A      4.6344 eV  267.53 nm  f=0.1102  <S**2>=0.000
      64 -> 66        -0.30909
      64 -> 68        -0.12275
      65 -> 66         0.57778
      65 -> 68        -0.17738
 This state for optimization and/or second-order correction.
 Total Energy, E(TD-HF/TD-KS) =  -734.913497503
 Copying the excited state density for this state as the 1-particle RhoCI density.

 Excited State   2:      Singlet-A      4.9601 eV  249.96 nm  f=0.4961  <S**2>=0.000
      64 -> 66         0.55905
      65 -> 66         0.36816
      65 -> 67        -0.12757
      65 -> 68         0.13843

 Excited State   3:      Singlet-A      4.9854 eV  248.69 nm  f=0.0058  <S**2>=0.000
      63 -> 66         0.45231
      64 -> 66        -0.10694
      64 -> 67        -0.24016
      65 -> 67        -0.44228
      65 -> 68        -0.11375

 Excited State   4:      Singlet-A      5.4003 eV  229.59 nm  f=0.0097  <S**2>=0.000
      63 -> 66        -0.17936
      64 -> 67         0.50421
      65 -> 67        -0.43869
      65 -> 68        -0.10615

 Excited State   5:      Singlet-A      5.5095 eV  225.04 nm  f=0.0403  <S**2>=0.000
      62 -> 66        -0.20314
      63 -> 66        -0.11471
      64 -> 66        -0.23258
      64 -> 68         0.11236
      64 -> 69         0.13585
      65 -> 66         0.10535
      65 -> 67        -0.15831
      65 -> 68         0.53442
      65 -> 69        -0.15572

 Excited State   6:      Singlet-A      5.8485 eV  211.99 nm  f=0.1403  <S**2>=0.000
      62 -> 66        -0.21413
      62 -> 67        -0.14917
      63 -> 66         0.40497
      63 -> 68        -0.12276
      63 -> 69         0.11472
      64 -> 67         0.37452
      64 -> 68        -0.15407
      65 -> 67         0.19319
      65 -> 68         0.15594

 Excited State   7:      Singlet-A      5.9145 eV  209.63 nm  f=0.1966  <S**2>=0.000
      62 -> 67        -0.11886
      63 -> 66         0.16736
      64 -> 68         0.62184
      65 -> 69        -0.13076

 Excited State   8:      Singlet-A      6.0193 eV  205.98 nm  f=0.0672  <S**2>=0.000
      62 -> 66         0.52263
      63 -> 66         0.10047
      64 -> 69         0.35736
      65 -> 68         0.16724
      65 -> 69         0.16873

 Excited State   9:      Singlet-A      6.2512 eV  198.34 nm  f=0.0256  <S**2>=0.000
      62 -> 67        -0.23664
      62 -> 68         0.11748
      63 -> 67        -0.31170
      63 -> 68         0.40515
      65 -> 69         0.37725

 Excited State  10:      Singlet-A      6.3001 eV  196.80 nm  f=0.0133  <S**2>=0.000
      62 -> 68        -0.24725
      63 -> 68         0.45435
      64 -> 69         0.16109
      65 -> 69        -0.41780

 The electronic state is 1-A.
 Alpha  occ. eigenvalues --  -19.17453 -10.24337 -10.23941 -10.20143 -10.19459
 Alpha  occ. eigenvalues --  -10.19053 -10.18858 -10.18768 -10.18374 -10.18278
 Alpha  occ. eigenvalues --  -10.18194 -10.18133 -10.18057 -10.17837 -10.17796
 Alpha  occ. eigenvalues --  -10.17213 -10.17199 -10.17192  -1.06030  -0.86089
 Alpha  occ. eigenvalues --   -0.84306  -0.81019  -0.76102  -0.75239  -0.73759
 Alpha  occ. eigenvalues --   -0.70936  -0.69165  -0.68214  -0.68099  -0.62272
 Alpha  occ. eigenvalues --   -0.60650  -0.58501  -0.57387  -0.54313  -0.53155
 Alpha  occ. eigenvalues --   -0.48860  -0.48166  -0.47733  -0.46586  -0.45223
 Alpha  occ. eigenvalues --   -0.44975  -0.43772  -0.43516  -0.42386  -0.41812
 Alpha  occ. eigenvalues --   -0.41283  -0.40935  -0.39117  -0.38688  -0.37679
 Alpha  occ. eigenvalues --   -0.37210  -0.36455  -0.36310  -0.35254  -0.35019
 Alpha  occ. eigenvalues --   -0.34219  -0.32818  -0.32435  -0.31516  -0.31396
 Alpha  occ. eigenvalues --   -0.31077  -0.26189  -0.24307  -0.22065  -0.21112
 Alpha virt. eigenvalues --   -0.02033   0.00424   0.01162   0.03968   0.08417
 Alpha virt. eigenvalues --    0.09670   0.11235   0.11672   0.12506   0.13133
 Alpha virt. eigenvalues --    0.13669   0.14649   0.15128   0.15400   0.15497

 Mulliken atomic charges:
              1
     1  C   -0.234119
     2  O   -0.443229
     3  C    0.373011
     4  C   -0.189845
     5  C   -0.152067
     6  C   -0.134161
     7  C    0.077590
     8  C   -0.234884
     9  C    0.073745
    10  C   -0.193819
    11  C   -0.200749
    12  C    0.161891
    13  C   -0.199144
    14  C   -0.189177
    15  C    0.024291
    16  C   -0.454232
    17  C   -0.434961
    18  C   -0.434693
    19  H    0.187348
    20  H    0.176750
    21  H    0.176537
    22  H    0.134812
    23  H    0.140483
    24  H    0.160997
    25  H    0.150237
    26  H    0.104717
    27  H    0.109947
    28  H    0.107754
    29  H    0.102974
    30  H    0.141309
    31  H    0.141470
    32  H    0.132833
    33  H    0.142199
    34  H    0.127780
    35  H    0.138474
    36  H    0.141981
    37  H    0.138095
    38  H    0.127854
 Sum of Mulliken atomic charges =  -0.00000

 Dipole moment (field-independent basis, Debye):
    X=              6.6206    Y=              0.2144    Z=              0.0162  Tot=              6.6241
 Quadrupole moment (field-independent basis, Debye-Ang):
   XX=            -73.3933   YY=           -102.0871   ZZ=           -111.5987
   XY=             -2.5260   XZ=              0.4816   YZ=              0.5058

 Summary of Natural Population Analysis:

                                       Natural Population
                Natural  -----------------------------------------------
    Atom  No    Charge         Core      Valence    Rydberg      Total
 -----------------------------------------------------------------------
      C    1   -0.32839      1.99942     4.31478    0.01419     6.32839
      O    2   -0.42346      1.99975     6.41209    0.01162     8.42346
      C    3    0.36323      1.99879     3.61532    0.02266     5.63677
      C    4   -0.32997      1.99904     4.31611    0.01482     6.32997
      C    5   -0.24604      1.99915     4.22958    0.01732     6.24604
      C    6   -0.11092      1.99905     4.09815    0.01372     6.11092
      C    7   -0.04695      1.99906     4.03073    0.01716     6.04695
      C    8   -0.28924      1.99901     4.27311    0.01713     6.28924
      C    9   -0.12116      1.99901     4.10592    0.01623     6.12116
      C   10   -0.24140      1.99906     4.22805    0.01430     6.24140
      C   11   -0.22619      1.99904     4.21392    0.01322     6.22619
      C   12   -0.07569      1.99900     4.05735    0.01934     6.07569
      C   13   -0.23572      1.99905     4.22313    0.01354     6.23572
      C   14   -0.22489      1.99905     4.21222    0.01362     6.22489
      C   15   -0.06365      1.99911     4.05172    0.01282     6.06365
      C   16   -0.67398      1.99939     4.66461    0.00997     6.67398
      C   17   -0.66188      1.99938     4.65285    0.00965     6.66188
      C   18   -0.66185      1.99938     4.65283    0.00964     6.66185
      H   19    0.23747      0.00000     0.76205    0.00048     0.76253
      H   20    0.21969      0.00000     0.77862    0.00169     0.78031
      H   21    0.21952      0.00000     0.77878    0.00170     0.78048
      H   22    0.23567      0.00000     0.76335    0.00098     0.76433
      H   23    0.23996      0.00000     0.75920    0.00084     0.76004
      H   24    0.24344      0.00000     0.75555    0.00101     0.75656
      H   25    0.25048      0.00000     0.74812    0.00140     0.74952
      H   26    0.22261      0.00000     0.77611    0.00128     0.77739
      H   27    0.22765      0.00000     0.77128    0.00107     0.77235
      H   28    0.22260      0.00000     0.77640    0.00100     0.77740
      H   29    0.22021      0.00000     0.77862    0.00117     0.77979
      H   30    0.23096      0.00000     0.76796    0.00107     0.76904
      H   31    0.23095      0.00000     0.76799    0.00105     0.76905
      H   32    0.23061      0.00000     0.76838    0.00101     0.76939
      H   33    0.23289      0.00000     0.76604    0.00107     0.76711
      H   34    0.22243      0.00000     0.77628    0.00128     0.77757
      H   35    0.22790      0.00000     0.77125    0.00085     0.77210
      H   36    0.23277      0.00000     0.76615    0.00108     0.76723
      H   37    0.22783      0.00000     0.77134    0.00084     0.77217
      H   38    0.22248      0.00000     0.77625    0.00127     0.77752
 =======================================================================
   * Total *    0.00000     35.98471    93.73222    0.28308   130.00000

 Normal termination of Gaussian 09 at Wed Sep 29 04:17:13 2021.
