 Gaussian 09, Revision A.02,

 -----------------------------------
 #p opt b3lyp/6-31G* scf=(xqc,tight)
 -----------------------------------

 ---------------------------------------------
 O=C(C(C)(C)C)Oc1ccc2c(c1)ccc(c2)C(=O)C_conf_0
 ---------------------------------------------
 Symbolic Z-matrix:
 Charge =  0 Multiplicity = 1

 SCF Done:  E(RB3LYP) =  -884.349096912     A.U. after   15 cycles
 SCF Done:  E(RB3LYP) =  -884.356418911     A.U. after   13 cycles
 SCF Done:  E(RB3LYP) =  -884.356998045     A.U. after   13 cycles
 SCF Done:  E(RB3LYP) =  -884.357462900     A.U. after   14 cycles
 SCF Done:  E(RB3LYP) =  -884.358029287     A.U. after   13 cycles
 SCF Done:  E(RB3LYP) =  -884.357992962     A.U. after   12 cycles
 SCF Done:  E(RB3LYP) =  -884.358307839     A.U. after   12 cycles
 SCF Done:  E(RB3LYP) =  -884.358421833     A.U. after   12 cycles
 SCF Done:  E(RB3LYP) =  -884.358447968     A.U. after   11 cycles
 SCF Done:  E(RB3LYP) =  -884.358454220     A.U. after   10 cycles
 SCF Done:  E(RB3LYP) =  -884.358479989     A.U. after   11 cycles
 SCF Done:  E(RB3LYP) =  -884.358480436     A.U. after   10 cycles
 SCF Done:  E(RB3LYP) =  -884.358486144     A.U. after   13 cycles
 SCF Done:  E(RB3LYP) =  -884.358493477     A.U. after   12 cycles
 SCF Done:  E(RB3LYP) =  -884.358494570     A.U. after   10 cycles
 SCF Done:  E(RB3LYP) =  -884.358494912     A.U. after    8 cycles
 SCF Done:  E(RB3LYP) =  -884.358495006     A.U. after    8 cycles
 SCF Done:  E(RB3LYP) =  -884.358494988     A.U. after    7 cycles
 Optimization completed.
    -- Stationary point found.
 Normal termination of Gaussian 09 at Fri Oct  1 02:47:37 2021.

 ----------------------------------------------------------------------
 #p freq b3lyp/6-31G* volume NMR pop=NPA density=current Geom=AllCheck
 Guess=Read
 ----------------------------------------------------------------------

 O=C(C(C)(C)C)Oc1ccc2c(c1)ccc(c2)C(=O)C_conf_0
 ---------------------------------------------
 Redundant internal coordinates taken from checkpoint file:
 C17H18O3_126f_conf_0.chk
 Charge =  0 Multiplicity = 1

 SCF Done:  E(RB3LYP) =  -884.358494988     A.U. after    1 cycles

  1  O    Isotropic =   -69.0164   Anisotropy =   574.9532

  2  C    Isotropic =    22.2554   Anisotropy =    74.9266

  3  C    Isotropic =   148.3486   Anisotropy =    24.8515

  4  C    Isotropic =   162.9751   Anisotropy =    31.1056

  5  C    Isotropic =   162.3604   Anisotropy =    36.8465

  6  C    Isotropic =   162.2573   Anisotropy =    37.4952

  7  O    Isotropic =   110.1835   Anisotropy =   185.1376

  8  C    Isotropic =    44.3956   Anisotropy =   108.2560

  9  C    Isotropic =    75.7488   Anisotropy =   136.0237

 10  C    Isotropic =    63.9008   Anisotropy =   148.3498

 11  C    Isotropic =    66.5392   Anisotropy =   192.0756

 12  C    Isotropic =    60.3810   Anisotropy =   196.2285

 13  C    Isotropic =    76.9682   Anisotropy =   133.3664

 14  C    Isotropic =    67.3309   Anisotropy =   142.4788

 15  C    Isotropic =    69.8702   Anisotropy =   158.9634

 16  C    Isotropic =    63.8212   Anisotropy =   154.2135

 17  C    Isotropic =    64.9017   Anisotropy =   162.4474

 18  C    Isotropic =     3.6365   Anisotropy =   150.4239

 19  O    Isotropic =  -260.9299   Anisotropy =   925.5175

 20  C    Isotropic =   163.1018   Anisotropy =    39.5255

 21  H    Isotropic =    30.5642   Anisotropy =     8.1874

 22  H    Isotropic =    30.6242   Anisotropy =     7.8773

 23  H    Isotropic =    31.4394   Anisotropy =     7.8824

 24  H    Isotropic =    30.8072   Anisotropy =     7.7824

 25  H    Isotropic =    31.0599   Anisotropy =     7.9619

 26  H    Isotropic =    30.4196   Anisotropy =     6.4390

 27  H    Isotropic =    30.8334   Anisotropy =     7.6670

 28  H    Isotropic =    30.3341   Anisotropy =     7.5847

 29  H    Isotropic =    31.0643   Anisotropy =     8.0166

 30  H    Isotropic =    25.1257   Anisotropy =     7.6356

 31  H    Isotropic =    24.3321   Anisotropy =     7.2874

 32  H    Isotropic =    23.7801   Anisotropy =    11.9955

 33  H    Isotropic =    24.5482   Anisotropy =     8.2399

 34  H    Isotropic =    24.4375   Anisotropy =     8.6475

 35  H    Isotropic =    23.5477   Anisotropy =     8.5869

 36  H    Isotropic =    29.5649   Anisotropy =     4.4147

 37  H    Isotropic =    29.5540   Anisotropy =     4.3932

 38  H    Isotropic =    30.1761   Anisotropy =     6.6654

  Exact polarizability: 317.509 -11.902 183.033  -1.292  -3.243  96.522
 Approx polarizability: 429.003 -17.854 331.751  -5.048  -4.310 146.226

                     1                      2                      3
                     A                      A                      A
 Frequencies --    11.4871                28.2203                42.4637
 Red. masses --     4.1719                 4.9078                 4.2357
 Frc consts  --     0.0003                 0.0023                 0.0045
 IR Inten    --     1.6481                 0.0096                 0.4393

                     4                      5                      6
                     A                      A                      A
 Frequencies --    56.7931                70.7047                86.9382
 Red. masses --     3.9814                 5.8867                 5.7429
 Frc consts  --     0.0076                 0.0173                 0.0256
 IR Inten    --     3.4089                 1.1494                 1.4067

                     7                      8                      9
                     A                      A                      A
 Frequencies --   155.9287               168.1855               174.7675
 Red. masses --     4.9050                 3.4605                 1.2214
 Frc consts  --     0.0703                 0.0577                 0.0220
 IR Inten    --     1.8276                 0.2390                 0.3063

                    10                     11                     12
                     A                      A                      A
 Frequencies --   184.8298               193.8820               209.7656
 Red. masses --     3.6718                 2.9019                 1.2369
 Frc consts  --     0.0739                 0.0643                 0.0321
 IR Inten    --     0.2935                 0.0336                 0.0402

                    13                     14                     15
                     A                      A                      A
 Frequencies --   244.9672               261.9222               274.8641
 Red. masses --     1.8104                 1.2732                 1.5992
 Frc consts  --     0.0640                 0.0515                 0.0712
 IR Inten    --     0.7697                 0.3778                 0.5110

                    16                     17                     18
                     A                      A                      A
 Frequencies --   285.1303               321.4225               333.9365
 Red. masses --     1.6764                 3.6502                 4.2407
 Frc consts  --     0.0803                 0.2222                 0.2786
 IR Inten    --     0.5847                 7.7159                 0.3423

                    19                     20                     21
                     A                      A                      A
 Frequencies --   345.4489               362.3711               378.5631
 Red. masses --     4.2530                 3.9016                 2.4272
 Frc consts  --     0.2990                 0.3019                 0.2049
 IR Inten    --     0.5274                10.7205                 0.5378

                    22                     23                     24
                     A                      A                      A
 Frequencies --   408.7321               414.2578               451.3610
 Red. masses --     3.8089                 3.5884                 3.6116
 Frc consts  --     0.3749                 0.3628                 0.4335
 IR Inten    --     0.3011                 0.1451                 3.8234

                    25                     26                     27
                     A                      A                      A
 Frequencies --   489.7078               501.2083               526.0925
 Red. masses --     2.7202                 3.8552                 4.5787
 Frc consts  --     0.3843                 0.5706                 0.7467
 IR Inten    --     8.7015                 2.0939                 0.3993

                    28                     29                     30
                     A                      A                      A
 Frequencies --   529.4825               561.3670               589.2075
 Red. masses --     4.6180                 6.1643                 3.7591
 Frc consts  --     0.7628                 1.1445                 0.7689
 IR Inten    --     0.4814                15.3603                17.4123

                    31                     32                     33
                     A                      A                      A
 Frequencies --   611.2210               626.9081               676.4880
 Red. masses --     2.8202                 4.3608                 4.7466
 Frc consts  --     0.6208                 1.0098                 1.2798
 IR Inten    --     3.3409                 0.3171                15.1185

                    34                     35                     36
                     A                      A                      A
 Frequencies --   684.0457               755.9853               764.5683
 Red. masses --     4.0997                 6.7705                 6.1253
 Frc consts  --     1.1302                 2.2798                 2.1096
 IR Inten    --     8.5155                 4.3622                 2.1226

                    37                     38                     39
                     A                      A                      A
 Frequencies --   771.7697               806.0423               824.4412
 Red. masses --     3.3813                 3.5466                 2.9405
 Frc consts  --     1.1866                 1.3576                 1.1776
 IR Inten    --     0.4058                 0.8233                 1.0563

                    40                     41                     42
                     A                      A                      A
 Frequencies --   827.6806               835.5045               894.3152
 Red. masses --     1.4198                 1.8825                 2.3407
 Frc consts  --     0.5731                 0.7743                 1.1030
 IR Inten    --    20.7258                 6.7262                12.6677

                    43                     44                     45
                     A                      A                      A
 Frequencies --   908.3473               929.2987               949.1486
 Red. masses --     2.0784                 4.5781                 1.3579
 Frc consts  --     1.0104                 2.3294                 0.7207
 IR Inten    --    26.8905                27.9869                13.3160

                    46                     47                     48
                     A                      A                      A
 Frequencies --   949.7239               957.4818               971.5549
 Red. masses --     1.7573                 1.6527                 1.3392
 Frc consts  --     0.9339                 0.8927                 0.7448
 IR Inten    --     2.5977                 3.4857                 3.9109

                    49                     50                     51
                     A                      A                      A
 Frequencies --   972.4494               982.6504               985.0842
 Red. masses --     1.3068                 1.1981                 3.4576
 Frc consts  --     0.7281                 0.6816                 1.9769
 IR Inten    --     0.3267                 0.0152                 0.1696

                    52                     53                     54
                     A                      A                      A
 Frequencies --   995.7231              1056.6474              1060.6991
 Red. masses --     2.0655                 1.8684                 1.4479
 Frc consts  --     1.2066                 1.2291                 0.9598
 IR Inten    --    31.7307                 1.3688                21.3459

                    55                     56                     57
                     A                      A                      A
 Frequencies --  1061.5640              1095.5431              1140.5961
 Red. masses --     1.4455                 2.0446                 2.6738
 Frc consts  --     0.9598                 1.4459                 2.0495
 IR Inten    --    33.6243                 3.9265               375.0008

                    58                     59                     60
                     A                      A                      A
 Frequencies --  1162.6466              1185.0329              1195.3738
 Red. masses --     1.7881                 1.7457                 1.3011
 Frc consts  --     1.4241                 1.4444                 1.0954
 IR Inten    --   326.4186               288.5481                88.3760

                    61                     62                     63
                     A                      A                      A
 Frequencies --  1225.0386              1241.8028              1263.1810
 Red. masses --     2.3433                 2.6570                 2.7941
 Frc consts  --     2.0720                 2.4141                 2.6268
 IR Inten    --   246.5539                 1.9515                 3.8009

                    64                     65                     66
                     A                      A                      A
 Frequencies --  1273.8276              1295.1672              1299.9381
 Red. masses --     3.6974                 1.8412                 2.0267
 Frc consts  --     3.5348                 1.8197                 2.0178
 IR Inten    --    38.0505                29.5619               187.2473

                    67                     68                     69
                     A                      A                      A
 Frequencies --  1308.0591              1378.7956              1410.6722
 Red. masses --     3.0493                 1.9083                 1.3971
 Frc consts  --     3.0740                 2.1375                 1.6380
 IR Inten    --    64.4766                 1.8660                38.5377

                    70                     71                     72
                     A                      A                      A
 Frequencies --  1422.8329              1424.0817              1425.0714
 Red. masses --     4.3524                 1.2394                 4.5137
 Frc consts  --     5.1914                 1.4810                 5.4008
 IR Inten    --     8.2629                 3.9004                51.6731

                    73                     74                     75
                     A                      A                      A
 Frequencies --  1431.1156              1455.0720              1459.9823
 Red. masses --     1.2304                 4.3852                 1.2213
 Frc consts  --     1.4847                 5.4703                 1.5338
 IR Inten    --     5.4351                 5.5084                20.0184

                    76                     77                     78
                     A                      A                      A
 Frequencies --  1499.2705              1508.3793              1508.6466
 Red. masses --     1.0636                 1.0483                 1.0483
 Frc consts  --     1.4086                 1.4053                 1.4058
 IR Inten    --     7.6903                 9.2927                 0.0622

                    79                     80                     81
                     A                      A                      A
 Frequencies --  1515.7530              1520.6573              1521.6448
 Red. masses --     1.0457                 1.0519                 2.2637
 Frc consts  --     1.4155                 1.4331                 3.0881
 IR Inten    --     0.6603                 2.1699               149.6524

                    82                     83                     84
                     A                      A                      A
 Frequencies --  1530.3870              1533.5709              1550.8568
 Red. masses --     1.0486                 1.0598                 1.0706
 Frc consts  --     1.4470                 1.4685                 1.5171
 IR Inten    --     5.8855                 7.7520                27.6733

                    85                     86                     87
                     A                      A                      A
 Frequencies --  1556.0347              1623.1609              1653.4192
 Red. masses --     3.5754                 7.3772                 5.7258
 Frc consts  --     5.1005                11.4515                 9.2226
 IR Inten    --    14.4890                15.4667                 1.7038

                    88                     89                     90
                     A                      A                      A
 Frequencies --  1676.7913              1777.6373              1825.8991
 Red. masses --     6.3561                10.5451                12.5808
 Frc consts  --    10.5292                19.6330                24.7122
 IR Inten    --   157.1111               169.8673               154.7328

                    91                     92                     93
                     A                      A                      A
 Frequencies --  3051.7911              3052.6116              3053.5726
 Red. masses --     1.0355                 1.0384                 1.0360
 Frc consts  --     5.6821                 5.7010                 5.6916
 IR Inten    --    27.3191                 2.7157                12.0498

                    94                     95                     96
                     A                      A                      A
 Frequencies --  3062.7204              3111.6509              3115.5729
 Red. masses --     1.0363                 1.0999                 1.1030
 Frc consts  --     5.7273                 6.2744                 6.3082
 IR Inten    --    28.6406                 9.8676                13.0702

                    97                     98                     99
                     A                      A                      A
 Frequencies --  3117.1806              3130.8517              3139.3868
 Red. masses --     1.1025                 1.1020                 1.1027
 Frc consts  --     6.3120                 6.3645                 6.4030
 IR Inten    --    23.6426                40.3356                 7.1622

                   100                    101                    102
                     A                      A                      A
 Frequencies --  3140.5760              3143.8430              3169.7801
 Red. masses --     1.1021                 1.1010                 1.1012
 Frc consts  --     6.4045                 6.4115                 6.5186
 IR Inten    --    16.8976                46.4708                15.7191

                   103                    104                    105
                     A                      A                      A
 Frequencies --  3189.1236              3195.1259              3210.7609
 Red. masses --     1.0882                 1.0887                 1.0898
 Frc consts  --     6.5206                 6.5482                 6.6196
 IR Inten    --     5.9261                 5.5256                 1.4285

                   106                    107                    108
                     A                      A                      A
 Frequencies --  3214.9248              3221.0499              3270.3645
 Red. masses --     1.0929                 1.0944                 1.0914
 Frc consts  --     6.6551                 6.6897                 6.8773
 IR Inten    --    15.2887                 7.9284                 0.3780

 - Thermochemistry -
 -------------------
 Temperature   298.150 Kelvin.  Pressure   1.00000 Atm.
 Atom     1 has atomic number  8 and mass  15.99491

 Molecular mass:   270.12559 amu.
 Principal axes and moments of inertia in atomic units:
                           1         2         3
     Eigenvalues --  1491.15916********************
           X            0.99997  -0.00826  -0.00067
           Y            0.00826   0.99992  -0.00929
           Z            0.00074   0.00928   0.99996
 This molecule is an asymmetric top.
 Rotational symmetry number  1.
 Warning -- assumption of classical behavior for rotation
           may cause significant error
 Rotational temperatures (Kelvin)      0.05808     0.00597     0.00558
 Rotational constants (GHZ):           1.21029     0.12434     0.11618
 Zero-point vibrational energy     819502.8 (Joules/Mol)
                                  195.86588 (Kcal/Mol)
 Warning -- explicit consideration of  31 degrees of freedom as
           vibrations may cause significant error
 Vibrational temperatures:     16.53    40.60    61.10    81.71   101.73
          (Kelvin)            125.08   224.35   241.98   251.45   265.93
                              278.95   301.81   352.45   376.85   395.47
                              410.24   462.45   480.46   497.02   521.37
                              544.67   588.07   596.02   649.41   704.58
                              721.13   756.93   761.81   807.68   847.74
                              879.41   901.98   973.31   984.19  1087.69
                             1100.04  1110.40  1159.71  1186.19  1190.85
                             1202.10  1286.72  1306.91  1337.05  1365.61
                             1366.44  1377.60  1397.85  1399.14  1413.81
                             1417.31  1432.62  1520.28  1526.11  1527.35
                             1576.24  1641.06  1672.79  1705.00  1719.87
                             1762.56  1786.68  1817.43  1832.75  1863.45
                             1870.32  1882.00  1983.78  2029.64  2047.14
                             2048.93  2050.36  2059.05  2093.52  2100.59
                             2157.11  2170.22  2170.60  2180.83  2187.88
                             2189.30  2201.88  2206.46  2231.33  2238.78
                             2335.36  2378.90  2412.53  2557.62  2627.06
                             4390.84  4392.02  4393.40  4406.57  4476.97
                             4482.61  4484.92  4504.59  4516.87  4518.58
                             4523.28  4560.60  4588.43  4597.07  4619.56
                             4625.55  4634.37  4705.32

 Zero-point correction=                           0.312132 (Hartree/Particle)
 Thermal correction to Energy=                    0.331251
 Thermal correction to Enthalpy=                  0.332195
 Thermal correction to Gibbs Free Energy=         0.262946
 Sum of electronic and zero-point Energies=           -884.046363
 Sum of electronic and thermal Energies=              -884.027244
 Sum of electronic and thermal Enthalpies=            -884.026300
 Sum of electronic and thermal Free Energies=         -884.095549

                     E (Thermal)             CV                S
                      KCal/Mol        Cal/Mol-Kelvin    Cal/Mol-Kelvin
 Total                  207.863             73.115            145.745
 Electronic               0.000              0.000              0.000
 Translational            0.889              2.981             42.680
 Rotational               0.889              2.981             34.174
 Vibrational            206.085             67.153             68.891
 Vibration     1          0.593              1.987              7.736
 Vibration     2          0.593              1.984              5.951
 Vibration     3          0.595              1.980              5.141
 Vibration     4          0.596              1.975              4.566
 Vibration     5          0.598              1.968              4.134
 Vibration     6          0.601              1.958              3.728
 Vibration     7          0.620              1.896              2.599
 Vibration     8          0.625              1.882              2.456
 Vibration     9          0.627              1.873              2.384
 Vibration    10          0.631              1.861              2.279
 Vibration    11          0.635              1.848              2.190
 Vibration    12          0.642              1.826              2.046
 Vibration    13          0.660              1.771              1.767
 Vibration    14          0.669              1.743              1.649
 Vibration    15          0.677              1.720              1.565
 Vibration    16          0.683              1.701              1.503
 Vibration    17          0.707              1.633              1.303
 Vibration    18          0.715              1.608              1.241
 Vibration    19          0.724              1.585              1.187
 Vibration    20          0.736              1.550              1.112
 Vibration    21          0.749              1.516              1.045
 Vibration    22          0.773              1.451              0.931
 Vibration    23          0.778              1.439              0.912
 Vibration    24          0.810              1.358              0.792
 Vibration    25          0.846              1.273              0.684
 Vibration    26          0.857              1.247              0.655
 Vibration    27          0.881              1.192              0.596
 Vibration    28          0.884              1.185              0.588
 Vibration    29          0.917              1.115              0.521
 Vibration    30          0.946              1.055              0.469
 Vibration    31          0.970              1.008              0.431

 Optimization completed.
    -- Stationary point found.
 Normal termination of Gaussian 09 at Fri Oct  1 04:12:34 2021.
 Gaussian 09:  AM64L-G09RevA.02 11-Jun-2009

 ----------------------------------------------------------------------
 #p TD(NStates=10, Root=1) b3lyp/6-31G* volume pop=NPA density=current
 Geom=AllCheck Guess=Read
 ----------------------------------------------------------------------

 O=C(C(C)(C)C)Oc1ccc2c(c1)ccc(c2)C(=O)C_conf_0
 ---------------------------------------------
 Redundant internal coordinates taken from checkpoint file:
 C17H18O3_126f_conf_0.chk
 Charge =  0 Multiplicity = 1

                         Standard orientation:
 ---------------------------------------------------------------------
 Center     Atomic      Atomic             Coordinates (Angstroms)
 Number     Number       Type             X           Y           Z
 ---------------------------------------------------------------------
      1          8           0       -2.851826   -1.538371   -0.629044
      2          6           0       -3.261542   -0.489471   -0.193431
      3          6           0       -4.734362   -0.123474    0.020537
      4          6           0       -5.600657   -1.317136   -0.411717
      5          6           0       -4.963211    0.187091    1.517141
      6          6           0       -5.078848    1.119184   -0.831341
      7          8           0       -2.453335    0.554836    0.181705
      8          6           0       -1.065037    0.537844    0.091242
      9          6           0       -0.495214    1.832471   -0.015534
     10          6           0        0.867937    1.981022   -0.062462
     11          6           0        1.726449    0.848049   -0.004918
     12          6           0        1.136815   -0.453598    0.106028
     13          6           0       -0.276093   -0.589556    0.156960
     14          6           0        1.996388   -1.584149    0.164956
     15          6           0        3.362822   -1.438269    0.116425
     16          6           0        3.954682   -0.148852    0.005800
     17          6           0        3.133776    0.965358   -0.052759
     18          6           0        5.437779    0.060623   -0.051105
     19          8           0        5.908574    1.184920   -0.142899
     20          6           0        6.350473   -1.154062    0.006709
     21          1           0       -5.362622   -2.212594    0.170207
     22          1           0       -5.446211   -1.558191   -1.467695
     23          1           0       -6.659264   -1.077724   -0.261812
     24          1           0       -4.716633   -0.677304    2.144531
     25          1           0       -6.018600    0.431442    1.683465
     26          1           0       -4.357568    1.035527    1.847455
     27          1           0       -4.905555    0.930122   -1.896997
     28          1           0       -4.482651    1.986254   -0.534132
     29          1           0       -6.138121    1.369296   -0.702969
     30          1           0       -1.161483    2.688076   -0.057010
     31          1           0        1.307852    2.971372   -0.144390
     32          1           0       -0.717189   -1.573380    0.230568
     33          1           0        1.553531   -2.573425    0.247525
     34          1           0        3.992541   -2.321137    0.162577
     35          1           0        3.596553    1.944450   -0.137320
     36          1           0        6.150030   -1.837776   -0.827081
     37          1           0        6.198442   -1.718772    0.934515
     38          1           0        7.386688   -0.815762   -0.044711
 ---------------------------------------------------------------------

 SCF Done:  E(RB3LYP) =  -884.358494988     A.U. after    1 cycles

 Excitation energies and oscillator strengths:

 Excited State   1:      Singlet-A      3.6642 eV  338.36 nm  f=0.0000  <S**2>=0.000
      71 -> 73         0.66195
      71 -> 74         0.17753
      71 -> 75         0.12546
 This state for optimization and/or second-order correction.
 Total Energy, E(TD-HF/TD-KS) =  -884.223836308
 Copying the excited state density for this state as the 1-particle RhoCI density.

 Excited State   2:      Singlet-A      3.9042 eV  317.57 nm  f=0.1007  <S**2>=0.000
      70 -> 73        -0.21415
      70 -> 74         0.13983
      72 -> 73         0.63798
      72 -> 74         0.15129

 Excited State   3:      Singlet-A      4.1907 eV  295.86 nm  f=0.0704  <S**2>=0.000
      70 -> 73         0.47205
      72 -> 73         0.26147
      72 -> 74        -0.44646

 Excited State   4:      Singlet-A      4.9113 eV  252.45 nm  f=0.0000  <S**2>=0.000
      71 -> 73        -0.20223
      71 -> 74         0.66807

 Excited State   5:      Singlet-A      5.0301 eV  246.48 nm  f=0.4626  <S**2>=0.000
      69 -> 73         0.41572
      69 -> 75        -0.18856
      70 -> 73        -0.33920
      72 -> 74        -0.36532
      72 -> 75        -0.11658

 Excited State   6:      Singlet-A      5.0882 eV  243.67 nm  f=0.3657  <S**2>=0.000
      69 -> 73         0.47387
      69 -> 75        -0.20808
      70 -> 73         0.30139
      72 -> 74         0.33344

 Excited State   7:      Singlet-A      5.1902 eV  238.88 nm  f=0.0313  <S**2>=0.000
      68 -> 73         0.12525
      69 -> 73         0.11933
      70 -> 74        -0.21037
      72 -> 75         0.63944

 Excited State   8:      Singlet-A      5.4510 eV  227.45 nm  f=0.3689  <S**2>=0.000
      68 -> 73         0.17510
      70 -> 74         0.55269
      70 -> 75         0.16205
      72 -> 73        -0.10738
      72 -> 74        -0.11749
      72 -> 75         0.17869
      72 -> 76         0.12847
      72 -> 77         0.19647

 Excited State   9:      Singlet-A      5.5915 eV  221.74 nm  f=0.0041  <S**2>=0.000
      67 -> 73         0.12067
      68 -> 73         0.57707
      70 -> 74        -0.14304
      72 -> 75        -0.17294
      72 -> 76        -0.27623

 Excited State  10:      Singlet-A      5.7463 eV  215.76 nm  f=0.0055  <S**2>=0.000
      69 -> 73         0.24512
      69 -> 74        -0.22174
      69 -> 75         0.49408
      69 -> 76         0.16561
      70 -> 75        -0.30720

 The electronic state is 1-A.
 Alpha  occ. eigenvalues --  -19.21174 -19.15014 -19.13181 -10.32605 -10.27384
 Alpha  occ. eigenvalues --  -10.26530 -10.22038 -10.21107 -10.20637 -10.20455
 Alpha  occ. eigenvalues --  -10.20300 -10.20214 -10.20031 -10.19957 -10.19875
 Alpha  occ. eigenvalues --  -10.19750 -10.18810 -10.18798 -10.18794 -10.17961
 Alpha  occ. eigenvalues --   -1.11649  -1.03474  -1.03128  -0.88341  -0.83988
 Alpha  occ. eigenvalues --   -0.82482  -0.78331  -0.76806  -0.73565  -0.73164
 Alpha  occ. eigenvalues --   -0.69758  -0.69384  -0.67879  -0.63387  -0.61741
 Alpha  occ. eigenvalues --   -0.60723  -0.57482  -0.54370  -0.52325  -0.50724
 Alpha  occ. eigenvalues --   -0.49334  -0.48606  -0.47679  -0.46371  -0.45904
 Alpha  occ. eigenvalues --   -0.45256  -0.44149  -0.43962  -0.43949  -0.42927
 Alpha  occ. eigenvalues --   -0.42740  -0.41347  -0.41090  -0.40101  -0.39718
 Alpha  occ. eigenvalues --   -0.39088  -0.38724  -0.38282  -0.37414  -0.36778
 Alpha  occ. eigenvalues --   -0.36526  -0.35535  -0.34989  -0.34224  -0.34005
 Alpha  occ. eigenvalues --   -0.33646  -0.31526  -0.29006  -0.27634  -0.24716
 Alpha  occ. eigenvalues --   -0.24583  -0.22213
 Alpha virt. eigenvalues --   -0.06292  -0.03509  -0.00767   0.02481   0.03277
 Alpha virt. eigenvalues --    0.07762   0.08846   0.10130   0.11178   0.11976
 Alpha virt. eigenvalues --    0.12191   0.13711   0.13950   0.14657   0.15018

 Mulliken atomic charges:
              1
     1  O   -0.467852
     2  C    0.637233
     3  C   -0.008385
     4  C   -0.433298
     5  C   -0.450729
     6  C   -0.449993
     7  O   -0.533805
     8  C    0.326647
     9  C   -0.174509
    10  C   -0.202959
    11  C    0.155477
    12  C    0.122929
    13  C   -0.234108
    14  C   -0.199422
    15  C   -0.194592
    16  C    0.102075
    17  C   -0.289363
    18  C    0.328361
    19  O   -0.296117
    20  C   -0.517892
    21  H    0.154496
    22  H    0.155806
    23  H    0.135741
    24  H    0.150366
    25  H    0.146447
    26  H    0.164592
    27  H    0.151843
    28  H    0.161629
    29  H    0.146407
    30  H    0.135391
    31  H    0.127963
    32  H    0.165930
    33  H    0.133331
    34  H    0.117596
    35  H    0.134789
    36  H    0.204833
    37  H    0.204280
    38  H    0.188858
 Sum of Mulliken atomic charges =  -0.00000

 Dipole moment (field-independent basis, Debye):
    X=              2.3255    Y=             -0.4996    Z=              0.7227  Tot=              2.4859
 Quadrupole moment (field-independent basis, Debye-Ang):
   XX=            -83.8923   YY=           -113.2938   ZZ=           -119.9334
   XY=            -15.7829   XZ=             -1.5150   YZ=             -2.7022

 Summary of Natural Population Analysis:

                                       Natural Population
                Natural  -----------------------------------------------
    Atom  No    Charge         Core      Valence    Rydberg      Total
 -----------------------------------------------------------------------
      O    1   -0.58748      1.99977     6.56786    0.01985     8.58748
      C    2    0.84817      1.99928     3.10416    0.04839     5.15183
      C    3   -0.15085      1.99905     4.13946    0.01233     6.15085
      C    4   -0.66990      1.99940     4.65943    0.01107     6.66990
      C    5   -0.66920      1.99938     4.66011    0.00971     6.66920
      C    6   -0.66844      1.99938     4.65932    0.00975     6.66844
      O    7   -0.54487      1.99969     6.53420    0.01098     8.54487
      C    8    0.28033      1.99873     3.69945    0.02149     5.71967
      C    9   -0.25173      1.99903     4.23876    0.01393     6.25173
      C   10   -0.21546      1.99906     4.20324    0.01317     6.21546
      C   11   -0.05744      1.99902     4.04411    0.01431     6.05744
      C   12   -0.05540      1.99902     4.04214    0.01425     6.05540
      C   13   -0.25764      1.99897     4.24606    0.01261     6.25764
      C   14   -0.21458      1.99906     4.20169    0.01384     6.21458
      C   15   -0.21991      1.99905     4.20827    0.01260     6.21991
      C   16   -0.17159      1.99889     4.15788    0.01483     6.17159
      C   17   -0.22051      1.99901     4.20744    0.01406     6.22051
      C   18    0.40383      1.99928     3.56465    0.03224     5.59617
      O   19   -0.24429      1.99981     6.22642    0.01806     8.24429
      C   20   -0.71101      1.99932     4.70494    0.00676     6.71101
      H   21    0.24206      0.00000     0.75689    0.00105     0.75794
      H   22    0.24271      0.00000     0.75624    0.00105     0.75729
      H   23    0.22903      0.00000     0.77005    0.00092     0.77097
      H   24    0.23555      0.00000     0.76354    0.00092     0.76445
      H   25    0.23341      0.00000     0.76551    0.00108     0.76659
      H   26    0.24461      0.00000     0.75432    0.00108     0.75539
      H   27    0.23630      0.00000     0.76279    0.00091     0.76370
      H   28    0.24269      0.00000     0.75614    0.00117     0.75731
      H   29    0.23327      0.00000     0.76567    0.00106     0.76673
      H   30    0.24477      0.00000     0.75406    0.00116     0.75523
      H   31    0.23497      0.00000     0.76404    0.00099     0.76503
      H   32    0.26127      0.00000     0.73725    0.00148     0.73873
      H   33    0.23885      0.00000     0.76017    0.00099     0.76115
      H   34    0.22992      0.00000     0.76909    0.00098     0.77008
      H   35    0.23480      0.00000     0.76431    0.00089     0.76520
      H   36    0.26693      0.00000     0.73222    0.00085     0.73307
      H   37    0.26661      0.00000     0.73254    0.00085     0.73339
      H   38    0.26023      0.00000     0.73867    0.00110     0.73977
 =======================================================================
   * Total *    0.00000     39.98419   103.67309    0.34272   144.00000

 Normal termination of Gaussian 09 at Fri Oct  1 06:56:48 2021.
