 Gaussian 09, Revision A.02,

 -----------------------------------
 #p opt b3lyp/6-31G* scf=(xqc,tight)
 -----------------------------------

 ---------------------------------
 CCCCCCc1ccc2c(c1)ccc(c2)OC_conf_0
 ---------------------------------
 Symbolic Z-matrix:
 Charge =  0 Multiplicity = 1

 SCF Done:  E(RB3LYP) =  -736.294008066     A.U. after   14 cycles
 SCF Done:  E(RB3LYP) =  -736.299363382     A.U. after   12 cycles
 SCF Done:  E(RB3LYP) =  -736.300008368     A.U. after   12 cycles
 SCF Done:  E(RB3LYP) =  -736.300197302     A.U. after   12 cycles
 SCF Done:  E(RB3LYP) =  -736.300256284     A.U. after   11 cycles
 SCF Done:  E(RB3LYP) =  -736.300274424     A.U. after   10 cycles
 SCF Done:  E(RB3LYP) =  -736.300276622     A.U. after    9 cycles
 SCF Done:  E(RB3LYP) =  -736.300276681     A.U. after    8 cycles
 SCF Done:  E(RB3LYP) =  -736.300276741     A.U. after    7 cycles
 SCF Done:  E(RB3LYP) =  -736.300276731     A.U. after    7 cycles
 Optimization completed.
    -- Stationary point found.
 Normal termination of Gaussian 09 at Thu Sep 30 21:35:45 2021.

 ----------------------------------------------------------------------
 #p freq b3lyp/6-31G* volume NMR pop=NPA density=current Geom=AllCheck
 Guess=Read
 ----------------------------------------------------------------------

 CCCCCCc1ccc2c(c1)ccc(c2)OC_conf_0
 ---------------------------------
 Redundant internal coordinates taken from checkpoint file:
 C17H22O_eb0a_conf_0.chk
 Charge =  0 Multiplicity = 1

 SCF Done:  E(RB3LYP) =  -736.300276731     A.U. after    1 cycles

  1  C    Isotropic =   173.5295   Anisotropy =    24.7360

  2  C    Isotropic =   163.5171   Anisotropy =    20.5356

  3  C    Isotropic =   155.3432   Anisotropy =    32.7033

  4  C    Isotropic =   159.3267   Anisotropy =    27.0204

  5  C    Isotropic =   155.8372   Anisotropy =    20.9750

  6  C    Isotropic =   151.6518   Anisotropy =    19.9912

  7  C    Isotropic =    59.6591   Anisotropy =   174.3397

  8  C    Isotropic =    68.9753   Anisotropy =   153.0519

  9  C    Isotropic =    68.2823   Anisotropy =   140.9820

 10  C    Isotropic =    63.4610   Anisotropy =   193.9108

 11  C    Isotropic =    68.3734   Anisotropy =   188.8557

 12  C    Isotropic =    67.2148   Anisotropy =   125.2183

 13  C    Isotropic =    66.6760   Anisotropy =   143.4822

 14  C    Isotropic =    84.9035   Anisotropy =   144.7335

 15  C    Isotropic =    41.5160   Anisotropy =   122.0057

 16  C    Isotropic =    82.3211   Anisotropy =   113.1382

 17  O    Isotropic =   241.1891   Anisotropy =    68.4327

 18  C    Isotropic =   137.4379   Anisotropy =    64.9213

 19  H    Isotropic =    31.1583   Anisotropy =    10.1237

 20  H    Isotropic =    31.3554   Anisotropy =     7.8076

 21  H    Isotropic =    31.2999   Anisotropy =     8.2425

 22  H    Isotropic =    30.9416   Anisotropy =     5.5220

 23  H    Isotropic =    30.8125   Anisotropy =     5.9131

 24  H    Isotropic =    30.7751   Anisotropy =     5.2370

 25  H    Isotropic =    30.9700   Anisotropy =     4.5463

 26  H    Isotropic =    30.8294   Anisotropy =     9.6698

 27  H    Isotropic =    30.9550   Anisotropy =     4.7371

 28  H    Isotropic =    30.3934   Anisotropy =     7.1329

 29  H    Isotropic =    30.4424   Anisotropy =     5.6463

 30  H    Isotropic =    29.7852   Anisotropy =     5.4784

 31  H    Isotropic =    29.1245   Anisotropy =     7.0059

 32  H    Isotropic =    24.9327   Anisotropy =     8.1474

 33  H    Isotropic =    24.6946   Anisotropy =     7.3281

 34  H    Isotropic =    24.9396   Anisotropy =     9.1831

 35  H    Isotropic =    24.6751   Anisotropy =     7.8534

 36  H    Isotropic =    25.3817   Anisotropy =     8.0606

 37  H    Isotropic =    25.2151   Anisotropy =     8.0693

 38  H    Isotropic =    28.2340   Anisotropy =     8.3770

 39  H    Isotropic =    28.5318   Anisotropy =     8.2501

 40  H    Isotropic =    28.5315   Anisotropy =     8.3870

  Exact polarizability: 258.024 -52.940 154.265   8.132  21.321 158.987
 Approx polarizability: 348.450 -96.993 230.765  20.217  49.592 279.133

                     1                      2                      3
                     A                      A                      A
 Frequencies --    20.5967                31.0902                48.0190
 Red. masses --     4.1468                 3.7652                 1.5829
 Frc consts  --     0.0010                 0.0021                 0.0022
 IR Inten    --     0.1341                 0.2718                 0.0488

                     4                      5                      6
                     A                      A                      A
 Frequencies --    56.8298                82.8586               105.3697
 Red. masses --     3.4426                 3.4531                 3.5641
 Frc consts  --     0.0066                 0.0140                 0.0233
 IR Inten    --     1.8165                 1.4903                 0.3836

                     7                      8                      9
                     A                      A                      A
 Frequencies --   121.8487               138.1850               167.7361
 Red. masses --     3.3333                 1.7471                 2.9882
 Frc consts  --     0.0292                 0.0197                 0.0495
 IR Inten    --     0.3409                 0.0214                 0.7851

                    10                     11                     12
                     A                      A                      A
 Frequencies --   186.3740               198.9157               224.3916
 Red. masses --     3.0481                 3.3337                 2.6337
 Frc consts  --     0.0624                 0.0777                 0.0781
 IR Inten    --     0.4363                 1.2504                 0.8464

                    13                     14                     15
                     A                      A                      A
 Frequencies --   249.4529               257.2437               299.3056
 Red. masses --     1.1280                 1.3695                 3.3007
 Frc consts  --     0.0414                 0.0534                 0.1742
 IR Inten    --     0.0099                 0.8789                 0.6057

                    16                     17                     18
                     A                      A                      A
 Frequencies --   312.1380               337.7694               360.7884
 Red. masses --     2.6297                 4.5207                 3.3933
 Frc consts  --     0.1510                 0.3039                 0.2602
 IR Inten    --     0.6055                 0.1584                 0.1541

                    19                     20                     21
                     A                      A                      A
 Frequencies --   407.3657               416.9801               439.1643
 Red. masses --     3.6352                 3.4563                 3.0403
 Frc consts  --     0.3554                 0.3541                 0.3455
 IR Inten    --     0.4963                 0.0315                 0.0167

                    22                     23                     24
                     A                      A                      A
 Frequencies --   489.1889               494.1634               523.9612
 Red. masses --     2.7005                 3.2424                 4.1476
 Frc consts  --     0.3808                 0.4665                 0.6709
 IR Inten    --     5.5732                 1.2164                 4.2230

                    25                     26                     27
                     A                      A                      A
 Frequencies --   538.2208               586.7511               610.4993
 Red. masses --     5.7555                 3.6572                 3.2189
 Frc consts  --     0.9823                 0.7418                 0.7069
 IR Inten    --     0.5772                 9.4276                 5.8934

                    28                     29                     30
                     A                      A                      A
 Frequencies --   675.8236               694.7710               740.9814
 Red. masses --     3.6959                 4.0106                 1.1097
 Frc consts  --     0.9946                 1.1406                 0.3590
 IR Inten    --     2.2833                 4.1707                 2.4415

                    31                     32                     33
                     A                      A                      A
 Frequencies --   755.4347               765.9104               776.7651
 Red. masses --     2.2796                 2.9793                 1.7388
 Frc consts  --     0.7665                 1.0297                 0.6181
 IR Inten    --     2.4882                 1.6551                 2.3654

                    34                     35                     36
                     A                      A                      A
 Frequencies --   817.0627               820.8557               826.2884
 Red. masses --     1.5459                 1.8038                 1.8541
 Frc consts  --     0.6081                 0.7161                 0.7458
 IR Inten    --    13.7689                 5.8348                 6.4299

                    37                     38                     39
                     A                      A                      A
 Frequencies --   859.9132               881.2238               888.2114
 Red. masses --     1.6990                 1.7179                 1.5553
 Frc consts  --     0.7402                 0.7860                 0.7229
 IR Inten    --     5.9680                 1.2107                29.0575

                    40                     41                     42
                     A                      A                      A
 Frequencies --   904.9403               911.7121               933.2392
 Red. masses --     1.8336                 1.4797                 3.6195
 Frc consts  --     0.8847                 0.7246                 1.8573
 IR Inten    --     1.2776                17.0500                 5.4091

                    43                     44                     45
                     A                      A                      A
 Frequencies --   950.1102               968.7067               973.6576
 Red. masses --     1.3198                 1.2915                 2.5074
 Frc consts  --     0.7020                 0.7141                 1.4005
 IR Inten    --     1.8221                 0.2014                 0.6382

                    46                     47                     48
                     A                      A                      A
 Frequencies --   989.3250              1020.4370              1037.4622
 Red. masses --     1.7649                 2.4659                 2.3149
 Frc consts  --     1.0178                 1.5128                 1.4680
 IR Inten    --     0.1961                 1.7020                 1.7508

                    49                     50                     51
                     A                      A                      A
 Frequencies --  1064.7004              1074.2674              1082.5276
 Red. masses --     2.2896                 2.2543                 3.5600
 Frc consts  --     1.5292                 1.5328                 2.4580
 IR Inten    --     1.4459                 0.4887                49.1192

                    52                     53                     54
                     A                      A                      A
 Frequencies --  1124.3122              1138.7620              1170.3532
 Red. masses --     1.5832                 2.0490                 1.6218
 Frc consts  --     1.1791                 1.5655                 1.3089
 IR Inten    --     1.9978                 1.1059                24.5984

                    55                     56                     57
                     A                      A                      A
 Frequencies --  1184.1530              1188.8543              1199.7170
 Red. masses --     1.2678                 1.4390                 1.6524
 Frc consts  --     1.0474                 1.1983                 1.4013
 IR Inten    --     0.7072                10.3410                58.8027

                    58                     59                     60
                     A                      A                      A
 Frequencies --  1209.8244              1217.3639              1230.5942
 Red. masses --     1.3372                 1.7108                 1.4231
 Frc consts  --     1.1532                 1.4938                 1.2697
 IR Inten    --    38.7530                 3.5311                 5.2490

                    61                     62                     63
                     A                      A                      A
 Frequencies --  1249.0905              1279.6847              1297.0001
 Red. masses --     1.4210                 2.0241                 1.5349
 Frc consts  --     1.3063                 1.9530                 1.5213
 IR Inten    --     0.4980                42.3569                 5.7546

                    64                     65                     66
                     A                      A                      A
 Frequencies --  1299.6096              1311.2922              1316.3982
 Red. masses --     1.5529                 1.2752                 2.9582
 Frc consts  --     1.5453                 1.2919                 3.0203
 IR Inten    --     3.0999                 3.1152               311.0552

                    67                     68                     69
                     A                      A                      A
 Frequencies --  1345.8445              1347.5723              1362.6372
 Red. masses --     1.0753                 1.1244                 1.3659
 Frc consts  --     1.1475                 1.2031                 1.4942
 IR Inten    --     0.4788                 0.7150                 0.7428

                    70                     71                     72
                     A                      A                      A
 Frequencies --  1377.7163              1392.3755              1411.1813
 Red. masses --     1.4577                 1.9511                 1.9112
 Frc consts  --     1.6302                 2.2287                 2.2425
 IR Inten    --    12.1977                 1.2734                19.2728

                    73                     74                     75
                     A                      A                      A
 Frequencies --  1415.1927              1425.8115              1429.3027
 Red. masses --     2.1812                 1.7172                 3.9916
 Frc consts  --     2.5738                 2.0569                 4.8044
 IR Inten    --     2.8573                 5.2660                 4.2231

                    76                     77                     78
                     A                      A                      A
 Frequencies --  1441.3108              1463.5088              1501.1411
 Red. masses --     1.2517                 3.4683                 1.2369
 Frc consts  --     1.5321                 4.3768                 1.6423
 IR Inten    --     1.7076                 0.9179                19.4499

                    79                     80                     81
                     A                      A                      A
 Frequencies --  1512.4760              1515.5174              1518.5444
 Red. masses --     1.0850                 1.0725                 1.0974
 Frc consts  --     1.4623                 1.4514                 1.4910
 IR Inten    --     5.1173                 0.3666                 2.0306

                    82                     83                     84
                     A                      A                      A
 Frequencies --  1521.7080              1522.2351              1529.9251
 Red. masses --     1.0799                 1.0487                 1.0411
 Frc consts  --     1.4733                 1.4317                 1.4358
 IR Inten    --     1.1790                 5.1311                 5.7850

                    85                     86                     87
                     A                      A                      A
 Frequencies --  1532.8266              1533.7045              1539.5335
 Red. masses --     1.2630                 1.0913                 1.7229
 Frc consts  --     1.7484                 1.5125                 2.4060
 IR Inten    --    56.0521                 8.5212                 0.2338

                    88                     89                     90
                     A                      A                      A
 Frequencies --  1542.7617              1560.2329              1621.0061
 Red. masses --     1.0944                 3.3129                 6.8746
 Frc consts  --     1.5347                 4.7516                10.6431
 IR Inten    --     3.3431                64.3114                 5.6491

                    91                     92                     93
                     A                      A                      A
 Frequencies --  1667.9570              1692.3794              3010.9780
 Red. masses --     5.6562                 6.3004                 1.0587
 Frc consts  --     9.2714                10.6319                 5.6548
 IR Inten    --   101.3926                42.9407                 5.3150

                    94                     95                     96
                     A                      A                      A
 Frequencies --  3015.7040              3023.2452              3023.9781
 Red. masses --     1.0640                 1.0350                 1.0613
 Frc consts  --     5.7011                 5.5736                 5.7183
 IR Inten    --     2.5410                77.4834                 5.5830

                    97                     98                     99
                     A                      A                      A
 Frequencies --  3027.6656              3032.1365              3037.2012
 Red. masses --     1.0658                 1.0623                 1.0935
 Frc consts  --     5.7560                 5.7543                 5.9429
 IR Inten    --    62.1289                54.9826                13.4985

                   100                    101                    102
                     A                      A                      A
 Frequencies --  3040.9380              3051.6841              3060.3157
 Red. masses --     1.0364                 1.0967                 1.1043
 Frc consts  --     5.6466                 6.0175                 6.0933
 IR Inten    --    47.4883                14.1546                 7.6798

                   103                    104                    105
                     A                      A                      A
 Frequencies --  3071.8111              3081.0306              3081.5443
 Red. masses --     1.1017                 1.1034                 1.1067
 Frc consts  --     6.1249                 6.1715                 6.1919
 IR Inten    --    22.5017               111.1423                47.0216

                   106                    107                    108
                     A                      A                      A
 Frequencies --  3105.5767              3110.0028              3154.4640
 Red. masses --     1.1028                 1.1018                 1.0993
 Frc consts  --     6.2667                 6.2790                 6.4450
 IR Inten    --    70.4030                42.2630                31.6404

                   109                    110                    111
                     A                      A                      A
 Frequencies --  3168.3419              3170.9259              3182.2551
 Red. masses --     1.0897                 1.0861                 1.0891
 Frc consts  --     6.4449                 6.4340                 6.4979
 IR Inten    --    14.3452                 9.5200                17.0491

                   112                    113                    114
                     A                      A                      A
 Frequencies --  3190.5627              3203.5618              3225.9398
 Red. masses --     1.0948                 1.0905                 1.0914
 Frc consts  --     6.5664                 6.5938                 6.6917
 IR Inten    --    23.4113                 9.3326                14.8019

 - Thermochemistry -
 -------------------
 Temperature   298.150 Kelvin.  Pressure   1.00000 Atm.
 Atom     1 has atomic number  6 and mass  12.00000

 Molecular mass:   242.16707 amu.
 Principal axes and moments of inertia in atomic units:
                           1         2         3
     Eigenvalues --  2526.63011********************
           X            0.99998   0.00426  -0.00440
           Y           -0.00423   0.99996   0.00740
           Z            0.00443  -0.00738   0.99996
 This molecule is an asymmetric top.
 Rotational symmetry number  1.
 Warning -- assumption of classical behavior for rotation
           may cause significant error
 Rotational temperatures (Kelvin)      0.03428     0.00744     0.00674
 Rotational constants (GHZ):           0.71429     0.15502     0.14040
 Zero-point vibrational energy     923103.2 (Joules/Mol)
                                  220.62697 (Kcal/Mol)
 Warning -- explicit consideration of  27 degrees of freedom as
           vibrations may cause significant error
 Vibrational temperatures:     29.63    44.73    69.09    81.77   119.21
          (Kelvin)            151.60   175.31   198.82   241.33   268.15
                              286.19   322.85   358.91   370.12   430.63
                              449.10   485.97   519.09   586.11   599.94
                              631.86   703.83   710.99   753.86   774.38
                              844.20   878.37   972.36   999.62  1066.11
                             1086.90  1101.97  1117.59  1175.57  1181.03
                             1188.84  1237.22  1267.88  1277.94  1302.01
                             1311.75  1342.72  1366.99  1393.75  1400.87
                             1423.42  1468.18  1492.67  1531.86  1545.63
                             1557.51  1617.63  1638.42  1683.88  1703.73
                             1710.49  1726.12  1740.67  1751.51  1770.55
                             1797.16  1841.18  1866.09  1869.85  1886.65
                             1894.00  1936.37  1938.85  1960.53  1982.22
                             2003.32  2030.37  2036.14  2051.42  2056.45
                             2073.72  2105.66  2159.80  2176.11  2180.49
                             2184.84  2189.40  2190.15  2201.22  2205.39
                             2206.66  2215.04  2219.69  2244.82  2332.26
                             2399.82  2434.95  4332.12  4338.92  4349.77
                             4350.82  4356.13  4362.56  4369.85  4375.23
                             4390.69  4403.11  4419.65  4432.91  4433.65
                             4468.23  4474.59  4538.56  4558.53  4562.25
                             4578.55  4590.50  4609.21  4641.40

 Zero-point correction=                           0.351591 (Hartree/Particle)
 Thermal correction to Energy=                    0.369394
 Thermal correction to Enthalpy=                  0.370338
 Thermal correction to Gibbs Free Energy=         0.303967
 Sum of electronic and zero-point Energies=           -735.948685
 Sum of electronic and thermal Energies=              -735.930883
 Sum of electronic and thermal Enthalpies=            -735.929938
 Sum of electronic and thermal Free Energies=         -735.996310

                     E (Thermal)             CV                S
                      KCal/Mol        Cal/Mol-Kelvin    Cal/Mol-Kelvin
 Total                  231.798             67.952            139.690
 Electronic               0.000              0.000              0.000
 Translational            0.889              2.981             42.354
 Rotational               0.889              2.981             34.291
 Vibrational            230.021             61.991             63.045
 Vibration     1          0.593              1.986              6.576
 Vibration     2          0.594              1.983              5.759
 Vibration     3          0.595              1.978              4.897
 Vibration     4          0.596              1.975              4.564
 Vibration     5          0.600              1.961              3.822
 Vibration     6          0.605              1.945              3.352
 Vibration     7          0.609              1.931              3.071
 Vibration     8          0.614              1.915              2.829
 Vibration     9          0.624              1.882              2.461
 Vibration    10          0.632              1.859              2.264
 Vibration    11          0.637              1.841              2.143
 Vibration    12          0.649              1.804              1.923
 Vibration    13          0.662              1.764              1.734
 Vibration    14          0.667              1.751              1.680
 Vibration    15          0.692              1.675              1.421
 Vibration    16          0.700              1.651              1.351
 Vibration    17          0.718              1.600              1.223
 Vibration    18          0.735              1.553              1.119
 Vibration    19          0.772              1.454              0.936
 Vibration    20          0.780              1.433              0.902
 Vibration    21          0.799              1.385              0.829
 Vibration    22          0.845              1.274              0.686
 Vibration    23          0.850              1.263              0.673
 Vibration    24          0.879              1.197              0.601
 Vibration    25          0.893              1.166              0.569
 Vibration    26          0.944              1.060              0.473
 Vibration    27          0.970              1.010              0.432

 Normal termination of Gaussian 09 at Thu Sep 30 23:02:17 2021.
 Gaussian 09:  AM64L-G09RevA.02 11-Jun-2009

 ----------------------------------------------------------------------
 #p TD(NStates=10, Root=1) b3lyp/6-31G* volume pop=NPA density=current
 Geom=AllCheck Guess=Read
 ----------------------------------------------------------------------

 CCCCCCc1ccc2c(c1)ccc(c2)OC_conf_0
 ---------------------------------
 Redundant internal coordinates taken from checkpoint file:
 C17H22O_eb0a_conf_0.chk
 Charge =  0 Multiplicity = 1

                         Standard orientation:
 ---------------------------------------------------------------------
 Center     Atomic      Atomic             Coordinates (Angstroms)
 Number     Number       Type             X           Y           Z
 ---------------------------------------------------------------------
      1          6           0        5.986553    2.679449   -0.696171
      2          6           0        4.789425    2.050657    0.024055
      3          6           0        4.605191    0.561020   -0.293871
      4          6           0        3.404887   -0.073222    0.420273
      5          6           0        3.232109   -1.564446    0.107941
      6          6           0        2.024508   -2.221393    0.812940
      7          6           0        0.678118   -1.707746    0.347480
      8          6           0        0.193515   -2.060533   -0.946302
      9          6           0       -1.016649   -1.606297   -1.410811
     10          6           0       -1.836518   -0.760180   -0.611156
     11          6           0       -1.363683   -0.399857    0.692870
     12          6           0       -0.106045   -0.892644    1.136747
     13          6           0       -2.178586    0.439030    1.492036
     14          6           0       -3.395478    0.906392    1.042148
     15          6           0       -3.857463    0.545891   -0.250415
     16          6           0       -3.086570   -0.273486   -1.056035
     17          8           0       -5.049528    0.964777   -0.774899
     18          6           0       -5.877160    1.809608    0.006779
     19          1           0        6.090998    3.742002   -0.448138
     20          1           0        5.880071    2.600747   -1.785209
     21          1           0        6.923142    2.179457   -0.419589
     22          1           0        3.872519    2.593544   -0.245816
     23          1           0        4.908121    2.176736    1.109794
     24          1           0        5.522718    0.017143   -0.022641
     25          1           0        4.489080    0.435302   -1.380829
     26          1           0        2.488884    0.466091    0.144080
     27          1           0        3.519178    0.056508    1.507323
     28          1           0        4.142521   -2.105069    0.402998
     29          1           0        3.134030   -1.700728   -0.978518
     30          1           0        2.117586   -2.071644    1.896494
     31          1           0        2.073497   -3.306307    0.645225
     32          1           0        0.798735   -2.711425   -1.574100
     33          1           0       -1.367696   -1.893050   -2.399418
     34          1           0        0.236326   -0.613256    2.131818
     35          1           0       -1.830594    0.718862    2.483770
     36          1           0       -3.991462    1.547100    1.681990
     37          1           0       -3.458448   -0.537891   -2.041818
     38          1           0       -6.757243    2.013968   -0.606126
     39          1           0       -5.379104    2.758227    0.248200
     40          1           0       -6.193555    1.322004    0.938671
 ---------------------------------------------------------------------

 SCF Done:  E(RB3LYP) =  -736.300276731     A.U. after    1 cycles

 Excitation energies and oscillator strengths:

 Excited State   1:      Singlet-A      4.0284 eV  307.78 nm  f=0.0547  <S**2>=0.000
      65 -> 67         0.12754
      65 -> 68         0.16270
      66 -> 67         0.65666
      66 -> 68        -0.15122
 This state for optimization and/or second-order correction.
 Total Energy, E(TD-HF/TD-KS) =  -736.152237426
 Copying the excited state density for this state as the 1-particle RhoCI density.

 Excited State   2:      Singlet-A      4.5045 eV  275.24 nm  f=0.0107  <S**2>=0.000
      65 -> 67         0.49737
      66 -> 67        -0.20529
      66 -> 68        -0.45216

 Excited State   3:      Singlet-A      5.5129 eV  224.90 nm  f=0.2878  <S**2>=0.000
      64 -> 67         0.45689
      65 -> 67        -0.25535
      66 -> 68        -0.24622
      66 -> 69         0.39464

 Excited State   4:      Singlet-A      5.6875 eV  218.00 nm  f=1.1420  <S**2>=0.000
      64 -> 67         0.17435
      65 -> 67         0.37433
      65 -> 68         0.16249
      66 -> 68         0.44102
      66 -> 69         0.30953

 Excited State   5:      Singlet-A      5.8655 eV  211.38 nm  f=0.0427  <S**2>=0.000
      63 -> 67        -0.15590
      64 -> 67         0.29705
      64 -> 68        -0.19087
      65 -> 68         0.40092
      65 -> 69        -0.15941
      66 -> 69        -0.36323

 Excited State   6:      Singlet-A      6.1302 eV  202.25 nm  f=0.2753  <S**2>=0.000
      64 -> 67        -0.30066
      64 -> 68         0.12308
      65 -> 67        -0.15028
      65 -> 68         0.50497
      65 -> 69         0.19186
      66 -> 67        -0.10608
      66 -> 69         0.19408

 Excited State   7:      Singlet-A      6.4089 eV  193.46 nm  f=0.0284  <S**2>=0.000
      63 -> 67        -0.34820
      64 -> 67         0.21369
      64 -> 68         0.22442
      65 -> 69         0.50795

 Excited State   8:      Singlet-A      6.5963 eV  187.96 nm  f=0.0098  <S**2>=0.000
      63 -> 67         0.50332
      64 -> 67         0.15497
      64 -> 68         0.37541
      66 -> 69        -0.23628

 Excited State   9:      Singlet-A      6.6947 eV  185.20 nm  f=0.0003  <S**2>=0.000
      56 -> 67        -0.11968
      59 -> 67        -0.29292
      60 -> 67         0.57791
      61 -> 67        -0.19334

 Excited State  10:      Singlet-A      6.8602 eV  180.73 nm  f=0.0028  <S**2>=0.000
      54 -> 67         0.13209
      56 -> 67         0.11049
      57 -> 67         0.16538
      58 -> 67        -0.24423
      59 -> 67         0.19454
      60 -> 67         0.20564
      61 -> 67         0.48942
      62 -> 67         0.22181

 The electronic state is 1-A.
 Alpha  occ. eigenvalues --  -19.17451 -10.24407 -10.24036 -10.19166 -10.18989
 Alpha  occ. eigenvalues --  -10.18885 -10.18791 -10.18706 -10.18303 -10.18238
 Alpha  occ. eigenvalues --  -10.18226 -10.18091 -10.17792 -10.17756 -10.17456
 Alpha  occ. eigenvalues --  -10.17263 -10.17154 -10.16881  -1.06001  -0.86556
 Alpha  occ. eigenvalues --   -0.82217  -0.79724  -0.77276  -0.76515  -0.73863
 Alpha  occ. eigenvalues --   -0.72403  -0.70551  -0.67881  -0.63802  -0.61959
 Alpha  occ. eigenvalues --   -0.59518  -0.58972  -0.57155  -0.56547  -0.52719
 Alpha  occ. eigenvalues --   -0.50491  -0.49377  -0.47071  -0.46635  -0.46094
 Alpha  occ. eigenvalues --   -0.45005  -0.44056  -0.43406  -0.42599  -0.41672
 Alpha  occ. eigenvalues --   -0.41221  -0.40009  -0.39565  -0.39074  -0.38228
 Alpha  occ. eigenvalues --   -0.37947  -0.37332  -0.36095  -0.34542  -0.34348
 Alpha  occ. eigenvalues --   -0.33525  -0.33067  -0.32273  -0.31760  -0.31697
 Alpha  occ. eigenvalues --   -0.31422  -0.30835  -0.29269  -0.26619  -0.22647
 Alpha  occ. eigenvalues --   -0.19554
 Alpha virt. eigenvalues --   -0.03102   0.00397   0.03993   0.09269   0.09665
 Alpha virt. eigenvalues --    0.09949   0.10860   0.11468   0.11556   0.12820
 Alpha virt. eigenvalues --    0.13058   0.13540   0.14082   0.15096   0.15628

 Mulliken atomic charges:
              1
     1  C   -0.441267
     2  C   -0.247029
     3  C   -0.246333
     4  C   -0.253666
     5  C   -0.252028
     6  C   -0.354293
     7  C    0.204372
     8  C   -0.210134
     9  C   -0.207576
    10  C    0.144039
    11  C    0.163449
    12  C   -0.290128
    13  C   -0.219825
    14  C   -0.219216
    15  C    0.386889
    16  C   -0.260972
    17  O   -0.469028
    18  C   -0.223524
    19  H    0.140443
    20  H    0.141228
    21  H    0.139969
    22  H    0.132582
    23  H    0.128564
    24  H    0.124121
    25  H    0.128060
    26  H    0.145449
    27  H    0.122554
    28  H    0.128302
    29  H    0.138618
    30  H    0.138275
    31  H    0.148618
    32  H    0.108547
    33  H    0.117057
    34  H    0.116144
    35  H    0.123936
    36  H    0.117583
    37  H    0.139420
    38  H    0.177048
    39  H    0.169842
    40  H    0.169910
 Sum of Mulliken atomic charges =  -0.00000

 Dipole moment (field-independent basis, Debye):
    X=             -1.7717    Y=              1.4443    Z=              0.7618  Tot=              2.4095
 Quadrupole moment (field-independent basis, Debye-Ang):
   XX=            -89.1741   YY=           -107.6211   ZZ=           -106.6948
   XY=            -12.1123   XZ=             -0.9593   YZ=              2.6327

 Summary of Natural Population Analysis:

                                       Natural Population
                Natural  -----------------------------------------------
    Atom  No    Charge         Core      Valence    Rydberg      Total
 -----------------------------------------------------------------------
      C    1   -0.67258      1.99947     4.66572    0.00739     6.67258
      C    2   -0.45154      1.99935     4.44229    0.00990     6.45154
      C    3   -0.45155      1.99933     4.44110    0.01112     6.45155
      C    4   -0.45627      1.99933     4.44542    0.01152     6.45627
      C    5   -0.44001      1.99932     4.42976    0.01093     6.44001
      C    6   -0.47091      1.99927     4.45881    0.01283     6.47091
      C    7    0.03335      1.99904     3.95076    0.01685     5.96665
      C    8   -0.29627      1.99905     4.28178    0.01544     6.29627
      C    9   -0.22776      1.99906     4.21285    0.01585     6.22776
      C   10   -0.05403      1.99903     4.03981    0.01518     6.05403
      C   11   -0.04396      1.99902     4.02965    0.01529     6.04396
      C   12   -0.24357      1.99898     4.23015    0.01444     6.24357
      C   13   -0.21079      1.99907     4.19550    0.01623     6.21079
      C   14   -0.38294      1.99904     4.36904    0.01485     6.38294
      C   15    0.36373      1.99879     3.61500    0.02248     5.63627
      C   16   -0.24597      1.99900     4.23087    0.01610     6.24597
      O   17   -0.45614      1.99975     6.44482    0.01157     8.45614
      C   18   -0.32228      1.99942     4.30892    0.01394     6.32228
      H   19    0.23065      0.00000     0.76852    0.00083     0.76935
      H   20    0.22399      0.00000     0.77492    0.00110     0.77601
      H   21    0.22326      0.00000     0.77563    0.00110     0.77674
      H   22    0.22725      0.00000     0.77112    0.00163     0.77275
      H   23    0.22497      0.00000     0.77339    0.00165     0.77503
      H   24    0.22231      0.00000     0.77588    0.00180     0.77769
      H   25    0.22479      0.00000     0.77345    0.00176     0.77521
      H   26    0.23503      0.00000     0.76326    0.00171     0.76497
      H   27    0.22193      0.00000     0.77628    0.00179     0.77807
      H   28    0.23026      0.00000     0.76789    0.00185     0.76974
      H   29    0.23077      0.00000     0.76740    0.00183     0.76923
      H   30    0.23528      0.00000     0.76308    0.00164     0.76472
      H   31    0.25163      0.00000     0.74690    0.00147     0.74837
      H   32    0.22675      0.00000     0.77230    0.00095     0.77325
      H   33    0.22720      0.00000     0.77167    0.00114     0.77280
      H   34    0.22621      0.00000     0.77247    0.00133     0.77379
      H   35    0.23085      0.00000     0.76802    0.00113     0.76915
      H   36    0.23142      0.00000     0.76773    0.00085     0.76858
      H   37    0.24214      0.00000     0.75626    0.00160     0.75786
      H   38    0.23156      0.00000     0.76790    0.00053     0.76844
      H   39    0.21560      0.00000     0.78248    0.00192     0.78440
      H   40    0.21563      0.00000     0.78246    0.00191     0.78437
 =======================================================================
   * Total *   -0.00000     35.98531    95.73125    0.28344   132.00000

 Normal termination of Gaussian 09 at Fri Oct  1 04:40:19 2021.
