 Gaussian 09, Revision A.02,

 -----------------------------------
 #p opt b3lyp/6-31G* scf=(xqc,tight)
 -----------------------------------

 -----------------------------------
 O=C(c1ccccc1)Oc1cccc2c1cccc2_conf_0
 -----------------------------------
 Symbolic Z-matrix:
 Charge =  0 Multiplicity = 1

 SCF Done:  E(RB3LYP) =  -805.502013740     A.U. after   16 cycles
 SCF Done:  E(RB3LYP) =  -805.507498748     A.U. after   13 cycles
 SCF Done:  E(RB3LYP) =  -805.505879416     A.U. after   14 cycles
 SCF Done:  E(RB3LYP) =  -805.508108415     A.U. after   13 cycles
 SCF Done:  E(RB3LYP) =  -805.508556130     A.U. after   12 cycles
 SCF Done:  E(RB3LYP) =  -805.508662339     A.U. after   12 cycles
 SCF Done:  E(RB3LYP) =  -805.508698666     A.U. after   16 cycles
 SCF Done:  E(RB3LYP) =  -805.508712090     A.U. after   10 cycles
 SCF Done:  E(RB3LYP) =  -805.508722584     A.U. after   11 cycles
 SCF Done:  E(RB3LYP) =  -805.508730763     A.U. after   11 cycles
 SCF Done:  E(RB3LYP) =  -805.508733677     A.U. after   11 cycles
 SCF Done:  E(RB3LYP) =  -805.508733975     A.U. after    8 cycles
 Optimization completed.
    -- Stationary point found.
 Normal termination of Gaussian 09 at Wed Sep 29 17:50:16 2021.

 ----------------------------------------------------------------------
 #p freq b3lyp/6-31G* volume NMR pop=NPA density=current Geom=AllCheck
 Guess=Read
 ----------------------------------------------------------------------

 O=C(c1ccccc1)Oc1cccc2c1cccc2_conf_0
 -----------------------------------
 Redundant internal coordinates taken from checkpoint file:
 C17H12O2_6527_conf_0.chk
 Charge =  0 Multiplicity = 1

 SCF Done:  E(RB3LYP) =  -805.508733975     A.U. after    1 cycles

  1  O    Isotropic =   -40.1321   Anisotropy =   563.1952

  2  C    Isotropic =    34.0019   Anisotropy =    74.9950

  3  C    Isotropic =    66.0398   Anisotropy =   148.2118

  4  C    Isotropic =    66.3422   Anisotropy =   172.4676

  5  C    Isotropic =    68.2063   Anisotropy =   165.6607

  6  C    Isotropic =    63.4758   Anisotropy =   174.0733

  7  C    Isotropic =    67.9512   Anisotropy =   166.4419

  8  C    Isotropic =    63.4476   Anisotropy =   178.4439

  9  O    Isotropic =   118.7323   Anisotropy =   169.1396

 10  C    Isotropic =    48.9002   Anisotropy =    98.5000

 11  C    Isotropic =    75.6485   Anisotropy =   147.9303

 12  C    Isotropic =    70.4982   Anisotropy =   159.1355

 13  C    Isotropic =    70.5443   Anisotropy =   142.6505

 14  C    Isotropic =    62.3676   Anisotropy =   195.7173

 15  C    Isotropic =    69.3016   Anisotropy =   179.7211

 16  C    Isotropic =    72.9683   Anisotropy =   162.1830

 17  C    Isotropic =    70.3886   Anisotropy =   162.2083

 18  C    Isotropic =    70.1814   Anisotropy =   162.5987

 19  C    Isotropic =    67.7757   Anisotropy =   145.7375

 20  H    Isotropic =    23.8301   Anisotropy =     9.1399

 21  H    Isotropic =    24.7870   Anisotropy =     5.3024

 22  H    Isotropic =    24.7093   Anisotropy =     4.4737

 23  H    Isotropic =    24.7652   Anisotropy =     4.6951

 24  H    Isotropic =    23.8762   Anisotropy =     7.9870

 25  H    Isotropic =    24.7697   Anisotropy =     8.8336

 26  H    Isotropic =    24.7354   Anisotropy =     4.9280

 27  H    Isotropic =    24.6521   Anisotropy =     6.2073

 28  H    Isotropic =    24.0588   Anisotropy =    10.1762

 29  H    Isotropic =    24.7482   Anisotropy =     6.1848

 30  H    Isotropic =    24.7728   Anisotropy =     4.9151

 31  H    Isotropic =    24.5192   Anisotropy =     6.6566

  Exact polarizability: 258.409   4.330 197.610   0.958  -4.336  88.766
 Approx polarizability: 370.492   7.424 359.839   0.418 -14.524 153.548

                     1                      2                      3
                     A                      A                      A
 Frequencies --    16.8793                30.0309                56.2485
 Red. masses --     5.0699                 5.4831                 5.1662
 Frc consts  --     0.0009                 0.0029                 0.0096
 IR Inten    --     0.4105                 0.5119                 0.4968

                     4                      5                      6
                     A                      A                      A
 Frequencies --    68.7237               138.8238               164.7348
 Red. masses --     6.0771                 4.6120                 5.0912
 Frc consts  --     0.0169                 0.0524                 0.0814
 IR Inten    --     0.7455                 0.2394                 0.3797

                     7                      8                      9
                     A                      A                      A
 Frequencies --   178.1477               192.1380               243.1930
 Red. masses --     4.1420                 5.7392                 5.6050
 Frc consts  --     0.0774                 0.1248                 0.1953
 IR Inten    --     1.1011                 2.4140                 0.9540

                    10                     11                     12
                     A                      A                      A
 Frequencies --   293.9078               323.4058               416.8987
 Red. masses --     5.2444                 6.9335                 2.9818
 Frc consts  --     0.2669                 0.4273                 0.3053
 IR Inten    --     0.5419                11.7688                 0.0030

                    13                     14                     15
                     A                      A                      A
 Frequencies --   426.5445               440.7726               447.8298
 Red. masses --     3.9801                 4.3899                 4.3986
 Frc consts  --     0.4266                 0.5025                 0.5197
 IR Inten    --     2.4675                 0.8518                 0.4326

                    16                     17                     18
                     A                      A                      A
 Frequencies --   470.0207               479.3947               518.6894
 Red. masses --     5.2023                 3.5026                 7.2942
 Frc consts  --     0.6771                 0.4743                 1.1562
 IR Inten    --     0.4430                 0.0473                 2.3022

                    19                     20                     21
                     A                      A                      A
 Frequencies --   540.8428               576.8963               603.0421
 Red. masses --     6.8424                 3.6176                 7.7866
 Frc consts  --     1.1792                 0.7094                 1.6684
 IR Inten    --     0.1920                 3.7199                11.1226

                    22                     23                     24
                     A                      A                      A
 Frequencies --   632.1094               639.0252               691.9246
 Red. masses --     6.3851                 3.9375                 5.8903
 Frc consts  --     1.5032                 0.9473                 1.6615
 IR Inten    --     1.0656                 1.7246                 4.1485

                    25                     26                     27
                     A                      A                      A
 Frequencies --   695.8828               716.4565               748.8582
 Red. masses --     4.3877                 1.6252                 1.5220
 Frc consts  --     1.2519                 0.4915                 0.5029
 IR Inten    --     1.0970                67.7567                 1.4789

                    28                     29                     30
                     A                      A                      A
 Frequencies --   751.4710               787.3532               801.5857
 Red. masses --     4.0970                 2.1720                 3.7825
 Frc consts  --     1.3631                 0.7933                 1.4319
 IR Inten    --     5.8706                30.1872                 9.7053

                    31                     32                     33
                     A                      A                      A
 Frequencies --   807.5757               809.5514               853.9294
 Red. masses --     2.3153                 2.0316                 2.8679
 Frc consts  --     0.8897                 0.7845                 1.2321
 IR Inten    --    27.2836                15.4561                 6.7290

                    34                     35                     36
                     A                      A                      A
 Frequencies --   868.7889               885.3041               891.9919
 Red. masses --     1.2479                 2.4314                 3.2235
 Frc consts  --     0.5549                 1.1228                 1.5111
 IR Inten    --     0.1604                 2.4633                 2.4861

                    37                     38                     39
                     A                      A                      A
 Frequencies --   910.3006               957.1816               959.8806
 Red. masses --     1.6108                 1.3799                 1.3343
 Frc consts  --     0.7864                 0.7449                 0.7243
 IR Inten    --     0.8236                 1.4899                 0.2121

                    40                     41                     42
                     A                      A                      A
 Frequencies --   971.6139               985.7587               993.8573
 Red. masses --     1.2933                 1.3507                 1.2720
 Frc consts  --     0.7193                 0.7733                 0.7403
 IR Inten    --     0.9989                 0.1644                 0.0281

                    43                     44                     45
                     A                      A                      A
 Frequencies --  1009.8449              1019.4145              1037.0302
 Red. masses --     1.2735                 6.2821                 5.5369
 Frc consts  --     0.7651                 3.8464                 3.5083
 IR Inten    --     0.0873                 9.3317                12.3738

                    46                     47                     48
                     A                      A                      A
 Frequencies --  1051.0604              1059.9674              1093.8906
 Red. masses --     2.5587                 2.1294                 2.2423
 Frc consts  --     1.6654                 1.4096                 1.5809
 IR Inten    --    36.6008                 3.3515                87.0573

                    49                     50                     51
                     A                      A                      A
 Frequencies --  1111.0632              1129.2531              1178.9196
 Red. masses --     1.7050                 2.7618                 1.3893
 Frc consts  --     1.2401                 2.0751                 1.1377
 IR Inten    --    44.4446               221.9497                22.2571

                    52                     53                     54
                     A                      A                      A
 Frequencies --  1190.2486              1194.7215              1202.4464
 Red. masses --     1.1755                 1.1052                 1.3149
 Frc consts  --     0.9812                 0.9294                 1.1202
 IR Inten    --    36.0054                 0.9614                79.8449

                    55                     56                     57
                     A                      A                      A
 Frequencies --  1207.8745              1250.2689              1258.9355
 Red. masses --     1.1530                 2.2036                 2.2593
 Frc consts  --     0.9911                 2.0295                 2.1098
 IR Inten    --    47.9559                15.6697               345.2702

                    58                     59                     60
                     A                      A                      A
 Frequencies --  1279.9795              1294.1436              1351.4816
 Red. masses --     3.1572                 2.0987                 1.5898
 Frc consts  --     3.0476                 2.0709                 1.7109
 IR Inten    --   469.6276                10.3795                 3.4518

                    61                     62                     63
                     A                      A                      A
 Frequencies --  1368.1080              1394.9150              1416.8607
 Red. masses --     4.1114                 3.5894                 7.4499
 Frc consts  --     4.5340                 4.1149                 8.8116
 IR Inten    --     3.5749                 0.8461                 2.0129

                    64                     65                     66
                     A                      A                      A
 Frequencies --  1435.6420              1491.2124              1497.2263
 Red. masses --     2.0390                 2.1546                 2.2402
 Frc consts  --     2.4761                 2.8229                 2.9587
 IR Inten    --    47.3035                 7.2409                14.0589

                    67                     68                     69
                     A                      A                      A
 Frequencies --  1510.0200              1540.7585              1563.9572
 Red. masses --     2.4520                 2.2178                 3.4824
 Frc consts  --     3.2941                 3.1020                 5.0185
 IR Inten    --     9.8383                 0.7711                11.0797

                    70                     71                     72
                     A                      A                      A
 Frequencies --  1629.7726              1641.3641              1658.2621
 Red. masses --     7.0650                 5.6565                 5.1114
 Frc consts  --    11.0565                 8.9786                 8.2812
 IR Inten    --    15.9535                 3.5334                21.6422

                    73                     74                     75
                     A                      A                      A
 Frequencies --  1661.4620              1686.8509              1816.8851
 Red. masses --     5.5381                 6.3476                12.9626
 Frc consts  --     9.0073                10.6418                25.2114
 IR Inten    --    11.9996                 2.6012               208.6406

                    76                     77                     78
                     A                      A                      A
 Frequencies --  3180.2871              3186.4741              3187.6129
 Red. masses --     1.0862                 1.0870                 1.0859
 Frc consts  --     6.4731                 6.5031                 6.5007
 IR Inten    --     0.9647                 1.8791                 0.2711

                    79                     80                     81
                     A                      A                      A
 Frequencies --  3192.0187              3199.9367              3205.8574
 Red. masses --     1.0895                 1.0900                 1.0946
 Frc consts  --     6.5408                 6.5760                 6.6280
 IR Inten    --    16.1184                14.9054                31.0461

                    82                     83                     84
                     A                      A                      A
 Frequencies --  3206.8628              3209.9232              3225.6178
 Red. masses --     1.0946                 1.0949                 1.0934
 Frc consts  --     6.6321                 6.6468                 6.7027
 IR Inten    --    34.1284                25.3141                10.6043

                    85                     86                     87
                     A                      A                      A
 Frequencies --  3228.3252              3235.1391              3241.9452
 Red. masses --     1.0932                 1.0928                 1.0931
 Frc consts  --     6.7128                 6.7389                 6.7692
 IR Inten    --     6.1846                 3.0511                 3.9338

 - Thermochemistry -
 -------------------
 Temperature   298.150 Kelvin.  Pressure   1.00000 Atm.
 Atom     1 has atomic number  8 and mass  15.99491

 Molecular mass:   248.08373 amu.
 Principal axes and moments of inertia in atomic units:
                           1         2         3
     Eigenvalues --  2076.119018876.76775**********
           X            1.00000   0.00306  -0.00079
           Y           -0.00306   0.99999   0.00153
           Z            0.00080  -0.00153   1.00000
 This molecule is an asymmetric top.
 Rotational symmetry number  1.
 Warning -- assumption of classical behavior for rotation
           may cause significant error
 Rotational temperatures (Kelvin)      0.04172     0.00976     0.00835
 Rotational constants (GHZ):           0.86929     0.20331     0.17405
 Zero-point vibrational energy     638335.8 (Joules/Mol)
                                  152.56591 (Kcal/Mol)
 Warning -- explicit consideration of  21 degrees of freedom as
           vibrations may cause significant error
 Vibrational temperatures:     24.29    43.21    80.93    98.88   199.74
          (Kelvin)            237.02   256.31   276.44   349.90   422.87
                              465.31   599.82   613.70   634.17   644.33
                              676.25   689.74   746.28   778.15   830.02
                              867.64   909.46   919.41   995.52  1001.22
                             1030.82  1077.44  1081.20  1132.82  1153.30
                             1161.92  1164.76  1228.61  1249.99  1273.75
                             1283.38  1309.72  1377.17  1381.05  1397.93
                             1418.29  1429.94  1452.94  1466.71  1492.05
                             1512.24  1525.05  1573.86  1598.57  1624.74
                             1696.20  1712.50  1718.94  1730.05  1737.86
                             1798.86  1811.33  1841.60  1861.98  1944.48
                             1968.40  2006.97  2038.54  2065.57  2145.52
                             2154.17  2172.58  2216.81  2250.18  2344.88
                             2361.55  2385.87  2390.47  2427.00  2614.09
                             4575.72  4584.62  4586.26  4592.60  4603.99
                             4612.51  4613.95  4618.36  4640.94  4644.83
                             4654.64  4664.43

 Zero-point correction=                           0.243129 (Hartree/Particle)
 Thermal correction to Energy=                    0.257526
 Thermal correction to Enthalpy=                  0.258470
 Thermal correction to Gibbs Free Energy=         0.199380
 Sum of electronic and zero-point Energies=           -805.265605
 Sum of electronic and thermal Energies=              -805.251208
 Sum of electronic and thermal Enthalpies=            -805.250263
 Sum of electronic and thermal Free Energies=         -805.309354

                     E (Thermal)             CV                S
                      KCal/Mol        Cal/Mol-Kelvin    Cal/Mol-Kelvin
 Total                  161.600             57.631            124.367
 Electronic               0.000              0.000              0.000
 Translational            0.889              2.981             42.426
 Rotational               0.889              2.981             33.613
 Vibrational            159.823             51.669             48.328
 Vibration     1          0.593              1.986              6.971
 Vibration     2          0.594              1.984              5.827
 Vibration     3          0.596              1.975              4.585
 Vibration     4          0.598              1.969              4.190
 Vibration     5          0.614              1.915              2.820
 Vibration     6          0.623              1.886              2.495
 Vibration     7          0.629              1.869              2.348
 Vibration     8          0.634              1.851              2.207
 Vibration     9          0.659              1.774              1.779
 Vibration    10          0.689              1.685              1.451
 Vibration    11          0.708              1.629              1.293
 Vibration    12          0.780              1.434              0.903
 Vibration    13          0.788              1.412              0.870
 Vibration    14          0.801              1.381              0.824
 Vibration    15          0.807              1.366              0.802
 Vibration    16          0.827              1.317              0.737
 Vibration    17          0.836              1.296              0.712
 Vibration    18          0.874              1.209              0.613
 Vibration    19          0.896              1.160              0.563
 Vibration    20          0.933              1.081              0.491
 Vibration    21          0.961              1.025              0.444

 Optimization completed.
    -- Stationary point found.
 Normal termination of Gaussian 09 at Wed Sep 29 19:26:58 2021.
 Gaussian 09:  AM64L-G09RevA.02 11-Jun-2009

 ----------------------------------------------------------------------
 #p TD(NStates=10, Root=1) b3lyp/6-31G* volume pop=NPA density=current
 Geom=AllCheck Guess=Read
 ----------------------------------------------------------------------

 O=C(c1ccccc1)Oc1cccc2c1cccc2_conf_0
 -----------------------------------
 Redundant internal coordinates taken from checkpoint file:
 C17H12O2_6527_conf_0.chk
 Charge =  0 Multiplicity = 1

                         Standard orientation:
 ---------------------------------------------------------------------
 Center     Atomic      Atomic             Coordinates (Angstroms)
 Number     Number       Type             X           Y           Z
 ---------------------------------------------------------------------
      1          8           0        1.143867   -1.798260    1.066319
      2          6           0        1.321496   -0.857199    0.327526
      3          6           0        2.635248   -0.198741    0.089492
      4          6           0        2.802018    0.853509   -0.822489
      5          6           0        4.060431    1.426206   -0.998663
      6          6           0        5.154178    0.955253   -0.268377
      7          6           0        4.990815   -0.094107    0.640123
      8          6           0        3.736447   -0.671046    0.817987
      9          8           0        0.323580   -0.255112   -0.398896
     10          6           0       -0.992364   -0.712291   -0.317859
     11          6           0       -1.320726   -2.026521   -0.552684
     12          6           0       -2.679722   -2.417755   -0.533222
     13          6           0       -3.673267   -1.497829   -0.289378
     14          6           0       -3.354137   -0.134998   -0.048833
     15          6           0       -1.981127    0.278058   -0.058115
     16          6           0       -1.664501    1.640593    0.188311
     17          6           0       -2.662851    2.556557    0.433199
     18          6           0       -4.020715    2.155009    0.441028
     19          6           0       -4.355083    0.841024    0.205757
     20          1           0        1.950590    1.212847   -1.389147
     21          1           0        4.188163    2.240369   -1.706607
     22          1           0        6.133650    1.405096   -0.407780
     23          1           0        5.841219   -0.461375    1.207736
     24          1           0        3.586199   -1.487672    1.516352
     25          1           0       -0.542043   -2.754839   -0.743085
     26          1           0       -2.930106   -3.458801   -0.715969
     27          1           0       -4.716757   -1.802144   -0.277156
     28          1           0       -0.624094    1.946625    0.183118
     29          1           0       -2.408881    3.595902    0.623072
     30          1           0       -4.798055    2.889149    0.634787
     31          1           0       -5.396309    0.527496    0.212470
 ---------------------------------------------------------------------

 SCF Done:  E(RB3LYP) =  -805.508733975     A.U. after    2 cycles

 Excitation energies and oscillator strengths:

 Excited State   1:      Singlet-A      3.7888 eV  327.24 nm  f=0.0790  <S**2>=0.000
      65 -> 66         0.69965
 This state for optimization and/or second-order correction.
 Total Energy, E(TD-HF/TD-KS) =  -805.369496919
 Copying the excited state density for this state as the 1-particle RhoCI density.

 Excited State   2:      Singlet-A      4.3981 eV  281.90 nm  f=0.0750  <S**2>=0.000
      64 -> 66         0.10915
      64 -> 69         0.13496
      65 -> 67         0.66842

 Excited State   3:      Singlet-A      4.4275 eV  280.03 nm  f=0.0030  <S**2>=0.000
      64 -> 66         0.44617
      64 -> 67         0.28324
      65 -> 67        -0.14383
      65 -> 69        -0.43595

 Excited State   4:      Singlet-A      4.6950 eV  264.08 nm  f=0.0074  <S**2>=0.000
      60 -> 66        -0.34403
      61 -> 66        -0.23319
      64 -> 66         0.37384
      64 -> 67        -0.33338
      65 -> 69         0.24738

 Excited State   5:      Singlet-A      4.9121 eV  252.41 nm  f=0.0039  <S**2>=0.000
      60 -> 66         0.41643
      61 -> 66         0.30010
      63 -> 66        -0.15895
      64 -> 66         0.34130
      64 -> 67        -0.23074
      65 -> 69         0.10789

 Excited State   6:      Singlet-A      4.9212 eV  251.94 nm  f=0.0091  <S**2>=0.000
      60 -> 66         0.10656
      61 -> 66         0.10546
      62 -> 66         0.20209
      62 -> 68        -0.23681
      63 -> 66         0.52670
      65 -> 68        -0.26760

 Excited State   7:      Singlet-A      5.0439 eV  245.81 nm  f=0.0045  <S**2>=0.000
      62 -> 66         0.11657
      62 -> 68        -0.10973
      63 -> 66         0.21872
      65 -> 68         0.64869

 Excited State   8:      Singlet-A      5.3169 eV  233.19 nm  f=0.2760  <S**2>=0.000
      60 -> 66         0.14708
      61 -> 66        -0.26035
      62 -> 66         0.56791
      63 -> 66        -0.21086

 Excited State   9:      Singlet-A      5.5050 eV  225.22 nm  f=0.0258  <S**2>=0.000
      60 -> 66        -0.34900
      61 -> 66         0.47386
      62 -> 66         0.23436
      63 -> 66        -0.15299
      63 -> 67        -0.13678
      65 -> 70        -0.16734

 Excited State  10:      Singlet-A      5.6643 eV  218.89 nm  f=0.0048  <S**2>=0.000
      61 -> 66         0.10076
      62 -> 66         0.10154
      62 -> 67         0.21520
      62 -> 68         0.12935
      63 -> 66         0.13424
      63 -> 67         0.62309

 The electronic state is 1-A.
 Alpha  occ. eigenvalues --  -19.20276 -19.14047 -10.32388 -10.25207 -10.21026
 Alpha  occ. eigenvalues --  -10.20572 -10.20451 -10.20202 -10.20176 -10.20155
 Alpha  occ. eigenvalues --  -10.20106 -10.20063 -10.19394 -10.19240 -10.19229
 Alpha  occ. eigenvalues --  -10.19194 -10.19161 -10.19095 -10.19047  -1.10885
 Alpha  occ. eigenvalues --   -1.02529  -0.87425  -0.86575  -0.82185  -0.78428
 Alpha  occ. eigenvalues --   -0.76355  -0.75610  -0.74337  -0.72243  -0.66766
 Alpha  occ. eigenvalues --   -0.62699  -0.61919  -0.61646  -0.60271  -0.56244
 Alpha  occ. eigenvalues --   -0.54007  -0.51953  -0.50524  -0.49598  -0.48518
 Alpha  occ. eigenvalues --   -0.47190  -0.46175  -0.45534  -0.44599  -0.43429
 Alpha  occ. eigenvalues --   -0.43213  -0.42847  -0.41960  -0.40691  -0.40312
 Alpha  occ. eigenvalues --   -0.38513  -0.37519  -0.36989  -0.36539  -0.35298
 Alpha  occ. eigenvalues --   -0.34860  -0.33834  -0.32799  -0.31577  -0.28138
 Alpha  occ. eigenvalues --   -0.27462  -0.26329  -0.26146  -0.24421  -0.21211
 Alpha virt. eigenvalues --   -0.05341  -0.03536  -0.01052  -0.00941   0.03453
 Alpha virt. eigenvalues --    0.05587   0.08659   0.09707   0.10018   0.10662
 Alpha virt. eigenvalues --    0.12934   0.13841   0.14309   0.16293   0.16731

 Mulliken atomic charges:
              1
     1  O   -0.553603
     2  C    0.462404
     3  C    0.038879
     4  C   -0.207378
     5  C   -0.136553
     6  C   -0.167839
     7  C   -0.140329
     8  C   -0.186640
     9  O   -0.546213
    10  C    0.370941
    11  C   -0.110423
    12  C   -0.133994
    13  C   -0.150304
    14  C    0.123232
    15  C    0.072629
    16  C   -0.134326
    17  C   -0.122612
    18  C   -0.112866
    19  C   -0.167206
    20  H    0.082156
    21  H    0.085695
    22  H    0.082193
    23  H    0.092488
    24  H    0.116245
    25  H    0.219795
    26  H    0.182690
    27  H    0.174171
    28  H    0.232994
    29  H    0.183189
    30  H    0.175523
    31  H    0.175061
 Sum of Mulliken atomic charges =  -0.00000

 Dipole moment (field-independent basis, Debye):
    X=            -16.5820    Y=              1.7921    Z=             -1.4848  Tot=             16.7445
 Quadrupole moment (field-independent basis, Debye-Ang):
   XX=            -98.0988   YY=            -93.4509   ZZ=           -112.8280
   XY=             -0.9896   XZ=             -0.8032   YZ=              7.2967

 Summary of Natural Population Analysis:

                                       Natural Population
                Natural  -----------------------------------------------
    Atom  No    Charge         Core      Valence    Rydberg      Total
 -----------------------------------------------------------------------
      O    1   -0.67448      1.99979     6.65546    0.01923     8.67448
      C    2    0.68468      1.99929     3.27193    0.04410     5.31532
      C    3   -0.23364      1.99890     4.21734    0.01741     6.23364
      C    4   -0.26835      1.99906     4.25582    0.01347     6.26835
      C    5   -0.24435      1.99910     4.23099    0.01425     6.24435
      C    6   -0.31883      1.99910     4.30424    0.01549     6.31883
      C    7   -0.24431      1.99910     4.23123    0.01399     6.24431
      C    8   -0.23909      1.99906     4.22498    0.01504     6.23909
      O    9   -0.56384      1.99969     6.55395    0.01020     8.56384
      C   10    0.48072      1.99870     3.49785    0.02273     5.51928
      C   11   -0.21328      1.99899     4.19927    0.01502     6.21328
      C   12   -0.18826      1.99913     4.17490    0.01423     6.18826
      C   13   -0.12698      1.99906     4.11470    0.01322     6.12698
      C   14   -0.07680      1.99904     4.06379    0.01398     6.07680
      C   15   -0.11099      1.99894     4.09782    0.01422     6.11099
      C   16   -0.09375      1.99907     4.08046    0.01422     6.09375
      C   17   -0.19839      1.99912     4.18529    0.01399     6.19839
      C   18   -0.20211      1.99911     4.18896    0.01403     6.20211
      C   19   -0.12276      1.99906     4.11055    0.01315     6.12276
      H   20    0.21292      0.00000     0.78634    0.00074     0.78708
      H   21    0.21457      0.00000     0.78460    0.00082     0.78543
      H   22    0.21311      0.00000     0.78617    0.00072     0.78689
      H   23    0.21819      0.00000     0.78100    0.00082     0.78181
      H   24    0.23515      0.00000     0.76355    0.00130     0.76485
      H   25    0.29241      0.00000     0.70668    0.00091     0.70759
      H   26    0.26169      0.00000     0.73777    0.00053     0.73831
      H   27    0.25035      0.00000     0.74878    0.00088     0.74965
      H   28    0.28630      0.00000     0.71279    0.00092     0.71370
      H   29    0.26117      0.00000     0.73836    0.00048     0.73883
      H   30    0.25805      0.00000     0.74140    0.00055     0.74195
      H   31    0.25092      0.00000     0.74818    0.00090     0.74908
 =======================================================================
   * Total *   -0.00000     37.98331    91.69515    0.32154   130.00000

 Normal termination of Gaussian 09 at Thu Sep 30 01:47:21 2021.
