 Gaussian 09, Revision A.02,

 -----------------------------------
 #p opt b3lyp/6-31G* scf=(xqc,tight)
 -----------------------------------

 ---------------------------------------
 O=C(C(C)(C)C)Oc1ccc(cc1)c1ccccc1_conf_0
 ---------------------------------------
 Symbolic Z-matrix:
 Charge =  0 Multiplicity = 1

 SCF Done:  E(RB3LYP) =  -809.119864278     A.U. after   15 cycles
 SCF Done:  E(RB3LYP) =  -809.123289753     A.U. after   12 cycles
 SCF Done:  E(RB3LYP) =  -809.123733736     A.U. after   12 cycles
 SCF Done:  E(RB3LYP) =  -809.121684404     A.U. after   15 cycles
 SCF Done:  E(RB3LYP) =  -809.123888179     A.U. after   14 cycles
 SCF Done:  E(RB3LYP) =  -809.124085675     A.U. after   11 cycles
 SCF Done:  E(RB3LYP) =  -809.124208523     A.U. after   14 cycles
 SCF Done:  E(RB3LYP) =  -809.124379245     A.U. after   11 cycles
 SCF Done:  E(RB3LYP) =  -809.124411574     A.U. after   11 cycles
 SCF Done:  E(RB3LYP) =  -809.124416365     A.U. after   10 cycles
 SCF Done:  E(RB3LYP) =  -809.124432590     A.U. after   16 cycles
 SCF Done:  E(RB3LYP) =  -809.123788898     A.U. after   16 cycles
 SCF Done:  E(RB3LYP) =  -809.124446886     A.U. after   15 cycles
 SCF Done:  E(RB3LYP) =  -809.124218601     A.U. after   13 cycles
 SCF Done:  E(RB3LYP) =  -809.124390072     A.U. after   12 cycles
 SCF Done:  E(RB3LYP) =  -809.124451378     A.U. after   12 cycles
 SCF Done:  E(RB3LYP) =  -809.124453659     A.U. after    9 cycles
 SCF Done:  E(RB3LYP) =  -809.124453325     A.U. after    8 cycles
 Optimization completed.
    -- Stationary point found.
 Normal termination of Gaussian 09 at Wed Sep 29 08:46:11 2021.

 ----------------------------------------------------------------------
 #p freq b3lyp/6-31G* volume NMR pop=NPA density=current Geom=AllCheck
 Guess=Read
 ----------------------------------------------------------------------

 O=C(C(C)(C)C)Oc1ccc(cc1)c1ccccc1_conf_0
 ---------------------------------------
 Redundant internal coordinates taken from checkpoint file:
 C17H18O2_abb6_conf_0.chk
 Charge =  0 Multiplicity = 1

 SCF Done:  E(RB3LYP) =  -809.124453325     A.U. after    1 cycles

  1  O    Isotropic =   -63.3476   Anisotropy =   576.4850

  2  C    Isotropic =    22.7939   Anisotropy =    76.4516

  3  C    Isotropic =   148.8921   Anisotropy =    24.1546

  4  C    Isotropic =   162.0934   Anisotropy =    37.9599

  5  C    Isotropic =   162.1932   Anisotropy =    37.3572

  6  C    Isotropic =   162.8383   Anisotropy =    31.2166

  7  O    Isotropic =   109.9148   Anisotropy =   164.4813

  8  C    Isotropic =    45.5514   Anisotropy =   109.6000

  9  C    Isotropic =    72.7128   Anisotropy =   152.7231

 10  C    Isotropic =    68.0709   Anisotropy =   151.3674

 11  C    Isotropic =    56.9136   Anisotropy =   172.7812

 12  C    Isotropic =    68.0355   Anisotropy =   151.5240

 13  C    Isotropic =    75.6042   Anisotropy =   139.3976

 14  C    Isotropic =    54.5189   Anisotropy =   175.9820

 15  C    Isotropic =    68.9404   Anisotropy =   154.1872

 16  C    Isotropic =    67.7267   Anisotropy =   164.8405

 17  C    Isotropic =    69.5596   Anisotropy =   165.6525

 18  C    Isotropic =    67.6862   Anisotropy =   164.8009

 19  C    Isotropic =    68.8655   Anisotropy =   154.1453

 20  H    Isotropic =    30.3536   Anisotropy =     7.2654

 21  H    Isotropic =    30.8665   Anisotropy =     8.0377

 22  H    Isotropic =    31.1109   Anisotropy =     7.8868

 23  H    Isotropic =    30.4181   Anisotropy =     6.1273

 24  H    Isotropic =    31.0963   Anisotropy =     7.8877

 25  H    Isotropic =    30.8290   Anisotropy =     8.1545

 26  H    Isotropic =    30.6740   Anisotropy =     7.8785

 27  H    Isotropic =    30.6233   Anisotropy =     8.1146

 28  H    Isotropic =    31.4828   Anisotropy =     7.8329

 29  H    Isotropic =    24.8091   Anisotropy =     9.2207

 30  H    Isotropic =    24.8196   Anisotropy =     8.4438

 31  H    Isotropic =    24.8442   Anisotropy =     8.2946

 32  H    Isotropic =    25.3375   Anisotropy =     7.2077

 33  H    Isotropic =    24.8477   Anisotropy =     8.7430

 34  H    Isotropic =    24.8916   Anisotropy =     4.9997

 35  H    Isotropic =    24.9929   Anisotropy =     4.1685

 36  H    Isotropic =    24.8963   Anisotropy =     4.9932

 37  H    Isotropic =    24.8421   Anisotropy =     8.7133

  Exact polarizability: 294.244  -1.697 163.344   5.076   7.428 104.945
 Approx polarizability: 374.177  -3.587 286.628  11.753   9.361 168.117

                     1                      2                      3
                     A                      A                      A
 Frequencies --    18.1987                27.5378                41.9582
 Red. masses --     3.3867                 4.8058                 4.4296
 Frc consts  --     0.0007                 0.0021                 0.0046
 IR Inten    --     0.2438                 0.2193                 0.7082

                     4                      5                      6
                     A                      A                      A
 Frequencies --    54.8306                72.9274               100.5270
 Red. masses --     5.7256                 3.9974                 4.9387
 Frc consts  --     0.0101                 0.0125                 0.0294
 IR Inten    --     0.5187                 0.0508                 0.2573

                     7                      8                      9
                     A                      A                      A
 Frequencies --   121.2304               170.1670               200.5299
 Red. masses --     4.6682                 4.6396                 1.2527
 Frc consts  --     0.0404                 0.0792                 0.0297
 IR Inten    --     0.3627                 0.3161                 0.1970

                    10                     11                     12
                     A                      A                      A
 Frequencies --   213.0509               229.1603               261.9406
 Red. masses --     2.9644                 1.6952                 1.0599
 Frc consts  --     0.0793                 0.0524                 0.0428
 IR Inten    --     0.3706                 0.5300                 0.1059

                    13                     14                     15
                     A                      A                      A
 Frequencies --   274.6693               293.3002               328.9922
 Red. masses --     1.3756                 3.4473                 4.6631
 Frc consts  --     0.0611                 0.1747                 0.2974
 IR Inten    --     0.3125                 4.2744                 0.9812

                    16                     17                     18
                     A                      A                      A
 Frequencies --   340.7446               353.6076               375.3576
 Red. masses --     3.6541                 2.9788                 2.7238
 Frc consts  --     0.2500                 0.2194                 0.2261
 IR Inten    --     0.2026                 4.7798                 1.8702

                    19                     20                     21
                     A                      A                      A
 Frequencies --   385.0158               417.7955               426.4066
 Red. masses --     4.7143                 3.0295                 3.1396
 Frc consts  --     0.4117                 0.3116                 0.3363
 IR Inten    --     6.3121                 0.6783                 0.2026

                    22                     23                     24
                     A                      A                      A
 Frequencies --   448.7398               463.4205               517.3947
 Red. masses --     4.5168                 3.4239                 3.4694
 Frc consts  --     0.5359                 0.4332                 0.5472
 IR Inten    --     0.4428                 2.8176                 7.1813

                    25                     26                     27
                     A                      A                      A
 Frequencies --   562.6625               578.2533               621.2311
 Red. masses --     2.7324                 4.2658                 5.0285
 Frc consts  --     0.5097                 0.8404                 1.1434
 IR Inten    --     2.4318                 0.8874                 9.6783

                    28                     29                     30
                     A                      A                      A
 Frequencies --   632.5772               652.6998               714.1571
 Red. masses --     6.4075                 6.7148                 2.0287
 Frc consts  --     1.5107                 1.6854                 0.6096
 IR Inten    --     0.4202                 0.9614                18.0295

                    31                     32                     33
                     A                      A                      A
 Frequencies --   724.4079               734.5715               757.8470
 Red. masses --     3.8520                 4.7522                 6.2922
 Frc consts  --     1.1910                 1.5108                 2.1292
 IR Inten    --     6.8577                 2.2366                 4.6417

                    34                     35                     36
                     A                      A                      A
 Frequencies --   776.0253               809.2639               834.8286
 Red. masses --     1.9397                 3.3462                 3.6527
 Frc consts  --     0.6882                 1.2912                 1.4999
 IR Inten    --    37.7469                 2.1793                 8.0019

                    37                     38                     39
                     A                      A                      A
 Frequencies --   836.8971               860.2075               863.0671
 Red. masses --     1.2790                 1.3929                 1.8578
 Frc consts  --     0.5278                 0.6073                 0.8153
 IR Inten    --     0.2643                 6.0336                14.5500

                    40                     41                     42
                     A                      A                      A
 Frequencies --   907.5108               929.1934               948.5110
 Red. masses --     3.4689                 1.4197                 1.7560
 Frc consts  --     1.6832                 0.7222                 0.9308
 IR Inten    --    18.0938                 0.9169                 1.3610

                    43                     44                     45
                     A                      A                      A
 Frequencies --   956.8015               960.9456               962.4278
 Red. masses --     1.6301                 1.3304                 1.3167
 Frc consts  --     0.8793                 0.7238                 0.7186
 IR Inten    --     3.6985                 1.1757                 0.4435

                    46                     47                     48
                     A                      A                      A
 Frequencies --   969.7934               981.1205               995.5339
 Red. masses --     1.3463                 1.1980                 1.2467
 Frc consts  --     0.7460                 0.6795                 0.7280
 IR Inten    --     0.2773                 0.0099                 0.1104

                    49                     50                     51
                     A                      A                      A
 Frequencies --  1017.0396              1025.8550              1044.4511
 Red. masses --     6.0115                 6.2120                 2.6570
 Frc consts  --     3.6636                 3.8517                 1.7077
 IR Inten    --     1.2021                24.0754                 0.8035

                    52                     53                     54
                     A                      A                      A
 Frequencies --  1059.1671              1060.5829              1070.5647
 Red. masses --     1.4798                 1.4335                 1.8772
 Frc consts  --     0.9781                 0.9500                 1.2676
 IR Inten    --    39.5451                 3.0811                 0.6710

                    55                     56                     57
                     A                      A                      A
 Frequencies --  1113.5708              1142.1802              1147.3333
 Red. masses --     1.6095                 1.3181                 3.9419
 Frc consts  --     1.1759                 1.0132                 3.0573
 IR Inten    --     3.7154                 9.7399               606.2200

                    58                     59                     60
                     A                      A                      A
 Frequencies --  1193.3870              1202.1170              1217.7829
 Red. masses --     1.0966                 1.3149                 1.1666
 Frc consts  --     0.9201                 1.1195                 1.0193
 IR Inten    --     0.0689               135.9205                14.2668

                    61                     62                     63
                     A                      A                      A
 Frequencies --  1242.1789              1242.9205              1265.0243
 Red. masses --     2.6608                 2.6970                 2.8909
 Frc consts  --     2.4190                 2.4548                 2.7258
 IR Inten    --   204.0249                67.9247                46.8439

                    64                     65                     66
                     A                      A                      A
 Frequencies --  1308.3499              1313.3840              1314.9997
 Red. masses --     3.1514                 3.3927                 2.7908
 Frc consts  --     3.1783                 3.4481                 2.8434
 IR Inten    --    43.1060                 1.9252                17.5559

                    67                     68                     69
                     A                      A                      A
 Frequencies --  1342.7906              1349.6207              1370.8542
 Red. masses --     1.8217                 3.7164                 1.7222
 Frc consts  --     1.9353                 3.9884                 1.9069
 IR Inten    --     2.2658                 3.1582                 1.2949

                    70                     71                     72
                     A                      A                      A
 Frequencies --  1422.3560              1430.0447              1450.4865
 Red. masses --     1.2080                 1.2321                 2.8366
 Frc consts  --     1.4399                 1.4846                 3.5162
 IR Inten    --     3.8730                 4.8586                 4.7280

                    73                     74                     75
                     A                      A                      A
 Frequencies --  1458.6803              1497.0260              1507.4916
 Red. masses --     1.2228                 2.3727                 1.0484
 Frc consts  --     1.5329                 3.1329                 1.4038
 IR Inten    --    17.5543                 3.3502                 0.0470

                    76                     77                     78
                     A                      A                      A
 Frequencies --  1515.2833              1520.9424              1529.0917
 Red. masses --     1.0452                 1.0453                 1.0496
 Frc consts  --     1.4139                 1.4246                 1.4459
 IR Inten    --     0.2445                 0.0238                 5.7290

                    79                     80                     81
                     A                      A                      A
 Frequencies --  1531.7136              1538.3761              1550.5356
 Red. masses --     1.0575                 2.1023                 1.0746
 Frc consts  --     1.4618                 2.9313                 1.5222
 IR Inten    --    10.4549                95.2936                28.4558

                    82                     83                     84
                     A                      A                      A
 Frequencies --  1562.9143              1625.6525              1642.3060
 Red. masses --     2.5681                 5.6617                 6.3410
 Frc consts  --     3.6961                 8.8156                10.0767
 IR Inten    --    41.5881                 0.6102                 2.8316

                    85                     86                     87
                     A                      A                      A
 Frequencies --  1661.5819              1665.6141              1830.8370
 Red. masses --     5.5741                 5.8028                12.6733
 Frc consts  --     9.0671                 9.4850                25.0287
 IR Inten    --    17.6787                 4.3779               181.1450

                    88                     89                     90
                     A                      A                      A
 Frequencies --  3050.1089              3052.4296              3061.4842
 Red. masses --     1.0356                 1.0362                 1.0366
 Frc consts  --     5.6766                 5.6883                 5.7244
 IR Inten    --    27.7552                11.1044                29.8240

                    91                     92                     93
                     A                      A                      A
 Frequencies --  3113.5518              3115.7441              3129.0871
 Red. masses --     1.1031                 1.1024                 1.1016
 Frc consts  --     6.3007                 6.3053                 6.3550
 IR Inten    --    12.1132                25.9289                41.4275

                    94                     95                     96
                     A                      A                      A
 Frequencies --  3138.9599              3140.1550              3143.5092
 Red. masses --     1.1026                 1.1020                 1.1010
 Frc consts  --     6.4007                 6.4022                 6.4099
 IR Inten    --     7.2636                16.5885                46.0610

                    97                     98                     99
                     A                      A                      A
 Frequencies --  3180.4445              3186.4392              3195.5329
 Red. masses --     1.0846                 1.0873                 1.0902
 Frc consts  --     6.4639                 6.5043                 6.5591
 IR Inten    --     5.5649                 2.1580                27.5048

                   100                    101                    102
                     A                      A                      A
 Frequencies --  3198.9198              3201.8238              3204.2742
 Red. masses --     1.0900                 1.0905                 1.0913
 Frc consts  --     6.5720                 6.5869                 6.6016
 IR Inten    --     5.5411                 5.8903                30.0400

                   103                    104                    105
                     A                      A                      A
 Frequencies --  3211.2175              3217.9295              3248.7799
 Red. masses --     1.0978                 1.0944                 1.0931
 Frc consts  --     6.6698                 6.6767                 6.7974
 IR Inten    --    25.3189                 7.6844                 3.8254

 - Thermochemistry -
 -------------------
 Temperature   298.150 Kelvin.  Pressure   1.00000 Atm.
 Atom     1 has atomic number  8 and mass  15.99491

 Molecular mass:   254.13068 amu.
 Principal axes and moments of inertia in atomic units:
                           1         2         3
     Eigenvalues --  1221.94941********************
           X            1.00000  -0.00162   0.00233
           Y            0.00153   0.99925   0.03858
           Z           -0.00239  -0.03858   0.99925
 This molecule is an asymmetric top.
 Rotational symmetry number  1.
 Warning -- assumption of classical behavior for rotation
           may cause significant error
 Rotational temperatures (Kelvin)      0.07088     0.00629     0.00611
 Rotational constants (GHZ):           1.47694     0.13102     0.12731
 Zero-point vibrational energy     810371.4 (Joules/Mol)
                                  193.68341 (Kcal/Mol)
 Warning -- explicit consideration of  26 degrees of freedom as
           vibrations may cause significant error
 Vibrational temperatures:     26.18    39.62    60.37    78.89   104.93
          (Kelvin)            144.64   174.42   244.83   288.52   306.53
                              329.71   376.87   395.19   421.99   473.35
                              490.25   508.76   540.06   553.95   601.11
                              613.50   645.64   666.76   744.41   809.54
                              831.98   893.81   910.14   939.09  1027.51
                             1042.26  1056.88  1090.37  1116.53  1164.35
                             1201.13  1204.11  1237.65  1241.76  1305.70
                             1336.90  1364.69  1376.62  1382.58  1384.72
                             1395.31  1411.61  1432.35  1463.29  1475.97
                             1502.73  1523.90  1525.94  1540.30  1602.18
                             1643.34  1650.75  1717.02  1729.58  1752.12
                             1787.22  1788.28  1820.09  1882.42  1889.66
                             1891.99  1931.97  1941.80  1972.35  2046.45
                             2057.51  2086.92  2098.71  2153.88  2168.94
                             2180.15  2188.29  2200.02  2203.79  2213.38
                             2230.87  2248.68  2338.95  2362.91  2390.64
                             2396.44  2634.16  4388.42  4391.76  4404.79
                             4479.70  4482.86  4502.05  4516.26  4517.98
                             4522.80  4575.94  4584.57  4597.65  4602.53
                             4606.70  4610.23  4620.22  4629.88  4674.26

 Zero-point correction=                           0.308654 (Hartree/Particle)
 Thermal correction to Energy=                    0.326295
 Thermal correction to Enthalpy=                  0.327239
 Thermal correction to Gibbs Free Energy=         0.261247
 Sum of electronic and zero-point Energies=           -808.815799
 Sum of electronic and thermal Energies=              -808.798159
 Sum of electronic and thermal Enthalpies=            -808.797215
 Sum of electronic and thermal Free Energies=         -808.863206

                     E (Thermal)             CV                S
                      KCal/Mol        Cal/Mol-Kelvin    Cal/Mol-Kelvin
 Total                  204.753             68.227            138.892
 Electronic               0.000              0.000              0.000
 Translational            0.889              2.981             42.498
 Rotational               0.889              2.981             33.833
 Vibrational            202.975             62.265             62.560
 Vibration     1          0.593              1.986              6.822
 Vibration     2          0.593              1.984              5.999
 Vibration     3          0.595              1.980              5.164
 Vibration     4          0.596              1.976              4.635
 Vibration     5          0.599              1.967              4.073
 Vibration     6          0.604              1.949              3.444
 Vibration     7          0.609              1.931              3.081
 Vibration     8          0.625              1.879              2.434
 Vibration     9          0.638              1.839              2.128
 Vibration    10          0.644              1.821              2.017
 Vibration    11          0.652              1.796              1.886
 Vibration    12          0.669              1.742              1.649
 Vibration    13          0.677              1.720              1.567
 Vibration    14          0.688              1.686              1.455
 Vibration    15          0.712              1.618              1.265
 Vibration    16          0.720              1.594              1.209
 Vibration    17          0.730              1.568              1.150
 Vibration    18          0.746              1.523              1.058
 Vibration    19          0.754              1.502              1.019
 Vibration    20          0.781              1.432              0.899
 Vibration    21          0.788              1.413              0.870
 Vibration    22          0.808              1.364              0.800
 Vibration    23          0.821              1.331              0.756
 Vibration    24          0.872              1.211              0.616
 Vibration    25          0.918              1.112              0.519
 Vibration    26          0.935              1.078              0.489

 Optimization completed.
    -- Stationary point found.
 Normal termination of Gaussian 09 at Wed Sep 29 10:23:37 2021.
 Gaussian 09:  AM64L-G09RevA.02 11-Jun-2009

 ----------------------------------------------------------------------
 #p TD(NStates=10, Root=1) b3lyp/6-31G* volume pop=NPA density=current
 Geom=AllCheck Guess=Read
 ----------------------------------------------------------------------

 O=C(C(C)(C)C)Oc1ccc(cc1)c1ccccc1_conf_0
 ---------------------------------------
 Redundant internal coordinates taken from checkpoint file:
 C17H18O2_abb6_conf_0.chk
 Charge =  0 Multiplicity = 1

                         Standard orientation:
 ---------------------------------------------------------------------
 Center     Atomic      Atomic             Coordinates (Angstroms)
 Number     Number       Type             X           Y           Z
 ---------------------------------------------------------------------
      1          8           0       -2.776580   -0.898565    1.386880
      2          6           0       -3.112889   -0.266658    0.415139
      3          6           0       -4.555034    0.021204   -0.015803
      4          6           0       -4.780058    1.549732   -0.046430
      5          6           0       -4.786574   -0.568783   -1.425267
      6          6           0       -5.507118   -0.633943    0.997140
      7          8           0       -2.225649    0.301813   -0.466234
      8          6           0       -0.847571    0.178343   -0.285064
      9          6           0       -0.222253   -1.041186   -0.027377
     10          6           0        1.167490   -1.082732    0.059061
     11          6           0        1.953595    0.068995   -0.114056
     12          6           0        1.291990    1.279352   -0.379981
     13          6           0       -0.096513    1.338096   -0.463551
     14          6           0        3.434499    0.009137   -0.021081
     15          6           0        4.147101   -1.092196   -0.525332
     16          6           0        5.537273   -1.148045   -0.437804
     17          6           0        6.247586   -0.102128    0.154186
     18          6           0        5.553916    0.999215    0.658969
     19          6           0        4.163574    1.053264    0.573197
     20          1           0       -4.116782    2.036608   -0.766590
     21          1           0       -4.606279    1.996083    0.939507
     22          1           0       -5.816244    1.762381   -0.333543
     23          1           0       -4.118455   -0.115860   -2.163001
     24          1           0       -5.821051   -0.382226   -1.735860
     25          1           0       -4.624739   -1.652980   -1.433532
     26          1           0       -5.349619   -0.236248    2.004186
     27          1           0       -5.354768   -1.716501    1.042430
     28          1           0       -6.546047   -0.441768    0.706550
     29          1           0       -0.810342   -1.937469    0.123813
     30          1           0        1.649689   -2.027939    0.290687
     31          1           0        1.871716    2.182261   -0.548083
     32          1           0       -0.606557    2.271580   -0.680029
     33          1           0        3.607126   -1.899304   -1.012812
     34          1           0        6.067094   -2.006896   -0.841631
     35          1           0        7.331260   -0.145104    0.221818
     36          1           0        6.095456    1.815341    1.130237
     37          1           0        3.632300    1.902048    0.994999
 ---------------------------------------------------------------------

 SCF Done:  E(RB3LYP) =  -809.124453325     A.U. after    1 cycles

 Excitation energies and oscillator strengths:

 Excited State   1:      Singlet-A      4.8101 eV  257.76 nm  f=0.6610  <S**2>=0.000
      68 -> 69         0.69325
 This state for optimization and/or second-order correction.
 Total Energy, E(TD-HF/TD-KS) =  -808.947683598
 Copying the excited state density for this state as the 1-particle RhoCI density.

 Excited State   2:      Singlet-A      4.9271 eV  251.64 nm  f=0.0036  <S**2>=0.000
      66 -> 69        -0.35277
      67 -> 69        -0.20529
      68 -> 70         0.56158

 Excited State   3:      Singlet-A      5.0298 eV  246.50 nm  f=0.0003  <S**2>=0.000
      66 -> 69        -0.24058
      67 -> 69         0.40868
      68 -> 71         0.50014

 Excited State   4:      Singlet-A      5.4426 eV  227.80 nm  f=0.0074  <S**2>=0.000
      64 -> 69         0.40699
      64 -> 72        -0.40240
      66 -> 69        -0.19486
      66 -> 72         0.20515
      68 -> 70        -0.13813
      68 -> 72        -0.19618

 Excited State   5:      Singlet-A      5.5429 eV  223.68 nm  f=0.0068  <S**2>=0.000
      64 -> 69         0.10846
      65 -> 69         0.11518
      66 -> 69        -0.10776
      68 -> 72         0.65243

 Excited State   6:      Singlet-A      5.7050 eV  217.33 nm  f=0.0268  <S**2>=0.000
      65 -> 71        -0.19349
      66 -> 69         0.12570
      67 -> 69         0.47451
      68 -> 70         0.24035
      68 -> 71        -0.35247

 Excited State   7:      Singlet-A      5.8423 eV  212.22 nm  f=0.0446  <S**2>=0.000
      64 -> 72        -0.11465
      65 -> 69         0.33233
      65 -> 70        -0.24106
      66 -> 69         0.37752
      68 -> 70         0.22626
      68 -> 71         0.25533
      68 -> 73        -0.13908

 Excited State   8:      Singlet-A      5.8777 eV  210.94 nm  f=0.0200  <S**2>=0.000
      64 -> 69        -0.17745
      65 -> 69         0.51183
      65 -> 70         0.15213
      66 -> 69        -0.20690
      68 -> 70        -0.13688
      68 -> 71        -0.12768
      68 -> 73        -0.22562

 Excited State   9:      Singlet-A      6.0067 eV  206.41 nm  f=0.0076  <S**2>=0.000
      67 -> 70         0.66444
      67 -> 71         0.21709

 Excited State  10:      Singlet-A      6.1845 eV  200.48 nm  f=0.0013  <S**2>=0.000
      64 -> 69         0.45854
      64 -> 72         0.24071
      64 -> 73         0.12611
      65 -> 70        -0.10741
      66 -> 72        -0.40632

 The electronic state is 1-A.
 Alpha  occ. eigenvalues --  -19.20111 -19.14162 -10.31772 -10.25233 -10.21541
 Alpha  occ. eigenvalues --  -10.20007 -10.19919 -10.19478 -10.19417 -10.19387
 Alpha  occ. eigenvalues --  -10.19316 -10.19028 -10.19013 -10.18926 -10.18902
 Alpha  occ. eigenvalues --  -10.18897 -10.18377 -10.18374 -10.17543  -1.10746
 Alpha  occ. eigenvalues --   -1.02501  -0.86813  -0.84690  -0.82463  -0.77692
 Alpha  occ. eigenvalues --   -0.75324  -0.74234  -0.72630  -0.69329  -0.68836
 Alpha  occ. eigenvalues --   -0.66194  -0.62486  -0.60749  -0.59606  -0.57874
 Alpha  occ. eigenvalues --   -0.55526  -0.52484  -0.49275  -0.48560  -0.47994
 Alpha  occ. eigenvalues --   -0.47737  -0.45536  -0.44588  -0.44345  -0.43881
 Alpha  occ. eigenvalues --   -0.43430  -0.42835  -0.42605  -0.41796  -0.40750
 Alpha  occ. eigenvalues --   -0.39256  -0.38779  -0.38336  -0.37521  -0.36966
 Alpha  occ. eigenvalues --   -0.36034  -0.35933  -0.35115  -0.34096  -0.33766
 Alpha  occ. eigenvalues --   -0.33605  -0.33449  -0.31833  -0.27275  -0.26708
 Alpha  occ. eigenvalues --   -0.25339  -0.24974  -0.21975
 Alpha virt. eigenvalues --   -0.02878  -0.00593   0.00009   0.00545   0.03530
 Alpha virt. eigenvalues --    0.08189   0.09477   0.09892   0.12540   0.12580
 Alpha virt. eigenvalues --    0.13996   0.14515   0.14992   0.15176   0.15408

 Mulliken atomic charges:
              1
     1  O   -0.480453
     2  C    0.597754
     3  C   -0.000579
     4  C   -0.449328
     5  C   -0.450536
     6  C   -0.432570
     7  O   -0.516206
     8  C    0.345502
     9  C   -0.137869
    10  C   -0.182740
    11  C    0.089234
    12  C   -0.183149
    13  C   -0.161267
    14  C    0.078902
    15  C   -0.166939
    16  C   -0.131577
    17  C   -0.133094
    18  C   -0.130935
    19  C   -0.167676
    20  H    0.155712
    21  H    0.149533
    22  H    0.143769
    23  H    0.158939
    24  H    0.143702
    25  H    0.147501
    26  H    0.155394
    27  H    0.153386
    28  H    0.133613
    29  H    0.164394
    30  H    0.145175
    31  H    0.140702
    32  H    0.149511
    33  H    0.134715
    34  H    0.134548
    35  H    0.133177
    36  H    0.134679
    37  H    0.135076
 Sum of Mulliken atomic charges =   0.00000

 Dipole moment (field-independent basis, Debye):
    X=              1.3691    Y=              0.8763    Z=             -1.5713  Tot=              2.2608
 Quadrupole moment (field-independent basis, Debye-Ang):
   XX=            -97.1568   YY=           -104.8389   ZZ=           -117.8383
   XY=             -2.8528   XZ=              4.9574   YZ=              4.1699

 Summary of Natural Population Analysis:

                                       Natural Population
                Natural  -----------------------------------------------
    Atom  No    Charge         Core      Valence    Rydberg      Total
 -----------------------------------------------------------------------
      O    1   -0.59550      1.99977     6.57538    0.02035     8.59550
      C    2    0.78711      1.99928     3.16447    0.04915     5.21289
      C    3   -0.14805      1.99906     4.13630    0.01269     6.14805
      C    4   -0.66894      1.99938     4.65973    0.00983     6.66894
      C    5   -0.66952      1.99938     4.66038    0.00975     6.66952
      C    6   -0.66820      1.99939     4.65774    0.01107     6.66820
      O    7   -0.52242      1.99970     6.51142    0.01130     8.52242
      C    8    0.31426      1.99870     3.66315    0.02390     5.68574
      C    9   -0.26012      1.99902     4.24576    0.01534     6.26012
      C   10   -0.19771      1.99907     4.18446    0.01419     6.19771
      C   11   -0.03783      1.99901     4.02215    0.01666     6.03783
      C   12   -0.22132      1.99906     4.20764    0.01462     6.22132
      C   13   -0.24516      1.99902     4.23093    0.01520     6.24516
      C   14   -0.04981      1.99902     4.03417    0.01662     6.04981
      C   15   -0.21342      1.99905     4.20031    0.01406     6.21342
      C   16   -0.23255      1.99911     4.21865    0.01479     6.23255
      C   17   -0.22750      1.99909     4.21229    0.01611     6.22750
      C   18   -0.23073      1.99911     4.21687    0.01474     6.23073
      C   19   -0.21604      1.99905     4.20281    0.01418     6.21604
      H   20    0.23908      0.00000     0.75973    0.00119     0.76092
      H   21    0.23529      0.00000     0.76375    0.00096     0.76471
      H   22    0.23149      0.00000     0.76729    0.00122     0.76851
      H   23    0.24094      0.00000     0.75798    0.00107     0.75906
      H   24    0.23147      0.00000     0.76708    0.00145     0.76853
      H   25    0.23423      0.00000     0.76479    0.00098     0.76577
      H   26    0.24268      0.00000     0.75625    0.00107     0.75732
      H   27    0.24160      0.00000     0.75733    0.00107     0.75840
      H   28    0.22757      0.00000     0.77146    0.00097     0.77243
      H   29    0.26181      0.00000     0.73693    0.00126     0.73819
      H   30    0.24185      0.00000     0.75689    0.00126     0.75815
      H   31    0.24062      0.00000     0.75811    0.00127     0.75938
      H   32    0.25067      0.00000     0.74813    0.00120     0.74933
      H   33    0.23580      0.00000     0.76288    0.00132     0.76420
      H   34    0.23865      0.00000     0.76047    0.00089     0.76135
      H   35    0.23490      0.00000     0.76405    0.00106     0.76510
      H   36    0.23865      0.00000     0.76046    0.00089     0.76135
      H   37    0.23612      0.00000     0.76251    0.00137     0.76388
 =======================================================================
   * Total *    0.00000     37.98428    97.68069    0.33503   136.00000

 Normal termination of Gaussian 09 at Wed Sep 29 17:29:26 2021.
