 Gaussian 09, Revision A.02,

 -----------------------------------
 #p opt b3lyp/6-31G* scf=(xqc,tight)
 -----------------------------------

 ----------------------------------------------
 COC(=O)c1ccc2c(c1)ccc(c2)OC(=O)C(C)(C)C_conf_0
 ----------------------------------------------
 Symbolic Z-matrix:
 Charge =  0 Multiplicity = 1

 SCF Done:  E(RB3LYP) =  -959.582016780     A.U. after   15 cycles
 SCF Done:  E(RB3LYP) =  -959.589151111     A.U. after   13 cycles
 SCF Done:  E(RB3LYP) =  -959.588514885     A.U. after   13 cycles
 SCF Done:  E(RB3LYP) =  -959.589725710     A.U. after   12 cycles
 SCF Done:  E(RB3LYP) =  -959.590195746     A.U. after   12 cycles
 SCF Done:  E(RB3LYP) =  -959.590139345     A.U. after   12 cycles
 SCF Done:  E(RB3LYP) =  -959.590526862     A.U. after   11 cycles
 SCF Done:  E(RB3LYP) =  -959.590803574     A.U. after   16 cycles
 SCF Done:  E(RB3LYP) =  -959.591115969     A.U. after   11 cycles
 SCF Done:  E(RB3LYP) =  -959.591255679     A.U. after   14 cycles
 SCF Done:  E(RB3LYP) =  -959.591264094     A.U. after   11 cycles
 SCF Done:  E(RB3LYP) =  -959.591280044     A.U. after   10 cycles
 SCF Done:  E(RB3LYP) =  -959.591282207     A.U. after    8 cycles
 SCF Done:  E(RB3LYP) =  -959.591282756     A.U. after    8 cycles
 SCF Done:  E(RB3LYP) =  -959.591283207     A.U. after    8 cycles
 SCF Done:  E(RB3LYP) =  -959.591283416     A.U. after    8 cycles
 SCF Done:  E(RB3LYP) =  -959.591283468     A.U. after    7 cycles
 Optimization completed.
    -- Stationary point found.
 Normal termination of Gaussian 09 at Wed Sep 29 06:09:14 2021.

 ----------------------------------------------------------------------
 #p freq b3lyp/6-31G* volume NMR pop=NPA density=current Geom=AllCheck
 Guess=Read
 ----------------------------------------------------------------------

 COC(=O)c1ccc2c(c1)ccc(c2)OC(=O)C(C)(C)C_conf_0
 ----------------------------------------------
 Redundant internal coordinates taken from checkpoint file:
 C17H18O4_9d9c_conf_0.chk
 Charge =  0 Multiplicity = 1

 SCF Done:  E(RB3LYP) =  -959.591283468     A.U. after    1 cycles

  1  C    Isotropic =   138.9276   Anisotropy =    62.7322

  2  O    Isotropic =   164.8260   Anisotropy =   130.3352

  3  C    Isotropic =    32.2054   Anisotropy =    73.4645

  4  O    Isotropic =   -42.3205   Anisotropy =   569.3446

  5  C    Isotropic =    68.4513   Anisotropy =   143.2678

  6  C    Isotropic =    69.5369   Anisotropy =   165.3017

  7  C    Isotropic =    68.3664   Anisotropy =   142.3315

  8  C    Isotropic =    60.7222   Anisotropy =   196.6215

  9  C    Isotropic =    66.1848   Anisotropy =   192.9573

 10  C    Isotropic =    62.1705   Anisotropy =   159.8056

 11  C    Isotropic =    64.8736   Anisotropy =   146.4117

 12  C    Isotropic =    72.8408   Anisotropy =   149.1059

 13  C    Isotropic =    44.3788   Anisotropy =   110.0863

 14  C    Isotropic =    77.9743   Anisotropy =   119.9890

 15  O    Isotropic =   106.1084   Anisotropy =   159.4307

 16  C    Isotropic =    22.2703   Anisotropy =    77.3206

 17  O    Isotropic =   -66.1473   Anisotropy =   573.9182

 18  C    Isotropic =   148.9465   Anisotropy =    24.3634

 19  C    Isotropic =   162.0217   Anisotropy =    37.3243

 20  C    Isotropic =   162.8872   Anisotropy =    31.3783

 21  C    Isotropic =   162.2769   Anisotropy =    37.8574

 22  H    Isotropic =    28.6508   Anisotropy =     7.4222

 23  H    Isotropic =    28.2453   Anisotropy =     8.4725

 24  H    Isotropic =    28.2410   Anisotropy =     8.4840

 25  H    Isotropic =    24.1978   Anisotropy =     8.9405

 26  H    Isotropic =    24.6456   Anisotropy =     7.9939

 27  H    Isotropic =    23.5349   Anisotropy =     9.6529

 28  H    Isotropic =    24.3721   Anisotropy =     7.4809

 29  H    Isotropic =    24.7373   Anisotropy =     9.2797

 30  H    Isotropic =    25.0350   Anisotropy =     9.3499

 31  H    Isotropic =    30.7956   Anisotropy =     8.1798

 32  H    Isotropic =    30.4032   Anisotropy =     5.8526

 33  H    Isotropic =    31.0521   Anisotropy =     7.9040

 34  H    Isotropic =    30.5972   Anisotropy =     8.2443

 35  H    Isotropic =    31.4459   Anisotropy =     7.9322

 36  H    Isotropic =    30.6503   Anisotropy =     7.8386

 37  H    Isotropic =    30.2875   Anisotropy =     7.4143

 38  H    Isotropic =    30.7975   Anisotropy =     8.0463

 39  H    Isotropic =    31.0555   Anisotropy =     7.9771

  Exact polarizability: 327.948 -10.404 179.430   5.226  -2.662 101.617
 Approx polarizability: 426.345 -16.090 324.012  12.282  -1.220 157.240

                     1                      2                      3
                     A                      A                      A
 Frequencies --    18.2032                28.7665                41.9855
 Red. masses --     3.6229                 4.3632                 4.3527
 Frc consts  --     0.0007                 0.0021                 0.0045
 IR Inten    --     0.1720                 0.1224                 0.4802

                     4                      5                      6
                     A                      A                      A
 Frequencies --    51.1913                57.4137                90.7861
 Red. masses --     5.5822                 7.6682                 4.3071
 Frc consts  --     0.0086                 0.0149                 0.0209
 IR Inten    --     1.5349                 0.2053                 0.4446

                     7                      8                      9
                     A                      A                      A
 Frequencies --   123.5772               131.8027               148.8458
 Red. masses --     4.1540                 1.6784                 1.9829
 Frc consts  --     0.0374                 0.0172                 0.0259
 IR Inten    --     1.0570                 1.8757                 0.8419

                    10                     11                     12
                     A                      A                      A
 Frequencies --   171.1538               192.4089               204.6102
 Red. masses --     4.9779                 3.7407                 1.6019
 Frc consts  --     0.0859                 0.0816                 0.0395
 IR Inten    --     0.5801                 2.2517                 0.5092

                    13                     14                     15
                     A                      A                      A
 Frequencies --   217.3873               226.9002               265.2067
 Red. masses --     2.9177                 1.6804                 1.7165
 Frc consts  --     0.0812                 0.0510                 0.0711
 IR Inten    --     1.0588                 0.0537                 1.5675

                    16                     17                     18
                     A                      A                      A
 Frequencies --   269.8403               284.7188               287.5479
 Red. masses --     1.0734                 4.9044                 1.8666
 Frc consts  --     0.0460                 0.2342                 0.0909
 IR Inten    --     0.1338                11.1903                 3.1828

                    19                     20                     21
                     A                      A                      A
 Frequencies --   326.5685               346.7991               352.5373
 Red. masses --     3.4110                 4.1975                 3.2836
 Frc consts  --     0.2143                 0.2974                 0.2404
 IR Inten    --     1.1886                 9.6010                 1.1764

                    22                     23                     24
                     A                      A                      A
 Frequencies --   360.9579               376.3057               413.1831
 Red. masses --     4.7216                 2.5747                 3.5481
 Frc consts  --     0.3625                 0.2148                 0.3569
 IR Inten    --     7.1442                 1.2848                 1.8887

                    25                     26                     27
                     A                      A                      A
 Frequencies --   431.2351               456.3210               494.6275
 Red. masses --     4.4998                 3.8289                 2.7412
 Frc consts  --     0.4930                 0.4698                 0.3951
 IR Inten    --     3.2929                 5.3178                 8.6607

                    28                     29                     30
                     A                      A                      A
 Frequencies --   515.4612               532.5599               549.9391
 Red. masses --     5.3933                 6.1513                 4.0147
 Frc consts  --     0.8443                 1.0279                 0.7154
 IR Inten    --     6.0195                 1.7419                 2.8837

                    31                     32                     33
                     A                      A                      A
 Frequencies --   563.9919               610.1110               654.7614
 Red. masses --     5.2854                 4.3743                 4.3576
 Frc consts  --     0.9905                 0.9593                 1.1007
 IR Inten    --     0.4853                 9.8037                 0.5289

                    34                     35                     36
                     A                      A                      A
 Frequencies --   660.6808               748.7663               752.2016
 Red. masses --     6.0919                 4.7506                 4.5770
 Frc consts  --     1.5667                 1.5692                 1.5258
 IR Inten    --     0.9874                 7.6672                 7.7994

                    37                     38                     39
                     A                      A                      A
 Frequencies --   759.7238               775.3816               794.2717
 Red. masses --     6.6055                 3.5077                 4.9327
 Frc consts  --     2.2463                 1.2425                 1.8335
 IR Inten    --     5.1595                12.8815                 7.6210

                    40                     41                     42
                     A                      A                      A
 Frequencies --   805.8209               828.8167               836.4481
 Red. masses --     2.7425                 1.7118                 2.6772
 Frc consts  --     1.0492                 0.6928                 1.1036
 IR Inten    --    10.1098                 9.9583                 7.4980

                    43                     44                     45
                     A                      A                      A
 Frequencies --   845.3439               885.3330               910.1416
 Red. masses --     2.3249                 2.5651                 2.1030
 Frc consts  --     0.9789                 1.1846                 1.0264
 IR Inten    --     1.6527                 4.5506                29.7157

                    46                     47                     48
                     A                      A                      A
 Frequencies --   941.4685               947.4738               948.7304
 Red. masses --     3.1686                 1.6020                 1.7649
 Frc consts  --     1.6547                 0.8473                 0.9360
 IR Inten    --     9.2207                10.6291                 1.6682

                    49                     50                     51
                     A                      A                      A
 Frequencies --   957.2466               968.1210               980.0046
 Red. masses --     1.6516                 1.3906                 1.3055
 Frc consts  --     0.8917                 0.7679                 0.7387
 IR Inten    --     3.8515                 6.4918                 0.1299

                    52                     53                     54
                     A                      A                      A
 Frequencies --   980.5932               988.5440              1029.6378
 Red. masses --     1.1986                 3.5508                 4.8137
 Frc consts  --     0.6790                 2.0444                 3.0068
 IR Inten    --     0.0256                 6.8376                30.2183

                    55                     56                     57
                     A                      A                      A
 Frequencies --  1057.6787              1060.1229              1132.1711
 Red. masses --     1.4695                 1.4434                 2.3868
 Frc consts  --     0.9686                 0.9558                 1.8026
 IR Inten    --    45.9980                21.8117                21.7217

                    58                     59                     60
                     A                      A                      A
 Frequencies --  1137.6721              1170.0533              1185.4299
 Red. masses --     3.1745                 1.8921                 1.2732
 Frc consts  --     2.4208                 1.5262                 1.0541
 IR Inten    --   636.1866               203.1347                 0.8042

                    61                     62                     63
                     A                      A                      A
 Frequencies --  1186.2754              1189.3601              1221.2357
 Red. masses --     1.4363                 1.3623                 1.5195
 Frc consts  --     1.1909                 1.1354                 1.3352
 IR Inten    --   117.1442               135.8996                16.6674

                    64                     65                     66
                     A                      A                      A
 Frequencies --  1237.4399              1242.4777              1262.3406
 Red. masses --     3.1864                 2.6651                 2.6198
 Frc consts  --     2.8748                 2.4241                 2.4597
 IR Inten    --   554.2039                 2.0712                16.1688

                    67                     68                     69
                     A                      A                      A
 Frequencies --  1275.9410              1294.3907              1307.6161
 Red. masses --     2.5784                 1.8375                 3.3058
 Frc consts  --     2.4732                 1.8138                 3.3304
 IR Inten    --    33.9964                 8.2405               276.8426

                    70                     71                     72
                     A                      A                      A
 Frequencies --  1313.8493              1380.6071              1421.3613
 Red. masses --     3.1359                 1.9203                 1.2115
 Frc consts  --     3.1893                 2.1566                 1.4420
 IR Inten    --   225.1062                 5.0019                 4.2695

                    73                     74                     75
                     A                      A                      A
 Frequencies --  1422.7177              1425.1976              1430.4084
 Red. masses --     5.1752                 4.9097                 1.2467
 Frc consts  --     6.1718                 5.8757                 1.5029
 IR Inten    --     7.4094                 3.7539                 5.3344

                    76                     77                     78
                     A                      A                      A
 Frequencies --  1455.0149              1458.5616              1492.6649
 Red. masses --     4.0301                 1.2250                 1.2168
 Frc consts  --     5.0269                 1.5354                 1.5973
 IR Inten    --     6.1653                18.3022                10.5577

                    79                     80                     81
                     A                      A                      A
 Frequencies --  1508.6479              1512.2210              1515.3329
 Red. masses --     1.0484                 1.0483                 1.0452
 Frc consts  --     1.4059                 1.4124                 1.4140
 IR Inten    --     0.0301                 5.7632                 0.3709

                    82                     83                     84
                     A                      A                      A
 Frequencies --  1520.7199              1523.5580              1525.6666
 Red. masses --     1.0473                 1.7439                 1.2572
 Frc consts  --     1.4270                 2.3850                 1.7241
 IR Inten    --     0.5014               103.1202                16.6246

                    85                     86                     87
                     A                      A                      A
 Frequencies --  1530.4933              1532.8311              1550.8245
 Red. masses --     1.0487                 1.0583                 1.0861
 Frc consts  --     1.4473                 1.4651                 1.5390
 IR Inten    --     5.8253                 7.5923                33.3404

                    88                     89                     90
                     A                      A                      A
 Frequencies --  1555.2716              1624.3213              1662.9579
 Red. masses --     3.5502                 7.3326                 5.8921
 Frc consts  --     5.0596                11.3985                 9.6003
 IR Inten    --    23.3301                 1.0828                 0.5260

                    91                     92                     93
                     A                      A                      A
 Frequencies --  1685.3627              1799.4527              1832.7361
 Red. masses --     6.4640                11.6127                12.6948
 Frc consts  --    10.8178                22.1546                25.1233
 IR Inten    --   111.1303               219.2705               188.9826

                    94                     95                     96
                     A                      A                      A
 Frequencies --  3050.9352              3053.0471              3062.1606
 Red. masses --     1.0354                 1.0360                 1.0363
 Frc consts  --     5.6785                 5.6896                 5.7254
 IR Inten    --    26.9741                10.8949                29.2604

                    97                     98                     99
                     A                      A                      A
 Frequencies --  3074.7072              3114.9916              3116.8201
 Red. masses --     1.0294                 1.1031                 1.1025
 Frc consts  --     5.7339                 6.3066                 6.3102
 IR Inten    --    46.8297                11.3343                24.8439

                   100                    101                    102
                     A                      A                      A
 Frequencies --  3130.2817              3138.8336              3140.2095
 Red. masses --     1.1020                 1.1028                 1.1021
 Frc consts  --     6.3622                 6.4015                 6.4029
 IR Inten    --    40.9230                10.0927                13.7992

                   103                    104                    105
                     A                      A                      A
 Frequencies --  3143.6545              3149.1007              3180.1624
 Red. masses --     1.1011                 1.1075                 1.1072
 Frc consts  --     6.4115                 6.4707                 6.5973
 IR Inten    --    46.6445                21.3647                18.7747

                   106                    107                    108
                     A                      A                      A
 Frequencies --  3188.2693              3195.1946              3209.1992
 Red. masses --     1.0897                 1.0900                 1.0913
 Frc consts  --     6.5263                 6.5567                 6.6219
 IR Inten    --    10.0610                 7.7157                 6.8853

                   109                    110                    111
                     A                      A                      A
 Frequencies --  3213.9473              3236.2341              3245.3999
 Red. masses --     1.0905                 1.0924                 1.0934
 Frc consts  --     6.6365                 6.7410                 6.7854
 IR Inten    --     0.6666                 4.4803                 3.8655

 - Thermochemistry -
 -------------------
 Temperature   298.150 Kelvin.  Pressure   1.00000 Atm.
 Atom     1 has atomic number  6 and mass  12.00000

 Molecular mass:   286.12051 amu.
 Principal axes and moments of inertia in atomic units:
                           1         2         3
     Eigenvalues --  1444.44725********************
           X            1.00000   0.00072   0.00199
           Y           -0.00069   0.99989  -0.01465
           Z           -0.00200   0.01465   0.99989
 This molecule is an asymmetric top.
 Rotational symmetry number  1.
 Warning -- assumption of classical behavior for rotation
           may cause significant error
 Rotational temperatures (Kelvin)      0.05996     0.00488     0.00467
 Rotational constants (GHZ):           1.24943     0.10177     0.09737
 Zero-point vibrational energy     833956.2 (Joules/Mol)
                                  199.32032 (Kcal/Mol)
 Warning -- explicit consideration of  32 degrees of freedom as
           vibrations may cause significant error
 Vibrational temperatures:     26.19    41.39    60.41    73.65    82.61
          (Kelvin)            130.62   177.80   189.63   214.16   246.25
                              276.83   294.39   312.77   326.46   381.57
                              388.24   409.65   413.72   469.86   498.97
                              507.22   519.34   541.42   594.48   620.45
                              656.54   711.66   741.63   766.23   791.24
                              811.46   877.81   942.05   950.57  1077.31
                             1082.25  1093.07  1115.60  1142.78  1159.40
                             1192.48  1203.46  1216.26  1273.80  1309.49
                             1354.56  1363.20  1365.01  1377.26  1392.91
                             1410.01  1410.85  1422.29  1481.42  1521.76
                             1525.28  1628.94  1636.85  1683.44  1705.57
                             1706.78  1711.22  1757.08  1780.40  1787.65
                             1816.22  1835.79  1862.34  1881.37  1890.33
                             1986.38  2045.02  2046.97  2050.54  2058.04
                             2093.44  2098.54  2147.61  2170.61  2175.75
                             2180.22  2187.97  2192.06  2195.09  2202.04
                             2205.40  2231.29  2237.69  2337.03  2392.62
                             2424.86  2589.01  2636.90  4389.61  4392.65
                             4405.76  4423.81  4481.77  4484.40  4503.77
                             4516.08  4518.06  4523.01  4530.85  4575.54
                             4587.20  4597.17  4617.32  4624.15  4656.21
                             4669.40

 Zero-point correction=                           0.317637 (Hartree/Particle)
 Thermal correction to Energy=                    0.337756
 Thermal correction to Enthalpy=                  0.338700
 Thermal correction to Gibbs Free Energy=         0.267331
 Sum of electronic and zero-point Energies=           -959.273646
 Sum of electronic and thermal Energies=              -959.253527
 Sum of electronic and thermal Enthalpies=            -959.252583
 Sum of electronic and thermal Free Energies=         -959.323953

                     E (Thermal)             CV                S
                      KCal/Mol        Cal/Mol-Kelvin    Cal/Mol-Kelvin
 Total                  211.945             75.986            150.209
 Electronic               0.000              0.000              0.000
 Translational            0.889              2.981             42.852
 Rotational               0.889              2.981             34.517
 Vibrational            210.168             70.025             72.841
 Vibration     1          0.593              1.986              6.821
 Vibration     2          0.593              1.984              5.913
 Vibration     3          0.595              1.980              5.163
 Vibration     4          0.595              1.977              4.771
 Vibration     5          0.596              1.975              4.544
 Vibration     6          0.602              1.956              3.643
 Vibration     7          0.610              1.929              3.044
 Vibration     8          0.612              1.922              2.920
 Vibration     9          0.618              1.904              2.687
 Vibration    10          0.626              1.878              2.423
 Vibration    11          0.634              1.850              2.205
 Vibration    12          0.640              1.833              2.091
 Vibration    13          0.646              1.815              1.981
 Vibration    14          0.651              1.800              1.903
 Vibration    15          0.671              1.737              1.627
 Vibration    16          0.674              1.729              1.597
 Vibration    17          0.683              1.702              1.505
 Vibration    18          0.685              1.697              1.488
 Vibration    19          0.710              1.622              1.277
 Vibration    20          0.725              1.582              1.181
 Vibration    21          0.729              1.570              1.155
 Vibration    22          0.735              1.553              1.118
 Vibration    23          0.747              1.521              1.054
 Vibration    24          0.777              1.442              0.915
 Vibration    25          0.792              1.402              0.855
 Vibration    26          0.815              1.347              0.777
 Vibration    27          0.850              1.262              0.672
 Vibration    28          0.870              1.216              0.621
 Vibration    29          0.888              1.178              0.582
 Vibration    30          0.905              1.140              0.544
 Vibration    31          0.920              1.109              0.516
 Vibration    32          0.969              1.010              0.433

 Optimization completed.
    -- Stationary point found.
 Normal termination of Gaussian 09 at Wed Sep 29 08:28:44 2021.
 Gaussian 09:  AM64L-G09RevA.02 11-Jun-2009

 ----------------------------------------------------------------------
 #p TD(NStates=10, Root=1) b3lyp/6-31G* volume pop=NPA density=current
 Geom=AllCheck Guess=Read
 ----------------------------------------------------------------------

 COC(=O)c1ccc2c(c1)ccc(c2)OC(=O)C(C)(C)C_conf_0
 ----------------------------------------------
 Redundant internal coordinates taken from checkpoint file:
 C17H18O4_9d9c_conf_0.chk
 Charge =  0 Multiplicity = 1

                         Standard orientation:
 ---------------------------------------------------------------------
 Center     Atomic      Atomic             Coordinates (Angstroms)
 Number     Number       Type             X           Y           Z
 ---------------------------------------------------------------------
      1          6           0       -7.241337    0.452087   -0.226059
      2          8           0       -5.838179    0.747737   -0.166952
      3          6           0       -5.026822   -0.329545   -0.042244
      4          8           0       -5.446014   -1.469383    0.017569
      5          6           0       -3.587596    0.049352    0.010412
      6          6           0       -3.154893    1.402536   -0.053971
      7          6           0       -1.815389    1.704365   -0.001308
      8          6           0       -0.836771    0.679300    0.115356
      9          6           0       -1.271503   -0.685081    0.179987
     10          6           0       -2.657091   -0.966715    0.125480
     11          6           0       -0.294696   -1.711472    0.300445
     12          6           0        1.046920   -1.418077    0.352764
     13          6           0        1.460130   -0.065500    0.280037
     14          6           0        0.552132    0.960271    0.167396
     15          8           0        2.801444    0.289421    0.414648
     16          6           0        3.759215   -0.302861   -0.376649
     17          8           0        3.502373   -1.123745   -1.222711
     18          6           0        5.151562    0.229870   -0.026998
     19          6           0        5.456070   -0.094317    1.453292
     20          6           0        6.179305   -0.453137   -0.942992
     21          6           0        5.178982    1.759901   -0.242912
     22          1           0       -7.739559    1.417202   -0.323772
     23          1           0       -7.565494   -0.058195    0.684911
     24          1           0       -7.463831   -0.184980   -1.086290
     25          1           0       -3.894082    2.190007   -0.144712
     26          1           0       -1.486088    2.739286   -0.050512
     27          1           0       -3.005870   -1.994047    0.173459
     28          1           0       -0.625904   -2.745257    0.352779
     29          1           0        1.787568   -2.203122    0.440531
     30          1           0        0.905483    1.986084    0.122812
     31          1           0        5.434222   -1.175009    1.635909
     32          1           0        4.735898    0.382781    2.123831
     33          1           0        6.458219    0.268057    1.709175
     34          1           0        6.165978   -1.539560   -0.814164
     35          1           0        7.185068   -0.088138   -0.706829
     36          1           0        5.973162   -0.243082   -1.996791
     37          1           0        4.460047    2.268216    0.405471
     38          1           0        4.948769    2.018134   -1.282998
     39          1           0        6.180107    2.143518   -0.015445
 ---------------------------------------------------------------------

 SCF Done:  E(RB3LYP) =  -959.591283468     A.U. after    1 cycles

 Excitation energies and oscillator strengths:

 Excited State   1:      Singlet-A      4.0572 eV  305.59 nm  f=0.0739  <S**2>=0.000
      75 -> 77        -0.24222
      75 -> 78         0.15658
      76 -> 77         0.61029
      76 -> 78         0.20025
 This state for optimization and/or second-order correction.
 Total Energy, E(TD-HF/TD-KS) =  -959.442185528
 Copying the excited state density for this state as the 1-particle RhoCI density.

 Excited State   2:      Singlet-A      4.2967 eV  288.55 nm  f=0.0581  <S**2>=0.000
      75 -> 77         0.44503
      76 -> 77         0.31217
      76 -> 78        -0.44263

 Excited State   3:      Singlet-A      4.7113 eV  263.16 nm  f=0.0002  <S**2>=0.000
      74 -> 77         0.65972
      74 -> 78         0.17741
      74 -> 81        -0.10589

 Excited State   4:      Singlet-A      5.2143 eV  237.78 nm  f=0.1935  <S**2>=0.000
      73 -> 77         0.51376
      73 -> 79         0.26966
      75 -> 77         0.18293
      76 -> 78         0.19421
      76 -> 79         0.26246

 Excited State   5:      Singlet-A      5.2419 eV  236.53 nm  f=0.9112  <S**2>=0.000
      73 -> 77        -0.27129
      75 -> 77         0.42002
      75 -> 78         0.17902
      76 -> 78         0.41984

 Excited State   6:      Singlet-A      5.3637 eV  231.15 nm  f=0.0112  <S**2>=0.000
      72 -> 77        -0.14868
      73 -> 77        -0.29169
      76 -> 79         0.59787

 Excited State   7:      Singlet-A      5.6028 eV  221.29 nm  f=0.2118  <S**2>=0.000
      72 -> 77        -0.11015
      72 -> 78         0.11592
      73 -> 77         0.13071
      73 -> 79        -0.11873
      75 -> 78         0.56403
      76 -> 77        -0.11791
      76 -> 78        -0.10464
      76 -> 80         0.23335
      76 -> 81         0.12529

 Excited State   8:      Singlet-A      5.7169 eV  216.87 nm  f=0.1618  <S**2>=0.000
      70 -> 77         0.12376
      72 -> 77         0.54586
      75 -> 78         0.12922
      75 -> 79        -0.11090
      76 -> 78        -0.10427
      76 -> 79         0.13092
      76 -> 80        -0.27751
      76 -> 81         0.13344

 Excited State   9:      Singlet-A      5.7351 eV  216.18 nm  f=0.0026  <S**2>=0.000
      74 -> 77        -0.20006
      74 -> 78         0.65959

 Excited State  10:      Singlet-A      5.7849 eV  214.32 nm  f=0.0163  <S**2>=0.000
      73 -> 77        -0.18721
      73 -> 78         0.34240
      73 -> 79         0.46382
      73 -> 80        -0.12942
      75 -> 78         0.10776
      75 -> 79        -0.19309
      76 -> 79        -0.18260

 The electronic state is 1-A.
 Alpha  occ. eigenvalues --  -19.20600 -19.19175 -19.14647 -19.13131 -10.32220
 Alpha  occ. eigenvalues --  -10.31309 -10.26168 -10.23994 -10.21899 -10.21108
 Alpha  occ. eigenvalues --  -10.20636 -10.20556 -10.20291 -10.20143 -10.20139
 Alpha  occ. eigenvalues --  -10.19970 -10.19928 -10.19810 -10.18693 -10.18673
 Alpha  occ. eigenvalues --  -10.17831  -1.11299  -1.09937  -1.02994  -1.00944
 Alpha  occ. eigenvalues --   -0.88341  -0.83901  -0.82426  -0.78436  -0.76541
 Alpha  occ. eigenvalues --   -0.73538  -0.72410  -0.69638  -0.69177  -0.67044
 Alpha  occ. eigenvalues --   -0.63573  -0.61780  -0.60667  -0.57740  -0.55714
 Alpha  occ. eigenvalues --   -0.53576  -0.51625  -0.49444  -0.49110  -0.48059
 Alpha  occ. eigenvalues --   -0.47957  -0.47055  -0.46697  -0.45746  -0.45223
 Alpha  occ. eigenvalues --   -0.43789  -0.43434  -0.42946  -0.42645  -0.41842
 Alpha  occ. eigenvalues --   -0.41022  -0.40579  -0.39561  -0.39410  -0.38519
 Alpha  occ. eigenvalues --   -0.38288  -0.37275  -0.37053  -0.35807  -0.35742
 Alpha  occ. eigenvalues --   -0.34519  -0.34076  -0.33869  -0.33121  -0.31333
 Alpha  occ. eigenvalues --   -0.30099  -0.29146  -0.27559  -0.27216  -0.24700
 Alpha  occ. eigenvalues --   -0.22273
 Alpha virt. eigenvalues --   -0.05732  -0.03120  -0.00146   0.02337   0.04392
 Alpha virt. eigenvalues --    0.07890   0.09234   0.11050   0.11487   0.11764
 Alpha virt. eigenvalues --    0.12367   0.12402   0.13768   0.14457   0.14800

 Mulliken atomic charges:
              1
     1  C   -0.206487
     2  O   -0.487695
     3  C    0.555143
     4  O   -0.527362
     5  C    0.043492
     6  C   -0.140400
     7  C   -0.193900
     8  C    0.136034
     9  C    0.149803
    10  C   -0.254894
    11  C   -0.191742
    12  C   -0.122884
    13  C    0.345696
    14  C   -0.226732
    15  O   -0.533949
    16  C    0.629766
    17  O   -0.461632
    18  C   -0.009980
    19  C   -0.452480
    20  C   -0.434575
    21  C   -0.451367
    22  H    0.150920
    23  H    0.163036
    24  H    0.163324
    25  H    0.172239
    26  H    0.146000
    27  H    0.164039
    28  H    0.162594
    29  H    0.169693
    30  H    0.157161
    31  H    0.150832
    32  H    0.164543
    33  H    0.151889
    34  H    0.156512
    35  H    0.139889
    36  H    0.158268
    37  H    0.160798
    38  H    0.153019
    39  H    0.151389
 Sum of Mulliken atomic charges =  -0.00000

 Dipole moment (field-independent basis, Debye):
    X=              4.1040    Y=              3.0925    Z=              1.2629  Tot=              5.2917
 Quadrupole moment (field-independent basis, Debye-Ang):
   XX=           -119.9972   YY=           -116.7709   ZZ=           -125.7788
   XY=             -8.9551   XZ=              5.7168   YZ=             -3.7941

 Summary of Natural Population Analysis:

                                       Natural Population
                Natural  -----------------------------------------------
    Atom  No    Charge         Core      Valence    Rydberg      Total
 -----------------------------------------------------------------------
      C    1   -0.31712      1.99943     4.30348    0.01421     6.31712
      O    2   -0.56732      1.99975     6.55710    0.01048     8.56732
      C    3    0.74271      1.99936     3.21284    0.04509     5.25729
      O    4   -0.64110      1.99979     6.62216    0.01914     8.64110
      C    5   -0.18922      1.99892     4.17253    0.01776     6.18922
      C    6   -0.12416      1.99908     4.11098    0.01410     6.12416
      C    7   -0.17823      1.99908     4.16454    0.01461     6.17823
      C    8   -0.08180      1.99903     4.06781    0.01495     6.08180
      C    9   -0.07216      1.99904     4.05824    0.01488     6.07216
      C   10   -0.17067      1.99903     4.15535    0.01628     6.17067
      C   11   -0.14961      1.99907     4.13604    0.01449     6.14961
      C   12   -0.20416      1.99902     4.19094    0.01420     6.20416
      C   13    0.25879      1.99875     3.71945    0.02301     5.74121
      C   14   -0.16735      1.99897     4.15416    0.01422     6.16735
      O   15   -0.54463      1.99970     6.53375    0.01119     8.54463
      C   16    0.83823      1.99927     3.11353    0.04896     5.16177
      O   17   -0.57413      1.99977     6.55433    0.02003     8.57413
      C   18   -0.15144      1.99905     4.14008    0.01232     6.15144
      C   19   -0.66985      1.99938     4.66071    0.00976     6.66985
      C   20   -0.67046      1.99940     4.65995    0.01111     6.67046
      C   21   -0.66935      1.99938     4.66015    0.00982     6.66935
      H   22    0.21432      0.00000     0.78501    0.00068     0.78568
      H   23    0.21504      0.00000     0.78325    0.00171     0.78496
      H   24    0.21520      0.00000     0.78309    0.00171     0.78480
      H   25    0.25827      0.00000     0.74065    0.00107     0.74173
      H   26    0.23732      0.00000     0.76158    0.00110     0.76268
      H   27    0.25650      0.00000     0.74138    0.00211     0.74350
      H   28    0.24717      0.00000     0.75179    0.00104     0.75283
      H   29    0.25985      0.00000     0.73922    0.00094     0.74015
      H   30    0.24826      0.00000     0.75032    0.00142     0.75174
      H   31    0.23573      0.00000     0.76335    0.00092     0.76427
      H   32    0.24418      0.00000     0.75475    0.00106     0.75582
      H   33    0.23694      0.00000     0.76197    0.00108     0.76306
      H   34    0.24306      0.00000     0.75591    0.00103     0.75694
      H   35    0.23159      0.00000     0.76751    0.00090     0.76841
      H   36    0.24394      0.00000     0.75504    0.00102     0.75606
      H   37    0.24215      0.00000     0.75672    0.00113     0.75785
      H   38    0.23691      0.00000     0.76219    0.00090     0.76309
      H   39    0.23658      0.00000     0.76240    0.00102     0.76342
 =======================================================================
   * Total *   -0.00000     41.98428   109.62427    0.39145   152.00000

 Normal termination of Gaussian 09 at Wed Sep 29 16:20:20 2021.
