 Gaussian 09, Revision A.02,

 -----------------------------------
 #p opt b3lyp/6-31G* scf=(xqc,tight)
 -----------------------------------

 -----------------------------------------------
 COC(=O)c1ccc2c(c1)ccc(c2)OC(=O)OC(C)(C)C_conf_0
 -----------------------------------------------
 Symbolic Z-matrix:
 Charge =  0 Multiplicity = 1

 SCF Done:  E(RB3LYP) =  -1034.80996491     A.U. after   15 cycles
 SCF Done:  E(RB3LYP) =  -1034.81830968     A.U. after   13 cycles
 SCF Done:  E(RB3LYP) =  -1034.81721659     A.U. after   13 cycles
 SCF Done:  E(RB3LYP) =  -1034.81934375     A.U. after   12 cycles
 SCF Done:  E(RB3LYP) =  -1034.82036059     A.U. after   12 cycles
 SCF Done:  E(RB3LYP) =  -1034.82009944     A.U. after   13 cycles
 SCF Done:  E(RB3LYP) =  -1034.82066747     A.U. after   13 cycles
 SCF Done:  E(RB3LYP) =  -1034.82092864     A.U. after   12 cycles
 SCF Done:  E(RB3LYP) =  -1034.82096157     A.U. after   12 cycles
 SCF Done:  E(RB3LYP) =  -1034.82099256     A.U. after   10 cycles
 SCF Done:  E(RB3LYP) =  -1034.82099864     A.U. after    9 cycles
 SCF Done:  E(RB3LYP) =  -1034.82099987     A.U. after    9 cycles
 SCF Done:  E(RB3LYP) =  -1034.82100213     A.U. after    8 cycles
 SCF Done:  E(RB3LYP) =  -1034.82100246     A.U. after    9 cycles
 SCF Done:  E(RB3LYP) =  -1034.82100259     A.U. after    7 cycles
 Optimization completed.
    -- Stationary point found.
 Normal termination of Gaussian 09 at Thu Sep 30 04:50:53 2021.

 ----------------------------------------------------------------------
 #p freq b3lyp/6-31G* volume NMR pop=NPA density=current Geom=AllCheck
 Guess=Read
 ----------------------------------------------------------------------

 COC(=O)c1ccc2c(c1)ccc(c2)OC(=O)OC(C)(C)C_conf_0
 -----------------------------------------------
 Redundant internal coordinates taken from checkpoint file:
 C17H18O5_dc58_conf_0.chk
 Charge =  0 Multiplicity = 1

 SCF Done:  E(RB3LYP) =  -1034.82100259     A.U. after    1 cycles

  1  C    Isotropic =   138.9731   Anisotropy =    62.6422

  2  O    Isotropic =   164.9968   Anisotropy =   130.4180

  3  C    Isotropic =    32.2015   Anisotropy =    73.5645

  4  O    Isotropic =   -41.9979   Anisotropy =   569.2147

  5  C    Isotropic =    68.5402   Anisotropy =   143.1378

  6  C    Isotropic =    69.5192   Anisotropy =   165.1864

  7  C    Isotropic =    68.2819   Anisotropy =   142.5362

  8  C    Isotropic =    60.7902   Anisotropy =   196.5461

  9  C    Isotropic =    66.3068   Anisotropy =   192.6798

 10  C    Isotropic =    62.1998   Anisotropy =   159.7443

 11  C    Isotropic =    64.7568   Anisotropy =   146.5055

 12  C    Isotropic =    73.4114   Anisotropy =   149.9812

 13  C    Isotropic =    44.2571   Anisotropy =   107.8725

 14  C    Isotropic =    78.0979   Anisotropy =   120.1140

 15  O    Isotropic =   133.0518   Anisotropy =   135.7058

 16  C    Isotropic =    45.4279   Anisotropy =    90.9430

 17  O    Isotropic =    50.2633   Anisotropy =   367.8816

 18  O    Isotropic =   143.1848   Anisotropy =    68.8906

 19  C    Isotropic =   108.3378   Anisotropy =    72.7399

 20  C    Isotropic =   165.1204   Anisotropy =    35.5300

 21  C    Isotropic =   159.3609   Anisotropy =    41.5642

 22  C    Isotropic =   165.3267   Anisotropy =    34.7971

 23  H    Isotropic =    28.6526   Anisotropy =     7.4326

 24  H    Isotropic =    28.2406   Anisotropy =     8.4694

 25  H    Isotropic =    28.2509   Anisotropy =     8.4849

 26  H    Isotropic =    24.2070   Anisotropy =     8.8905

 27  H    Isotropic =    24.6379   Anisotropy =     7.8989

 28  H    Isotropic =    23.5391   Anisotropy =     9.7151

 29  H    Isotropic =    24.3666   Anisotropy =     7.6488

 30  H    Isotropic =    24.6140   Anisotropy =     9.4122

 31  H    Isotropic =    25.0041   Anisotropy =     9.0045

 32  H    Isotropic =    30.8753   Anisotropy =     6.9867

 33  H    Isotropic =    29.4595   Anisotropy =     6.2777

 34  H    Isotropic =    31.1212   Anisotropy =     8.3029

 35  H    Isotropic =    30.6557   Anisotropy =     7.1468

 36  H    Isotropic =    31.1130   Anisotropy =     8.0208

 37  H    Isotropic =    30.6508   Anisotropy =     7.5832

 38  H    Isotropic =    29.5887   Anisotropy =     5.4463

 39  H    Isotropic =    30.9318   Anisotropy =     7.3438

 40  H    Isotropic =    31.1657   Anisotropy =     8.3253

  Exact polarizability: 341.692  -8.421 180.507  10.792  -2.505 102.642
 Approx polarizability: 436.791 -12.179 324.553  21.937   0.822 158.123

                     1                      2                      3
                     A                      A                      A
 Frequencies --    19.0564                29.5303                39.7836
 Red. masses --     4.7688                 4.0618                 4.4224
 Frc consts  --     0.0010                 0.0021                 0.0041
 IR Inten    --     0.4459                 0.3221                 0.3300

                     4                      5                      6
                     A                      A                      A
 Frequencies --    50.1953                79.1917                83.1685
 Red. masses --     5.6365                 6.0363                 4.6970
 Frc consts  --     0.0084                 0.0223                 0.0191
 IR Inten    --     1.2451                 0.7812                 0.7550

                     7                      8                      9
                     A                      A                      A
 Frequencies --   116.1239               126.0236               133.7462
 Red. masses --     3.8671                 3.9683                 2.1209
 Frc consts  --     0.0307                 0.0371                 0.0224
 IR Inten    --     0.1653                 0.9684                 1.6215

                    10                     11                     12
                     A                      A                      A
 Frequencies --   149.7455               179.1174               193.3097
 Red. masses --     1.6438                 5.1268                 3.8862
 Frc consts  --     0.0217                 0.0969                 0.0856
 IR Inten    --     0.6404                 1.3332                 0.9106

                    13                     14                     15
                     A                      A                      A
 Frequencies --   194.9813               206.8279               242.6558
 Red. masses --     4.6424                 1.0725                 5.2099
 Frc consts  --     0.1040                 0.0270                 0.1807
 IR Inten    --     4.4932                 0.0483                 1.2567

                    16                     17                     18
                     A                      A                      A
 Frequencies --   254.7254               273.2452               274.4325
 Red. masses --     1.0661                 1.0744                 4.8293
 Frc consts  --     0.0408                 0.0473                 0.2143
 IR Inten    --     0.0411                 0.0905                16.0985

                    19                     20                     21
                     A                      A                      A
 Frequencies --   314.3110               324.9891               345.6569
 Red. masses --     5.1423                 3.2873                 3.8266
 Frc consts  --     0.2993                 0.2046                 0.2694
 IR Inten    --     0.6069                15.1539                 4.9065

                    22                     23                     24
                     A                      A                      A
 Frequencies --   350.1142               359.8375               413.9587
 Red. masses --     2.8923                 6.1910                 3.5515
 Frc consts  --     0.2089                 0.4723                 0.3586
 IR Inten    --     2.9874                 5.5752                 4.1942

                    25                     26                     27
                     A                      A                      A
 Frequencies --   421.1427               439.7961               456.0678
 Red. masses --     3.4640                 4.0730                 2.8837
 Frc consts  --     0.3620                 0.4642                 0.3534
 IR Inten    --     3.8047                 2.6592                 5.0563

                    28                     29                     30
                     A                      A                      A
 Frequencies --   460.1168               494.1446               515.7535
 Red. masses --     2.9773                 2.7411                 5.3370
 Frc consts  --     0.3714                 0.3944                 0.8364
 IR Inten    --     2.4840                 8.7507                 4.7685

                    31                     32                     33
                     A                      A                      A
 Frequencies --   532.5760               549.5044               594.5320
 Red. masses --     6.3097                 4.0183                 5.4577
 Frc consts  --     1.0544                 0.7149                 1.1366
 IR Inten    --     1.9338                 2.4319                12.9022

                    34                     35                     36
                     A                      A                      A
 Frequencies --   648.0583               660.5208               730.4957
 Red. masses --     4.7086                 6.0669                 6.1416
 Frc consts  --     1.1651                 1.5595                 1.9309
 IR Inten    --     0.1149                 0.9325                 8.0151

                    37                     38                     39
                     A                      A                      A
 Frequencies --   741.2195               759.2523               773.5584
 Red. masses --     4.2795                 5.2129                 8.5110
 Frc consts  --     1.3853                 1.7705                 3.0007
 IR Inten    --     3.3166                15.5169                34.1520

                    40                     41                     42
                     A                      A                      A
 Frequencies --   775.4720               795.8038               796.2621
 Red. masses --     3.8401                 4.5162                 4.4333
 Frc consts  --     1.3606                 1.6851                 1.6561
 IR Inten    --     5.0631                 8.1972                 4.4080

                    43                     44                     45
                     A                      A                      A
 Frequencies --   825.0233               841.2021               842.8797
 Red. masses --     1.5097                 1.7819                 3.9558
 Frc consts  --     0.6054                 0.7429                 1.6558
 IR Inten    --    18.3852                 1.7030                13.2091

                    46                     47                     48
                     A                      A                      A
 Frequencies --   887.3898               906.9603               928.4693
 Red. masses --     3.2373                 1.8707                 5.4865
 Frc consts  --     1.5020                 0.9066                 2.7866
 IR Inten    --    53.9221                50.1462                15.0314

                    49                     50                     51
                     A                      A                      A
 Frequencies --   934.9643               938.1564               946.1088
 Red. masses --     1.6309                 1.6523                 1.3768
 Frc consts  --     0.8400                 0.8568                 0.7261
 IR Inten    --     0.0878                 3.5143                 8.7569

                    52                     53                     54
                     A                      A                      A
 Frequencies --   968.1167               979.6791               979.9044
 Red. masses --     1.3880                 3.7999                 1.3601
 Frc consts  --     0.7665                 2.1488                 0.7694
 IR Inten    --     5.4798                14.6628                 0.9216

                    55                     56                     57
                     A                      A                      A
 Frequencies --   983.8772              1029.7781              1052.8481
 Red. masses --     1.1989                 4.8486                 2.5159
 Frc consts  --     0.6838                 3.0294                 1.6431
 IR Inten    --     0.1757                29.0778                 9.3152

                    58                     59                     60
                     A                      A                      A
 Frequencies --  1065.5077              1079.6824              1133.2710
 Red. masses --     1.4100                 1.8599                 2.4362
 Frc consts  --     0.9432                 1.2774                 1.8435
 IR Inten    --     0.4356                 6.9121                54.6868

                    61                     62                     63
                     A                      A                      A
 Frequencies --  1171.7419              1185.5735              1187.6167
 Red. masses --     1.5899                 1.2731                 1.2431
 Frc consts  --     1.2861                 1.0543                 1.0330
 IR Inten    --     2.3386                 0.8442                24.8630

                    64                     65                     66
                     A                      A                      A
 Frequencies --  1190.8048              1210.0494              1222.4030
 Red. masses --     1.9562                 2.1926                 1.5099
 Frc consts  --     1.6343                 1.8915                 1.3293
 IR Inten    --   950.0207               565.4578                11.5954

                    67                     68                     69
                     A                      A                      A
 Frequencies --  1242.4420              1283.6172              1285.9789
 Red. masses --     2.6741                 2.9216                 2.7258
 Frc consts  --     2.4321                 2.8363                 2.6559
 IR Inten    --   384.4627               302.5378                23.2023

                    70                     71                     72
                     A                      A                      A
 Frequencies --  1290.5260              1295.0644              1307.3201
 Red. masses --     3.2096                 2.0360                 3.6977
 Frc consts  --     3.1494                 2.0120                 3.7234
 IR Inten    --   352.9597                71.9341               857.7671

                    73                     74                     75
                     A                      A                      A
 Frequencies --  1319.0942              1380.7748              1423.8410
 Red. masses --     3.7028                 1.9390                 4.8203
 Frc consts  --     3.7961                 2.1781                 5.7576
 IR Inten    --    73.3974                 4.9465                 5.0780

                    76                     77                     78
                     A                      A                      A
 Frequencies --  1424.6264              1425.5583              1429.0578
 Red. masses --     1.3127                 4.7384                 1.2995
 Frc consts  --     1.5697                 5.6735                 1.5636
 IR Inten    --    14.8152                 6.0083                18.5273

                    79                     80                     81
                     A                      A                      A
 Frequencies --  1454.1315              1455.6107              1492.9646
 Red. masses --     1.2350                 4.0948                 1.2167
 Frc consts  --     1.5386                 5.1117                 1.5978
 IR Inten    --    18.1021                 8.4560                11.2843

                    82                     83                     84
                     A                      A                      A
 Frequencies --  1500.7574              1512.4715              1519.2479
 Red. masses --     1.0464                 1.0482                 1.0467
 Frc consts  --     1.3885                 1.4127                 1.4235
 IR Inten    --     0.4290                 5.7673                 0.9024

                    85                     86                     87
                     A                      A                      A
 Frequencies --  1520.5013              1524.5130              1525.8481
 Red. masses --     1.0511                 1.2735                 1.1589
 Frc consts  --     1.4317                 1.7438                 1.5897
 IR Inten    --     0.6931                55.6491                10.7708

                    88                     89                     90
                     A                      A                      A
 Frequencies --  1527.5836              1533.2017              1555.1849
 Red. masses --     1.5508                 1.0535                 1.1309
 Frc consts  --     2.1322                 1.4591                 1.6115
 IR Inten    --    33.8631                 1.1646                24.7586

                    91                     92                     93
                     A                      A                      A
 Frequencies --  1555.8977              1624.4467              1663.9974
 Red. masses --     3.0498                 7.3377                 5.9046
 Frc consts  --     4.3499                11.4083                 9.6327
 IR Inten    --    20.0735                 1.1155                 0.8266

                    94                     95                     96
                     A                      A                      A
 Frequencies --  1686.6570              1799.3779              1826.1119
 Red. masses --     6.4939                11.6092                12.0624
 Frc consts  --    10.8846                22.1462                23.6995
 IR Inten    --    94.9750               215.9090               238.3330

                    97                     98                     99
                     A                      A                      A
 Frequencies --  3060.5452              3061.3021              3068.6306
 Red. masses --     1.0357                 1.0376                 1.0378
 Frc consts  --     5.7156                 5.7294                 5.7575
 IR Inten    --     7.2372                20.2723                20.4952

                   100                    101                    102
                     A                      A                      A
 Frequencies --  3074.6309              3124.0313              3126.1469
 Red. masses --     1.0294                 1.1026                 1.1024
 Frc consts  --     5.7337                 6.3400                 6.3478
 IR Inten    --    46.8587                 7.6522                15.8753

                   103                    104                    105
                     A                      A                      A
 Frequencies --  3138.8187              3139.1194              3148.9276
 Red. masses --     1.1032                 1.1028                 1.1075
 Frc consts  --     6.4036                 6.4024                 6.4700
 IR Inten    --    29.7042                39.9710                21.4822

                   106                    107                    108
                     A                      A                      A
 Frequencies --  3167.4458              3170.4221              3180.1411
 Red. masses --     1.1005                 1.0999                 1.1072
 Frc consts  --     6.5050                 6.5136                 6.5971
 IR Inten    --     0.9173                16.0235                18.9394

                   109                    110                    111
                     A                      A                      A
 Frequencies --  3188.8375              3195.0515              3211.4538
 Red. masses --     1.0896                 1.0901                 1.0914
 Frc consts  --     6.5283                 6.5562                 6.6318
 IR Inten    --    10.3497                 7.5485                 5.8002

                   112                    113                    114
                     A                      A                      A
 Frequencies --  3213.2941              3236.4490              3248.6791
 Red. masses --     1.0904                 1.0924                 1.0933
 Frc consts  --     6.6334                 6.7417                 6.7981
 IR Inten    --     0.6019                 4.5387                 3.1899

 - Thermochemistry -
 -------------------
 Temperature   298.150 Kelvin.  Pressure   1.00000 Atm.
 Atom     1 has atomic number  6 and mass  12.00000

 Molecular mass:   302.11542 amu.
 Principal axes and moments of inertia in atomic units:
                           1         2         3
     Eigenvalues --  1423.37375********************
           X            1.00000  -0.00214  -0.00080
           Y            0.00213   0.99987  -0.01596
           Z            0.00084   0.01596   0.99987
 This molecule is an asymmetric top.
 Rotational symmetry number  1.
 Warning -- assumption of classical behavior for rotation
           may cause significant error
 Rotational temperatures (Kelvin)      0.06085     0.00402     0.00389
 Rotational constants (GHZ):           1.26793     0.08382     0.08096
 Zero-point vibrational energy     846545.4 (Joules/Mol)
                                  202.32921 (Kcal/Mol)
 Warning -- explicit consideration of  33 degrees of freedom as
           vibrations may cause significant error
 Vibrational temperatures:     27.42    42.49    57.24    72.22   113.94
          (Kelvin)            119.66   167.08   181.32   192.43   215.45
                              257.71   278.13   280.53   297.58   349.13
                              366.49   393.14   394.85   452.22   467.59
                              497.32   503.74   517.73   595.59   605.93
                              632.77   656.18   662.00   710.96   742.05
                              766.26   790.61   855.40   932.41   950.34
                             1051.02  1066.45  1092.39  1112.98  1115.73
                             1144.98  1145.64  1187.02  1210.30  1212.71
                             1276.75  1304.91  1335.86  1345.20  1349.80
                             1361.24  1392.90  1409.54  1409.86  1415.58
                             1481.62  1514.81  1533.03  1553.42  1630.52
                             1685.87  1705.77  1708.71  1713.30  1740.99
                             1758.76  1787.59  1846.84  1850.23  1856.78
                             1863.31  1880.94  1897.88  1986.62  2048.59
                             2049.72  2051.06  2056.09  2092.17  2094.30
                             2148.04  2159.25  2176.11  2185.86  2187.66
                             2193.43  2195.35  2197.85  2205.93  2237.56
                             2238.59  2337.21  2394.12  2426.72  2588.90
                             2627.36  4403.44  4404.53  4415.07  4423.70
                             4494.78  4497.82  4516.05  4516.49  4530.60
                             4557.24  4561.52  4575.51  4588.02  4596.96
                             4620.56  4623.21  4656.52  4674.12

 Zero-point correction=                           0.322432 (Hartree/Particle)
 Thermal correction to Energy=                    0.343370
 Thermal correction to Enthalpy=                  0.344315
 Thermal correction to Gibbs Free Energy=         0.271266
 Sum of electronic and zero-point Energies=          -1034.498570
 Sum of electronic and thermal Energies=             -1034.477632
 Sum of electronic and thermal Enthalpies=           -1034.476688
 Sum of electronic and thermal Free Energies=        -1034.549737

                     E (Thermal)             CV                S
                      KCal/Mol        Cal/Mol-Kelvin    Cal/Mol-Kelvin
 Total                  215.468             79.084            153.744
 Electronic               0.000              0.000              0.000
 Translational            0.889              2.981             43.014
 Rotational               0.889              2.981             34.879
 Vibrational            213.691             73.122             75.851
 Vibration     1          0.593              1.986              6.730
 Vibration     2          0.593              1.984              5.861
 Vibration     3          0.594              1.981              5.270
 Vibration     4          0.595              1.978              4.810
 Vibration     5          0.600              1.963              3.911
 Vibration     6          0.600              1.961              3.815
 Vibration     7          0.608              1.936              3.164
 Vibration     8          0.611              1.927              3.006
 Vibration     9          0.613              1.920              2.891
 Vibration    10          0.618              1.903              2.675
 Vibration    11          0.629              1.868              2.338
 Vibration    12          0.635              1.849              2.196
 Vibration    13          0.636              1.847              2.180
 Vibration    14          0.641              1.830              2.071
 Vibration    15          0.659              1.775              1.783
 Vibration    16          0.665              1.755              1.698
 Vibration    17          0.676              1.723              1.576
 Vibration    18          0.677              1.721              1.568
 Vibration    19          0.702              1.646              1.340
 Vibration    20          0.709              1.625              1.285
 Vibration    21          0.724              1.584              1.186
 Vibration    22          0.727              1.575              1.166
 Vibration    23          0.734              1.555              1.123
 Vibration    24          0.778              1.440              0.913
 Vibration    25          0.784              1.424              0.888
 Vibration    26          0.800              1.383              0.827
 Vibration    27          0.814              1.347              0.778
 Vibration    28          0.818              1.339              0.766
 Vibration    29          0.850              1.263              0.673
 Vibration    30          0.871              1.215              0.620
 Vibration    31          0.888              1.178              0.581
 Vibration    32          0.905              1.141              0.545
 Vibration    33          0.952              1.043              0.459

 Normal termination of Gaussian 09 at Thu Sep 30 07:38:16 2021.
 Gaussian 09:  AM64L-G09RevA.02 11-Jun-2009

 ----------------------------------------------------------------------
 #p TD(NStates=10, Root=1) b3lyp/6-31G* volume pop=NPA density=current
 Geom=AllCheck Guess=Read
 ----------------------------------------------------------------------

 COC(=O)c1ccc2c(c1)ccc(c2)OC(=O)OC(C)(C)C_conf_0
 -----------------------------------------------
 Redundant internal coordinates taken from checkpoint file:
 C17H18O5_dc58_conf_0.chk
 Charge =  0 Multiplicity = 1

                         Standard orientation:
 ---------------------------------------------------------------------
 Center     Atomic      Atomic             Coordinates (Angstroms)
 Number     Number       Type             X           Y           Z
 ---------------------------------------------------------------------
      1          6           0        7.706933   -0.311401    0.361941
      2          8           0        6.319149   -0.659495    0.250795
      3          6           0        5.471135    0.388113    0.116476
      4          8           0        5.847834    1.544005    0.090253
      5          6           0        4.050425   -0.044314    0.007605
      6          6           0        3.667746   -1.413778    0.038715
      7          6           0        2.343598   -1.765184   -0.066841
      8          6           0        1.331390   -0.776310   -0.207165
      9          6           0        1.715566    0.604402   -0.237389
     10          6           0        3.086373    0.937401   -0.127861
     11          6           0        0.705104    1.594292   -0.381654
     12          6           0       -0.621375    1.251782   -0.491367
     13          6           0       -0.983527   -0.116620   -0.452079
     14          6           0       -0.042333   -1.109101   -0.317170
     15          8           0       -2.297551   -0.531710   -0.656791
     16          6           0       -3.309727    0.058673    0.040009
     17          8           0       -3.173760    0.916794    0.881335
     18          8           0       -4.433344   -0.506398   -0.396538
     19          6           0       -5.746514   -0.101300    0.154610
     20          6           0       -5.998105    1.379505   -0.143071
     21          6           0       -6.713041   -0.990251   -0.630231
     22          6           0       -5.800843   -0.417445    1.651772
     23          1           0        8.238839   -1.258222    0.461080
     24          1           0        7.875999    0.318984    1.239097
     25          1           0        8.041076    0.226480   -0.529363
     26          1           0        4.432730   -2.174064    0.145955
     27          1           0        2.052472   -2.812354   -0.043766
     28          1           0        3.397157    1.977751   -0.149784
     29          1           0        0.998003    2.640560   -0.408343
     30          1           0       -1.387666    2.009206   -0.596548
     31          1           0       -0.359400   -2.147408   -0.303019
     32          1           0       -5.902878    1.574062   -1.216855
     33          1           0       -5.296987    2.017201    0.397901
     34          1           0       -7.016916    1.644391    0.160301
     35          1           0       -6.631122   -0.796105   -1.704296
     36          1           0       -7.742888   -0.789155   -0.317699
     37          1           0       -6.495834   -2.048264   -0.453301
     38          1           0       -5.097771    0.199299    2.214285
     39          1           0       -5.568213   -1.473295    1.827273
     40          1           0       -6.812050   -0.225409    2.026841
 ---------------------------------------------------------------------

 SCF Done:  E(RB3LYP) =  -1034.82100259     A.U. after    1 cycles

 Excitation energies and oscillator strengths:

 Excited State   1:      Singlet-A      4.0683 eV  304.76 nm  f=0.0740  <S**2>=0.000
      79 -> 81        -0.24731
      79 -> 82         0.15516
      80 -> 81         0.60760
      80 -> 82         0.20321
 This state for optimization and/or second-order correction.
 Total Energy, E(TD-HF/TD-KS) =  -1034.67149607
 Copying the excited state density for this state as the 1-particle RhoCI density.

 Excited State   2:      Singlet-A      4.2958 eV  288.62 nm  f=0.0585  <S**2>=0.000
      79 -> 81        -0.44103
      80 -> 81        -0.31743
      80 -> 82         0.44243

 Excited State   3:      Singlet-A      4.7188 eV  262.75 nm  f=0.0002  <S**2>=0.000
      78 -> 81         0.66360
      78 -> 82         0.18645
      78 -> 83         0.11370

 Excited State   4:      Singlet-A      5.2563 eV  235.88 nm  f=1.1044  <S**2>=0.000
      79 -> 81         0.46085
      79 -> 82         0.17157
      80 -> 82         0.46948

 Excited State   5:      Singlet-A      5.5292 eV  224.23 nm  f=0.0260  <S**2>=0.000
      76 -> 81        -0.14244
      77 -> 81         0.41219
      79 -> 82        -0.39429
      80 -> 83         0.35370

 Excited State   6:      Singlet-A      5.6076 eV  221.10 nm  f=0.1344  <S**2>=0.000
      76 -> 81         0.13412
      77 -> 81         0.52615
      79 -> 82         0.34626
      80 -> 83        -0.12924

 Excited State   7:      Singlet-A      5.7309 eV  216.34 nm  f=0.2840  <S**2>=0.000
      76 -> 81         0.52787
      79 -> 81         0.10174
      79 -> 82        -0.26110
      80 -> 82         0.12420
      80 -> 83        -0.21473
      80 -> 85        -0.13030

 Excited State   8:      Singlet-A      5.7430 eV  215.89 nm  f=0.0022  <S**2>=0.000
      78 -> 81        -0.20450
      78 -> 82         0.65976

 Excited State   9:      Singlet-A      6.0497 eV  204.94 nm  f=0.1673  <S**2>=0.000
      73 -> 81        -0.14435
      75 -> 81        -0.12336
      76 -> 81         0.19001
      76 -> 82         0.14989
      77 -> 82        -0.28347
      79 -> 82         0.24488
      79 -> 83        -0.18318
      79 -> 84        -0.11071
      80 -> 83         0.37779
      80 -> 84        -0.20278

 Excited State  10:      Singlet-A      6.0881 eV  203.65 nm  f=0.0435  <S**2>=0.000
      75 -> 81         0.59621
      76 -> 81         0.23024
      77 -> 82         0.10532
      80 -> 83         0.19335

 The electronic state is 1-A.
 Alpha  occ. eigenvalues --  -19.20834 -19.19602 -19.19097 -19.14181 -19.13051
 Alpha  occ. eigenvalues --  -10.36841 -10.31227 -10.26731 -10.26213 -10.23928
 Alpha  occ. eigenvalues --  -10.20996 -10.20527 -10.20457 -10.20201 -10.20048
 Alpha  occ. eigenvalues --  -10.20040 -10.19823 -10.19816 -10.19694 -10.18592
 Alpha  occ. eigenvalues --  -10.18276 -10.18222  -1.14492  -1.09858  -1.06082
 Alpha  occ. eigenvalues --   -1.02612  -1.00864  -0.88241  -0.83632  -0.81836
 Alpha  occ. eigenvalues --   -0.78335  -0.76460  -0.73462  -0.72345  -0.70175
 Alpha  occ. eigenvalues --   -0.70062  -0.67395  -0.63532  -0.62163  -0.60570
 Alpha  occ. eigenvalues --   -0.58133  -0.55779  -0.53485  -0.51948  -0.51407
 Alpha  occ. eigenvalues --   -0.49457  -0.48993  -0.47989  -0.47884  -0.47058
 Alpha  occ. eigenvalues --   -0.46441  -0.45905  -0.45085  -0.45013  -0.43491
 Alpha  occ. eigenvalues --   -0.42755  -0.42141  -0.41915  -0.41410  -0.40458
 Alpha  occ. eigenvalues --   -0.39949  -0.39697  -0.38958  -0.38149  -0.37594
 Alpha  occ. eigenvalues --   -0.36884  -0.36242  -0.36203  -0.35687  -0.34612
 Alpha  occ. eigenvalues --   -0.34300  -0.33380  -0.31358  -0.30604  -0.30022
 Alpha  occ. eigenvalues --   -0.29149  -0.28391  -0.27141  -0.24586  -0.22161
 Alpha virt. eigenvalues --   -0.05597  -0.03005   0.01648   0.03384   0.04768
 Alpha virt. eigenvalues --    0.07759   0.08596   0.10043   0.11228   0.11752
 Alpha virt. eigenvalues --    0.12019   0.12518   0.14080   0.14229   0.14763

 Mulliken atomic charges:
              1
     1  C   -0.205989
     2  O   -0.488123
     3  C    0.553426
     4  O   -0.528908
     5  C    0.043633
     6  C   -0.140406
     7  C   -0.193934
     8  C    0.135355
     9  C    0.150617
    10  C   -0.256144
    11  C   -0.192358
    12  C   -0.121963
    13  C    0.340875
    14  C   -0.225161
    15  O   -0.514508
    16  C    0.795867
    17  O   -0.480753
    18  O   -0.485420
    19  C    0.302452
    20  C   -0.469604
    21  C   -0.450239
    22  C   -0.468627
    23  H    0.150281
    24  H    0.162700
    25  H    0.162543
    26  H    0.172028
    27  H    0.146270
    28  H    0.163001
    29  H    0.162173
    30  H    0.171331
    31  H    0.161367
    32  H    0.152826
    33  H    0.185664
    34  H    0.150174
    35  H    0.159626
    36  H    0.149869
    37  H    0.159407
    38  H    0.187803
    39  H    0.153397
    40  H    0.149448
 Sum of Mulliken atomic charges =  -0.00000

 Dipole moment (field-independent basis, Debye):
    X=             -5.1752    Y=             -2.4149    Z=             -0.4161  Tot=              5.7261
 Quadrupole moment (field-independent basis, Debye-Ang):
   XX=           -117.2259   YY=           -122.2593   ZZ=           -129.8793
   XY=            -14.1176   XZ=              0.5106   YZ=             -3.7840

 Summary of Natural Population Analysis:

                                       Natural Population
                Natural  -----------------------------------------------
    Atom  No    Charge         Core      Valence    Rydberg      Total
 -----------------------------------------------------------------------
      C    1   -0.31694      1.99943     4.30330    0.01421     6.31694
      O    2   -0.56786      1.99975     6.55764    0.01048     8.56786
      C    3    0.74046      1.99936     3.21507    0.04511     5.25954
      O    4   -0.64275      1.99979     6.62382    0.01914     8.64275
      C    5   -0.18932      1.99893     4.17260    0.01780     6.18932
      C    6   -0.12317      1.99908     4.10999    0.01410     6.12317
      C    7   -0.17856      1.99908     4.16484    0.01464     6.17856
      C    8   -0.08260      1.99903     4.06862    0.01495     6.08260
      C    9   -0.07130      1.99904     4.05737    0.01490     6.07130
      C   10   -0.17382      1.99903     4.15842    0.01636     6.17382
      C   11   -0.14992      1.99907     4.13634    0.01451     6.14992
      C   12   -0.20661      1.99902     4.19358    0.01401     6.20661
      C   13    0.25894      1.99874     3.72003    0.02229     5.74106
      C   14   -0.16592      1.99897     4.15255    0.01439     6.16592
      O   15   -0.53020      1.99968     6.51917    0.01135     8.53020
      C   16    1.05617      1.99953     2.89178    0.05252     4.94383
      O   17   -0.63740      1.99976     6.61750    0.02014     8.63740
      O   18   -0.55870      1.99970     6.54631    0.01270     8.55870
      C   19    0.28225      1.99900     3.69998    0.01877     5.71775
      C   20   -0.70381      1.99932     4.69529    0.00920     6.70381
      C   21   -0.68561      1.99932     4.67607    0.01022     6.68561
      C   22   -0.70361      1.99932     4.69506    0.00923     6.70361
      H   23    0.21394      0.00000     0.78538    0.00068     0.78606
      H   24    0.21485      0.00000     0.78343    0.00172     0.78515
      H   25    0.21477      0.00000     0.78351    0.00172     0.78523
      H   26    0.25808      0.00000     0.74084    0.00108     0.74192
      H   27    0.23744      0.00000     0.76146    0.00110     0.76256
      H   28    0.25612      0.00000     0.74175    0.00213     0.74388
      H   29    0.24698      0.00000     0.75198    0.00104     0.75302
      H   30    0.26080      0.00000     0.73817    0.00104     0.73920
      H   31    0.25075      0.00000     0.74789    0.00137     0.74925
      H   32    0.23803      0.00000     0.76082    0.00116     0.76197
      H   33    0.25721      0.00000     0.74160    0.00118     0.74279
      H   34    0.24031      0.00000     0.75892    0.00076     0.75969
      H   35    0.24299      0.00000     0.75594    0.00107     0.75701
      H   36    0.23833      0.00000     0.76100    0.00067     0.76167
      H   37    0.24290      0.00000     0.75602    0.00108     0.75710
      H   38    0.25842      0.00000     0.74044    0.00114     0.74158
      H   39    0.23851      0.00000     0.76033    0.00115     0.76149
      H   40    0.23983      0.00000     0.75941    0.00076     0.76017
 =======================================================================
   * Total *    0.00000     43.98395   115.60420    0.41185   160.00000

 Normal termination of Gaussian 09 at Thu Sep 30 15:26:17 2021.
