 Gaussian 09, Revision A.02,

 -----------------------------------
 #p opt b3lyp/6-31G* scf=(xqc,tight)
 -----------------------------------

 -------------------------------------------
 O=C(c1c(Cl)cccc1Cl)Oc1ccc2c(c1)cccc2_conf_0
 -------------------------------------------
 Symbolic Z-matrix:
 Charge =  0 Multiplicity = 1

 SCF Done:  E(RB3LYP) =  -1724.67151271     A.U. after   16 cycles
 SCF Done:  E(RB3LYP) =  -1724.68033972     A.U. after   13 cycles
 SCF Done:  E(RB3LYP) =  -1724.67988616     A.U. after   15 cycles
 SCF Done:  E(RB3LYP) =  -1724.68167164     A.U. after   13 cycles
 SCF Done:  E(RB3LYP) =  -1724.68238786     A.U. after   13 cycles
 SCF Done:  E(RB3LYP) =  -1724.68250432     A.U. after   12 cycles
 SCF Done:  E(RB3LYP) =  -1724.68255768     A.U. after   12 cycles
 SCF Done:  E(RB3LYP) =  -1724.68258911     A.U. after   11 cycles
 SCF Done:  E(RB3LYP) =  -1724.68261572     A.U. after   12 cycles
 SCF Done:  E(RB3LYP) =  -1724.68264700     A.U. after   13 cycles
 SCF Done:  E(RB3LYP) =  -1724.68272904     A.U. after   12 cycles
 SCF Done:  E(RB3LYP) =  -1724.68272800     A.U. after   10 cycles
 SCF Done:  E(RB3LYP) =  -1724.68272494     A.U. after   10 cycles
 SCF Done:  E(RB3LYP) =  -1724.68273013     A.U. after   10 cycles
 SCF Done:  E(RB3LYP) =  -1724.68265494     A.U. after   11 cycles
 SCF Done:  E(RB3LYP) =  -1724.68271769     A.U. after   11 cycles
 SCF Done:  E(RB3LYP) =  -1724.68273154     A.U. after   11 cycles
 SCF Done:  E(RB3LYP) =  -1724.68273167     A.U. after    8 cycles
 Optimization completed.
    -- Stationary point found.
 Normal termination of Gaussian 09 at Wed Sep 29 11:50:14 2021.

 ----------------------------------------------------------------------
 #p freq b3lyp/6-31G* volume NMR pop=NPA density=current Geom=AllCheck
 Guess=Read
 ----------------------------------------------------------------------

 O=C(c1c(Cl)cccc1Cl)Oc1ccc2c(c1)cccc2_conf_0
 -------------------------------------------
 Redundant internal coordinates taken from checkpoint file:
 C17H10Cl2O2_71f8_conf_0.chk
 Charge =  0 Multiplicity = 1

 SCF Done:  E(RB3LYP) =  -1724.68273167     A.U. after    1 cycles

  1  O    Isotropic =   -92.9795   Anisotropy =   574.4457

  2  C    Isotropic =    35.0991   Anisotropy =    78.1774

  3  C    Isotropic =    59.6853   Anisotropy =   123.9207

  4  C    Isotropic =    54.9827   Anisotropy =   108.5895

  5  Cl   Isotropic =   714.6571   Anisotropy =   419.9356

  6  C    Isotropic =    68.4177   Anisotropy =   141.3502

  7  C    Isotropic =    67.2967   Anisotropy =   162.1053

  8  C    Isotropic =    68.3049   Anisotropy =   141.7628

  9  C    Isotropic =    54.5213   Anisotropy =   109.6865

 10  Cl   Isotropic =   715.6187   Anisotropy =   420.1762

 11  O    Isotropic =    98.7906   Anisotropy =   183.4896

 12  C    Isotropic =    44.9673   Anisotropy =   102.9367

 13  C    Isotropic =    76.7435   Anisotropy =   136.2603

 14  C    Isotropic =    66.8939   Anisotropy =   143.5369

 15  C    Isotropic =    65.7636   Anisotropy =   196.3694

 16  C    Isotropic =    62.6259   Anisotropy =   194.6616

 17  C    Isotropic =    76.9677   Anisotropy =   131.1813

 18  C    Isotropic =    66.7107   Anisotropy =   146.9561

 19  C    Isotropic =    69.6218   Anisotropy =   163.0510

 20  C    Isotropic =    70.5112   Anisotropy =   161.8769

 21  C    Isotropic =    68.0605   Anisotropy =   145.7368

 22  H    Isotropic =    25.1712   Anisotropy =     7.2124

 23  H    Isotropic =    25.0607   Anisotropy =     3.6580

 24  H    Isotropic =    25.1394   Anisotropy =     7.2331

 25  H    Isotropic =    25.1830   Anisotropy =     7.8974

 26  H    Isotropic =    24.5890   Anisotropy =     6.9554

 27  H    Isotropic =    23.3221   Anisotropy =    11.9476

 28  H    Isotropic =    24.4591   Anisotropy =     8.0601

 29  H    Isotropic =    24.7411   Anisotropy =     5.3496

 30  H    Isotropic =    24.7789   Anisotropy =     4.9398

 31  H    Isotropic =    24.5901   Anisotropy =     6.9454

  Exact polarizability: 311.928   8.435 171.021 -20.983 -21.499 134.694
 Approx polarizability: 445.682  17.102 289.359 -41.127 -52.388 244.832

                     1                      2                      3
                     A                      A                      A
 Frequencies --    13.4149                16.0670                40.4532
 Red. masses --     6.8181                 7.7386                 7.1919
 Frc consts  --     0.0007                 0.0012                 0.0069
 IR Inten    --     0.2788                 0.7066                 0.3411

                     4                      5                      6
                     A                      A                      A
 Frequencies --    50.1827                90.7312               113.9010
 Red. masses --     6.5468                10.7121                 9.2530
 Frc consts  --     0.0097                 0.0520                 0.0707
 IR Inten    --     1.2639                 0.1505                 0.4719

                     7                      8                      9
                     A                      A                      A
 Frequencies --   126.4736               172.9313               186.4585
 Red. masses --    10.1844                 9.2752                 3.7218
 Frc consts  --     0.0960                 0.1634                 0.0762
 IR Inten    --     0.8927                 0.0294                 0.5623

                    10                     11                     12
                     A                      A                      A
 Frequencies --   201.5686               202.4087               268.4522
 Red. masses --     8.9257                 5.4680                 8.9905
 Frc consts  --     0.2137                 0.1320                 0.3817
 IR Inten    --     0.0569                 0.0736                 0.1539

                    13                     14                     15
                     A                      A                      A
 Frequencies --   294.2149               324.4696               359.3638
 Red. masses --     8.0405                 5.6698                 9.6483
 Frc consts  --     0.4101                 0.3517                 0.7341
 IR Inten    --     5.1129                 0.6753                 0.6456

                    16                     17                     18
                     A                      A                      A
 Frequencies --   391.2429               410.3367               423.7048
 Red. masses --     6.0565                 3.4677                 5.5306
 Frc consts  --     0.5462                 0.3440                 0.5850
 IR Inten    --     0.3747                 0.1527                17.3653

                    19                     20                     21
                     A                      A                      A
 Frequencies --   444.7313               453.3849               486.2499
 Red. masses --     6.6395                 8.5629                 2.6202
 Frc consts  --     0.7737                 1.0371                 0.3650
 IR Inten    --     4.9707                 7.1981                10.1921

                    22                     23                     24
                     A                      A                      A
 Frequencies --   495.8249               525.1549               530.9136
 Red. masses --     8.6914                 6.5990                 5.6664
 Frc consts  --     1.2589                 1.0723                 0.9410
 IR Inten    --     1.5173                 0.1949                 0.2609

                    25                     26                     27
                     A                      A                      A
 Frequencies --   543.4124               576.7486               634.4033
 Red. masses --     3.8155                 4.6624                 6.7286
 Frc consts  --     0.6638                 0.9138                 1.5955
 IR Inten    --     0.2191                 2.4489                 3.4504

                    28                     29                     30
                     A                      A                      A
 Frequencies --   648.6309               694.5708               726.7814
 Red. masses --     3.2308                 6.0998                 6.4864
 Frc consts  --     0.8009                 1.7338                 2.0187
 IR Inten    --     0.2807                 9.3540                13.7338

                    31                     32                     33
                     A                      A                      A
 Frequencies --   737.4184               764.2540               768.3448
 Red. masses --     8.3519                 1.7086                 2.5222
 Frc consts  --     2.6759                 0.5880                 0.8773
 IR Inten    --    19.6346                13.9036                 7.5468

                    34                     35                     36
                     A                      A                      A
 Frequencies --   773.0964               785.6623               789.1305
 Red. masses --     3.1302                 4.7641                 1.5041
 Frc consts  --     1.1023                 1.7326                 0.5518
 IR Inten    --     1.2135                 0.5468                35.9632

                    37                     38                     39
                     A                      A                      A
 Frequencies --   798.0913               830.9837               869.0785
 Red. masses --     9.9236                 1.3963                 5.5986
 Frc consts  --     3.7241                 0.5681                 2.4914
 IR Inten    --    62.1589                29.9930                13.0776

                    40                     41                     42
                     A                      A                      A
 Frequencies --   879.5346               903.3338               913.2984
 Red. masses --     1.6777                 1.3400                 3.4622
 Frc consts  --     0.7646                 0.6443                 1.7015
 IR Inten    --    15.4648                 0.0013                 6.6124

                    43                     44                     45
                     A                      A                      A
 Frequencies --   916.2174               955.5876               966.5642
 Red. masses --     1.7672                 1.3216                 1.3134
 Frc consts  --     0.8740                 0.7110                 0.7230
 IR Inten    --    16.4615                 3.5028                 0.9823

                    46                     47                     48
                     A                      A                      A
 Frequencies --   976.4944               978.9477               991.5050
 Red. masses --     3.1921                 1.4494                 1.2756
 Frc consts  --     1.7934                 0.8184                 0.7389
 IR Inten    --    10.9818                 3.8016                 0.0570

                    49                     50                     51
                     A                      A                      A
 Frequencies --  1051.8793              1067.9937              1104.9033
 Red. masses --     2.3433                 5.0872                 3.1418
 Frc consts  --     1.5276                 3.4187                 2.2599
 IR Inten    --     4.3439                61.3672                 2.5665

                    52                     53                     54
                     A                      A                      A
 Frequencies --  1137.2112              1162.8178              1178.5887
 Red. masses --     2.1795                 1.8747                 1.2291
 Frc consts  --     1.6607                 1.4935                 1.0059
 IR Inten    --     9.6279                60.7246                 0.5446

                    55                     56                     57
                     A                      A                      A
 Frequencies --  1186.2870              1188.6387              1191.6937
 Red. masses --     1.3429                 1.1947                 2.0282
 Frc consts  --     1.1134                 0.9945                 1.6971
 IR Inten    --    10.0725                20.4730               269.8896

                    58                     59                     60
                     A                      A                      A
 Frequencies --  1228.5041              1246.7947              1280.2296
 Red. masses --     1.5980                 2.8843                 2.1795
 Frc consts  --     1.4210                 2.6417                 2.1047
 IR Inten    --    23.4059                68.1572               103.8508

                    61                     62                     63
                     A                      A                      A
 Frequencies --  1284.0280              1298.3001              1326.4355
 Red. masses --     2.6339                 1.9748                 9.4580
 Frc consts  --     2.5586                 1.9612                 9.8044
 IR Inten    --   541.8414               120.5910                 2.9224

                    64                     65                     66
                     A                      A                      A
 Frequencies --  1398.6657              1413.0883              1426.5623
 Red. masses --     1.9139                 5.0593                 5.3445
 Frc consts  --     2.2059                 5.9522                 6.4082
 IR Inten    --     1.0609                26.4818                43.2593

                    67                     68                     69
                     A                      A                      A
 Frequencies --  1474.8275              1478.0875              1489.5173
 Red. masses --     2.2513                 3.2033                 2.5323
 Frc consts  --     2.8852                 4.1233                 3.3102
 IR Inten    --    68.6037                15.4358                 2.6188

                    70                     71                     72
                     A                      A                      A
 Frequencies --  1513.7905              1565.8143              1615.1393
 Red. masses --     2.1949                 3.4596                 6.2837
 Frc consts  --     2.9635                 4.9976                 9.6579
 IR Inten    --    35.1132                24.2305                40.8641

                    73                     74                     75
                     A                      A                      A
 Frequencies --  1632.7805              1637.7995              1657.9857
 Red. masses --     7.4183                 6.8189                 5.3792
 Frc consts  --    11.6523                10.7767                 8.7123
 IR Inten    --     5.1206                43.7973                37.0004

                    76                     77                     78
                     A                      A                      A
 Frequencies --  1684.0205              1830.0309              3179.1449
 Red. masses --     6.1224                12.9664                 1.0860
 Frc consts  --    10.2299                25.5851                 6.4670
 IR Inten    --    16.0354               198.6630                 2.8821

                    79                     80                     81
                     A                      A                      A
 Frequencies --  3185.1856              3190.2009              3197.6890
 Red. masses --     1.0879                 1.0888                 1.0935
 Frc consts  --     6.5029                 6.5288                 6.5876
 IR Inten    --     0.6190                 8.6651                32.5166

                    82                     83                     84
                     A                      A                      A
 Frequencies --  3207.2595              3210.0714              3222.8183
 Red. masses --     1.0883                 1.0973                 1.0939
 Frc consts  --     6.5956                 6.6617                 6.6940
 IR Inten    --     5.9179                32.7718                 5.5795

                    85                     86                     87
                     A                      A                      A
 Frequencies --  3230.8120              3235.2195              3275.7907
 Red. masses --     1.0922                 1.0959                 1.0914
 Frc consts  --     6.7170                 6.7579                 6.9001
 IR Inten    --     0.9647                 3.6482                 1.6574

 - Thermochemistry -
 -------------------
 Temperature   298.150 Kelvin.  Pressure   1.00000 Atm.
 Atom     1 has atomic number  8 and mass  15.99491

 Molecular mass:   316.00579 amu.
 Principal axes and moments of inertia in atomic units:
                           1         2         3
     Eigenvalues --  3110.30846********************
           X            0.99999   0.00170  -0.00272
           Y           -0.00181   0.99911  -0.04213
           Z            0.00265   0.04214   0.99911
 This molecule is an asymmetric top.
 Rotational symmetry number  1.
 Warning -- assumption of classical behavior for rotation
           may cause significant error
 Rotational temperatures (Kelvin)      0.02785     0.00615     0.00556
 Rotational constants (GHZ):           0.58025     0.12810     0.11592
 Zero-point vibrational energy     585759.4 (Joules/Mol)
                                  139.99987 (Kcal/Mol)
 Warning -- explicit consideration of  26 degrees of freedom as
           vibrations may cause significant error
 Vibrational temperatures:     19.30    23.12    58.20    72.20   130.54
          (Kelvin)            163.88   181.97   248.81   268.27   290.01
                              291.22   386.24   423.31   466.84   517.04
                              562.91   590.38   609.62   639.87   652.32
                              699.60   713.38   755.58   763.87   781.85
                              829.81   912.76   933.23   999.33  1045.68
                             1060.98  1099.59  1105.48  1112.31  1130.39
                             1135.38  1148.27  1195.60  1250.41  1265.45
                             1299.69  1314.03  1318.23  1374.88  1390.67
                             1404.96  1408.49  1426.55  1513.42  1536.60
                             1589.71  1636.19  1673.03  1695.72  1706.80
                             1710.18  1714.58  1767.54  1793.86  1841.96
                             1847.43  1867.96  1908.44  2012.37  2033.12
                             2052.50  2121.95  2126.64  2143.08  2178.00
                             2252.85  2323.82  2349.20  2356.43  2385.47
                             2422.93  2633.00  4574.07  4582.77  4589.98
                             4600.76  4614.53  4618.57  4636.91  4648.41
                             4654.75  4713.13

 Zero-point correction=                           0.223104 (Hartree/Particle)
 Thermal correction to Energy=                    0.240174
 Thermal correction to Enthalpy=                  0.241118
 Thermal correction to Gibbs Free Energy=         0.174618
 Sum of electronic and zero-point Energies=          -1724.459628
 Sum of electronic and thermal Energies=             -1724.442557
 Sum of electronic and thermal Enthalpies=           -1724.441613
 Sum of electronic and thermal Free Energies=        -1724.508114

                     E (Thermal)             CV                S
                      KCal/Mol        Cal/Mol-Kelvin    Cal/Mol-Kelvin
 Total                  150.712             65.623            139.963
 Electronic               0.000              0.000              0.000
 Translational            0.889              2.981             43.148
 Rotational               0.889              2.981             34.877
 Vibrational            148.934             59.661             61.938
 Vibration     1          0.593              1.987              7.427
 Vibration     2          0.593              1.986              7.069
 Vibration     3          0.594              1.981              5.237
 Vibration     4          0.595              1.978              4.810
 Vibration     5          0.602              1.956              3.644
 Vibration     6          0.607              1.938              3.201
 Vibration     7          0.611              1.927              2.999
 Vibration     8          0.626              1.876              2.403
 Vibration     9          0.632              1.858              2.263
 Vibration    10          0.638              1.838              2.119
 Vibration    11          0.639              1.836              2.111
 Vibration    12          0.673              1.731              1.606
 Vibration    13          0.689              1.685              1.450
 Vibration    14          0.709              1.627              1.287
 Vibration    15          0.734              1.556              1.125
 Vibration    16          0.759              1.489              0.995
 Vibration    17          0.775              1.448              0.925
 Vibration    18          0.786              1.419              0.879
 Vibration    19          0.804              1.373              0.812
 Vibration    20          0.812              1.353              0.786
 Vibration    21          0.842              1.281              0.693
 Vibration    22          0.851              1.259              0.669
 Vibration    23          0.880              1.194              0.598
 Vibration    24          0.886              1.182              0.585
 Vibration    25          0.899              1.154              0.558
 Vibration    26          0.933              1.082              0.491

 Normal termination of Gaussian 09 at Wed Sep 29 14:34:28 2021.
 Gaussian 09:  AM64L-G09RevA.02 11-Jun-2009

 ----------------------------------------------------------------------
 #p TD(NStates=10, Root=1) b3lyp/6-31G* volume pop=NPA density=current
 Geom=AllCheck Guess=Read
 ----------------------------------------------------------------------

 O=C(c1c(Cl)cccc1Cl)Oc1ccc2c(c1)cccc2_conf_0
 -------------------------------------------
 Redundant internal coordinates taken from checkpoint file:
 C17H10Cl2O2_71f8_conf_0.chk
 Charge =  0 Multiplicity = 1

                         Standard orientation:
 ---------------------------------------------------------------------
 Center     Atomic      Atomic             Coordinates (Angstroms)
 Number     Number       Type             X           Y           Z
 ---------------------------------------------------------------------
      1          8           0       -0.655477    0.653113   -1.618264
      2          6           0       -1.025735    0.218886   -0.556225
      3          6           0       -2.478817    0.069710   -0.175777
      4          6           0       -3.139273   -1.159697   -0.293439
      5         17           0       -2.249002   -2.572094   -0.834355
      6          6           0       -4.494641   -1.294375    0.000291
      7          6           0       -5.210882   -0.177558    0.426776
      8          6           0       -4.583887    1.059974    0.559671
      9          6           0       -3.228594    1.171231    0.255911
     10         17           0       -2.448767    2.731733    0.442601
     11          8           0       -0.247544   -0.200074    0.466833
     12          6           0        1.151697   -0.232924    0.444906
     13          6           0        1.692628   -0.985027    1.516696
     14          6           0        3.053832   -1.093237    1.656352
     15          6           0        3.935860   -0.458744    0.739848
     16          6           0        3.372418    0.299921   -0.336346
     17          6           0        1.959840    0.404370   -0.468674
     18          6           0        4.249370    0.937560   -1.255086
     19          6           0        5.615123    0.830254   -1.116674
     20          6           0        6.170984    0.079227   -0.052357
     21          6           0        5.347948   -0.550492    0.854418
     22          1           0       -4.974289   -2.260890   -0.106090
     23          1           0       -6.267489   -0.272687    0.658525
     24          1           0       -5.132438    1.932830    0.895238
     25          1           0        1.008782   -1.463822    2.209842
     26          1           0        3.471487   -1.670444    2.477449
     27          1           0        1.538339    0.972847   -1.285006
     28          1           0        3.821264    1.512858   -2.072242
     29          1           0        6.273331    1.323211   -1.826988
     30          1           0        7.250381    0.002071    0.045370
     31          1           0        5.769633   -1.128626    1.673411
 ---------------------------------------------------------------------

 SCF Done:  E(RB3LYP) =  -1724.68273167     A.U. after    1 cycles

 Excitation energies and oscillator strengths:

 Excited State   1:      Singlet-A      4.2504 eV  291.70 nm  f=0.0356  <S**2>=0.000
      81 -> 82         0.65180
      81 -> 83         0.16721
      81 -> 85         0.13206
 This state for optimization and/or second-order correction.
 Total Energy, E(TD-HF/TD-KS) =  -1724.52653288
 Copying the excited state density for this state as the 1-particle RhoCI density.

 Excited State   2:      Singlet-A      4.3637 eV  284.12 nm  f=0.0148  <S**2>=0.000
      80 -> 82         0.39499
      80 -> 83        -0.14939
      81 -> 82         0.22423
      81 -> 83        -0.31135
      81 -> 85        -0.38143
      81 -> 87         0.12485

 Excited State   3:      Singlet-A      4.4915 eV  276.04 nm  f=0.0108  <S**2>=0.000
      80 -> 82         0.21823
      81 -> 83         0.60120
      81 -> 85        -0.26141

 Excited State   4:      Singlet-A      4.5927 eV  269.96 nm  f=0.0003  <S**2>=0.000
      81 -> 84         0.70402

 Excited State   5:      Singlet-A      4.9905 eV  248.44 nm  f=0.1443  <S**2>=0.000
      78 -> 82        -0.10217
      80 -> 82         0.41420
      80 -> 83         0.50579
      81 -> 85         0.20885

 Excited State   6:      Singlet-A      5.0451 eV  245.75 nm  f=0.0079  <S**2>=0.000
      78 -> 84         0.38227
      79 -> 82         0.41146
      79 -> 83         0.40831

 Excited State   7:      Singlet-A      5.1390 eV  241.26 nm  f=0.2273  <S**2>=0.000
      76 -> 82        -0.16273
      78 -> 82         0.37980
      78 -> 85         0.16746
      78 -> 87         0.11711
      80 -> 83         0.32417
      81 -> 85        -0.27174
      81 -> 87        -0.26540

 Excited State   8:      Singlet-A      5.1611 eV  240.23 nm  f=0.1274  <S**2>=0.000
      76 -> 82        -0.18217
      76 -> 85        -0.11703
      78 -> 82         0.35423
      78 -> 85         0.19547
      78 -> 87         0.13044
      80 -> 82         0.16138
      80 -> 83        -0.15891
      81 -> 85         0.29924
      81 -> 87         0.32725

 Excited State   9:      Singlet-A      5.2205 eV  237.49 nm  f=0.0003  <S**2>=0.000
      80 -> 84         0.69974

 Excited State  10:      Singlet-A      5.3897 eV  230.04 nm  f=0.0001  <S**2>=0.000
      81 -> 86         0.70399

 The electronic state is 1-A.
 Alpha  occ. eigenvalues -- -101.56255-101.56173 -19.21792 -19.15701 -10.34171
 Alpha  occ. eigenvalues --  -10.27735 -10.27716 -10.25958 -10.23934 -10.22388
 Alpha  occ. eigenvalues --  -10.22169 -10.22153 -10.20209 -10.19984 -10.19797
 Alpha  occ. eigenvalues --  -10.19718 -10.19263 -10.19225 -10.19211 -10.19172
 Alpha  occ. eigenvalues --  -10.19099  -9.47881  -9.47802  -7.24292  -7.24215
 Alpha  occ. eigenvalues --   -7.23299  -7.23269  -7.23220  -7.23187  -1.12372
 Alpha  occ. eigenvalues --   -1.04198  -0.92179  -0.88512  -0.87584  -0.83804
 Alpha  occ. eigenvalues --   -0.82726  -0.78845  -0.77444  -0.74946  -0.74806
 Alpha  occ. eigenvalues --   -0.72396  -0.68233  -0.64235  -0.62098  -0.61904
 Alpha  occ. eigenvalues --   -0.60022  -0.58330  -0.54952  -0.51880  -0.51434
 Alpha  occ. eigenvalues --   -0.51165  -0.50345  -0.48323  -0.46787  -0.46287
 Alpha  occ. eigenvalues --   -0.46002  -0.45068  -0.44719  -0.43995  -0.42365
 Alpha  occ. eigenvalues --   -0.42166  -0.41411  -0.40522  -0.39633  -0.38716
 Alpha  occ. eigenvalues --   -0.38182  -0.37950  -0.37368  -0.35762  -0.34652
 Alpha  occ. eigenvalues --   -0.33693  -0.33197  -0.33033  -0.32257  -0.31354
 Alpha  occ. eigenvalues --   -0.29484  -0.28489  -0.26749  -0.25971  -0.23973
 Alpha  occ. eigenvalues --   -0.21622
 Alpha virt. eigenvalues --   -0.04415  -0.03647  -0.03226  -0.01963  -0.00122
 Alpha virt. eigenvalues --    0.00645   0.03272   0.04348   0.09132   0.10334
 Alpha virt. eigenvalues --    0.10404   0.11068   0.11869   0.12922   0.15226

 Mulliken atomic charges:
              1
     1  O   -0.472659
     2  C    0.430847
     3  C    0.085498
     4  C   -0.103423
     5  Cl  -0.040571
     6  C   -0.140076
     7  C   -0.144645
     8  C   -0.142401
     9  C   -0.101339
    10  Cl  -0.035223
    11  O   -0.487855
    12  C    0.369335
    13  C   -0.149552
    14  C   -0.187248
    15  C    0.143913
    16  C    0.120755
    17  C   -0.211631
    18  C   -0.161665
    19  C   -0.119448
    20  C   -0.128782
    21  C   -0.168639
    22  H    0.138068
    23  H    0.121679
    24  H    0.138264
    25  H    0.187059
    26  H    0.163623
    27  H    0.220583
    28  H    0.180712
    29  H    0.167190
    30  H    0.161598
    31  H    0.166032
 Sum of Mulliken atomic charges =  -0.00000

 Dipole moment (field-independent basis, Debye):
    X=             11.5078    Y=             -0.9508    Z=              2.5088  Tot=             11.8164
 Quadrupole moment (field-independent basis, Debye-Ang):
   XX=            -87.7207   YY=           -135.1085   ZZ=           -130.3015
   XY=              1.8251   XZ=             -3.2053   YZ=             -6.8750

 Summary of Natural Population Analysis:

                                       Natural Population
                Natural  -----------------------------------------------
    Atom  No    Charge         Core      Valence    Rydberg      Total
 -----------------------------------------------------------------------
      O    1   -0.60553      1.99977     6.58530    0.02047     8.60553
      C    2    0.74964      1.99935     3.20265    0.04836     5.25036
      C    3   -0.22171      1.99860     4.20205    0.02105     6.22171
      C    4   -0.03404      1.99849     4.01397    0.02157     6.03404
     Cl    5   -0.02114      9.99967     7.00202    0.01945    17.02114
      C    6   -0.25155      1.99894     4.23760    0.01501     6.25155
      C    7   -0.27253      1.99909     4.25842    0.01502     6.27253
      C    8   -0.25519      1.99894     4.24109    0.01515     6.25519
      C    9   -0.02718      1.99849     4.00725    0.02144     6.02718
     Cl   10   -0.01698      9.99967     6.99783    0.01948    17.01698
      O   11   -0.51848      1.99969     6.50695    0.01184     8.51848
      C   12    0.34191      1.99875     3.63721    0.02214     5.65809
      C   13   -0.21403      1.99904     4.20021    0.01478     6.21403
      C   14   -0.15031      1.99907     4.13698    0.01426     6.15031
      C   15   -0.09235      1.99902     4.07904    0.01429     6.09235
      C   16   -0.06570      1.99904     4.05197    0.01470     6.06570
      C   17   -0.20147      1.99897     4.18747    0.01502     6.20147
      C   18   -0.12267      1.99906     4.10944    0.01417     6.12267
      C   19   -0.19939      1.99912     4.18592    0.01435     6.19939
      C   20   -0.22838      1.99912     4.21416    0.01510     6.22838
      C   21   -0.12624      1.99906     4.11333    0.01385     6.12624
      H   22    0.24523      0.00000     0.75376    0.00101     0.75477
      H   23    0.23547      0.00000     0.76381    0.00072     0.76453
      H   24    0.24541      0.00000     0.75357    0.00101     0.75459
      H   25    0.26998      0.00000     0.72912    0.00089     0.73002
      H   26    0.24670      0.00000     0.75231    0.00099     0.75330
      H   27    0.28692      0.00000     0.71075    0.00233     0.71308
      H   28    0.25366      0.00000     0.74544    0.00090     0.74634
      H   29    0.25291      0.00000     0.74645    0.00064     0.74709
      H   30    0.25091      0.00000     0.74840    0.00069     0.74909
      H   31    0.24611      0.00000     0.75292    0.00097     0.75389
 =======================================================================
   * Total *    0.00000     57.98093   103.62741    0.39166   162.00000

 Normal termination of Gaussian 09 at Wed Sep 29 21:45:55 2021.
