 Gaussian 09, Revision A.02,

 -----------------------------------
 #p opt b3lyp/6-31G* scf=(xqc,tight)
 -----------------------------------

 Fc1c(P(c2c(F)c(F)c(c(c2F)F)F)c2c(F)c(F)c(c(c2F)F)F)c(F)c(c(c1F)F)F_con
 f_0
 ----------------------------------------------------------------------
 Symbolic Z-matrix:
 Charge =  0 Multiplicity = 1

 SCF Done:  E(RB3LYP) =  -2524.68411591     A.U. after   14 cycles
 SCF Done:  E(RB3LYP) =  -2524.68814135     A.U. after   15 cycles
 SCF Done:  E(RB3LYP) =  -2524.68936546     A.U. after   15 cycles
 SCF Done:  E(RB3LYP) =  -2524.68947209     A.U. after   15 cycles
 SCF Done:  E(RB3LYP) =  -2524.68999815     A.U. after   12 cycles
 SCF Done:  E(RB3LYP) =  -2524.69026244     A.U. after   15 cycles
 SCF Done:  E(RB3LYP) =  -2524.69010671     A.U. after   15 cycles
 SCF Done:  E(RB3LYP) =  -2524.69041529     A.U. after   12 cycles
 SCF Done:  E(RB3LYP) =  -2524.69045832     A.U. after   12 cycles
 SCF Done:  E(RB3LYP) =  -2524.69049769     A.U. after   11 cycles
 SCF Done:  E(RB3LYP) =  -2524.69051537     A.U. after   11 cycles
 SCF Done:  E(RB3LYP) =  -2524.69052573     A.U. after    9 cycles
 SCF Done:  E(RB3LYP) =  -2524.69052596     A.U. after    8 cycles
 SCF Done:  E(RB3LYP) =  -2524.69052524     A.U. after    7 cycles
 Optimization completed.
    -- Stationary point found.
 Normal termination of Gaussian 09 at Sat Oct  2 07:18:26 2021.

 ----------------------------------------------------------------------
 #p freq b3lyp/6-31G* volume NMR pop=NPA density=current Geom=AllCheck
 Guess=Read
 ----------------------------------------------------------------------

 f_0
 ----------------------------------------------------------------------
 Redundant internal coordinates taken from checkpoint file:
 C18F15P_ff1c_conf_0.chk
 Charge =  0 Multiplicity = 1

 SCF Done:  E(RB3LYP) =  -2524.69052524     A.U. after    1 cycles

  1  F    Isotropic =   318.7556   Anisotropy =   157.0231

  2  C    Isotropic =    46.0753   Anisotropy =    86.0638

  3  C    Isotropic =    84.1739   Anisotropy =   115.9692

  4  P    Isotropic =   428.1895   Anisotropy =    26.1624

  5  C    Isotropic =    85.4464   Anisotropy =   114.5642

  6  C    Isotropic =    44.0404   Anisotropy =    88.8315

  7  F    Isotropic =   309.9832   Anisotropy =   160.2492

  8  C    Isotropic =    55.1514   Anisotropy =    79.8613

  9  F    Isotropic =   351.6364   Anisotropy =   154.9979

 10  C    Isotropic =    47.2891   Anisotropy =    90.8636

 11  C    Isotropic =    54.7160   Anisotropy =    80.3886

 12  C    Isotropic =    44.4436   Anisotropy =    89.6262

 13  F    Isotropic =   316.0905   Anisotropy =   162.7744

 14  F    Isotropic =   350.6520   Anisotropy =   157.7406

 15  F    Isotropic =   334.6057   Anisotropy =   194.7166

 16  C    Isotropic =    84.5138   Anisotropy =   114.8117

 17  C    Isotropic =    46.2211   Anisotropy =    86.7166

 18  F    Isotropic =   316.3848   Anisotropy =   160.9509

 19  C    Isotropic =    55.1472   Anisotropy =    80.8032

 20  F    Isotropic =   351.8255   Anisotropy =   158.9455

 21  C    Isotropic =    49.9727   Anisotropy =    87.5259

 22  C    Isotropic =    54.2774   Anisotropy =    81.3103

 23  C    Isotropic =    47.2407   Anisotropy =    81.0106

 24  F    Isotropic =   323.3082   Anisotropy =   174.3046

 25  F    Isotropic =   350.4990   Anisotropy =   157.8540

 26  F    Isotropic =   340.2974   Anisotropy =   186.3981

 27  C    Isotropic =    44.6937   Anisotropy =    84.4490

 28  F    Isotropic =   312.8379   Anisotropy =   188.1825

 29  C    Isotropic =    54.7589   Anisotropy =    80.9436

 30  C    Isotropic =    48.6925   Anisotropy =    89.0036

 31  C    Isotropic =    55.0795   Anisotropy =    80.1585

 32  F    Isotropic =   351.4988   Anisotropy =   158.2699

 33  F    Isotropic =   337.9619   Anisotropy =   190.7486

 34  F    Isotropic =   350.8210   Anisotropy =   155.7984

  Exact polarizability: 245.991  -5.651 234.786 -15.232  -5.180 165.220
 Approx polarizability: 382.493 -19.001 364.923 -48.806 -16.985 321.815

                     1                      2                      3
                     A                      A                      A
 Frequencies --    16.8431                22.4519                25.3787
 Red. masses --    17.2538                16.9362                17.2886
 Frc consts  --     0.0029                 0.0050                 0.0066
 IR Inten    --     0.0069                 0.0414                 0.0118

                     4                      5                      6
                     A                      A                      A
 Frequencies --    34.5824                40.6277                43.0518
 Red. masses --    17.2337                17.1634                17.4284
 Frc consts  --     0.0121                 0.0167                 0.0190
 IR Inten    --     0.0167                 0.0322                 0.0270

                     7                      8                      9
                     A                      A                      A
 Frequencies --    99.8745               107.1870               115.8739
 Red. masses --    17.0072                17.2198                17.5423
 Frc consts  --     0.1000                 0.1166                 0.1388
 IR Inten    --     0.0839                 0.1142                 0.2285

                    10                     11                     12
                     A                      A                      A
 Frequencies --   126.6114               133.3530               136.7235
 Red. masses --    16.8060                18.3011                18.1853
 Frc consts  --     0.1587                 0.1917                 0.2003
 IR Inten    --     0.0828                 0.0381                 0.0688

                    13                     14                     15
                     A                      A                      A
 Frequencies --   141.3039               147.2421               148.8945
 Red. masses --    18.2549                16.3151                16.5201
 Frc consts  --     0.2148                 0.2084                 0.2158
 IR Inten    --     0.0607                 0.1406                 0.0322

                    16                     17                     18
                     A                      A                      A
 Frequencies --   167.8305               170.1004               175.9031
 Red. masses --    18.1311                18.1924                18.3586
 Frc consts  --     0.3009                 0.3101                 0.3347
 IR Inten    --     0.0504                 0.0311                 0.1101

                    19                     20                     21
                     A                      A                      A
 Frequencies --   221.7927               223.6429               233.6807
 Red. masses --    14.1530                14.2263                13.6749
 Frc consts  --     0.4102                 0.4192                 0.4400
 IR Inten    --     2.4844                 3.5042                 3.7776

                    22                     23                     24
                     A                      A                      A
 Frequencies --   265.0112               265.3940               266.3339
 Red. masses --    18.7508                18.7637                18.7913
 Frc consts  --     0.7759                 0.7787                 0.7853
 IR Inten    --     0.1624                 0.1601                 0.0737

                    25                     26                     27
                     A                      A                      A
 Frequencies --   272.4962               275.2597               275.7660
 Red. masses --    18.5513                18.4575                18.4831
 Frc consts  --     0.8116                 0.8240                 0.8281
 IR Inten    --     0.0812                 0.4446                 0.2949

                    28                     29                     30
                     A                      A                      A
 Frequencies --   308.4263               310.4255               311.6032
 Red. masses --    18.2353                18.2167                18.0878
 Frc consts  --     1.0220                 1.0343                 1.0348
 IR Inten    --     0.6727                 2.3932                 2.2569

                    31                     32                     33
                     A                      A                      A
 Frequencies --   318.7120               326.5087               328.0250
 Red. masses --    18.0465                18.8280                18.5342
 Frc consts  --     1.0800                 1.1826                 1.1750
 IR Inten    --     0.7109                15.8329                 9.4173

                    34                     35                     36
                     A                      A                      A
 Frequencies --   356.3196               367.7435               378.4997
 Red. masses --    16.1293                13.7484                15.5100
 Frc consts  --     1.2066                 1.0954                 1.3092
 IR Inten    --     0.1745                 0.6217                 0.4246

                    37                     38                     39
                     A                      A                      A
 Frequencies --   390.7773               392.8941               393.2703
 Red. masses --    12.8038                12.6909                12.6755
 Frc consts  --     1.1520                 1.1542                 1.1550
 IR Inten    --     1.0618                 0.0177                 0.6761

                    40                     41                     42
                     A                      A                      A
 Frequencies --   407.4116               417.7910               433.0248
 Red. masses --    17.9689                16.3323                15.2386
 Frc consts  --     1.7573                 1.6796                 1.6835
 IR Inten    --    24.7930                 8.1699                21.6095

                    43                     44                     45
                     A                      A                      A
 Frequencies --   446.4412               447.6946               448.9870
 Red. masses --    16.0567                16.0922                16.1895
 Frc consts  --     1.8855                 1.9003                 1.9229
 IR Inten    --     0.3216                 0.1533                 1.1954

                    46                     47                     48
                     A                      A                      A
 Frequencies --   499.5603               512.9980               518.0367
 Red. masses --    16.5467                17.6808                17.9341
 Frc consts  --     2.4330                 2.7415                 2.8356
 IR Inten    --     0.5390                 9.4211                13.9097

                    49                     50                     51
                     A                      A                      A
 Frequencies --   575.3176               576.4738               582.5835
 Red. masses --    12.1685                12.1583                13.3654
 Frc consts  --     2.3730                 2.3806                 2.6727
 IR Inten    --     0.1206                 0.3458                 0.0472

                    52                     53                     54
                     A                      A                      A
 Frequencies --   582.9582               584.6025               586.3955
 Red. masses --    15.7480                16.9147                17.1199
 Frc consts  --     3.1532                 3.4059                 3.4684
 IR Inten    --     0.3308                 0.8093                 1.1542

                    55                     56                     57
                     A                      A                      A
 Frequencies --   623.6426               628.7683               635.0716
 Red. masses --    12.2099                12.2096                12.2076
 Frc consts  --     2.7979                 2.8440                 2.9009
 IR Inten    --     0.6523                 0.7175                 0.1506

                    58                     59                     60
                     A                      A                      A
 Frequencies --   640.8812               643.3939               667.4535
 Red. masses --    12.1495                12.2764                12.2484
 Frc consts  --     2.9401                 2.9942                 3.2149
 IR Inten    --     6.0945                 7.8416                25.4084

                    61                     62                     63
                     A                      A                      A
 Frequencies --   754.0864               766.1713               769.7839
 Red. masses --    12.7086                12.7609                12.7060
 Frc consts  --     4.2578                 4.4135                 4.4360
 IR Inten    --     1.4500                 2.0498                 7.2016

                    64                     65                     66
                     A                      A                      A
 Frequencies --   832.4569               842.3907               850.1849
 Red. masses --    13.6841                14.0654                14.1706
 Frc consts  --     5.5872                 5.8807                 6.0348
 IR Inten    --     5.6847                17.5823                23.0172

                    67                     68                     69
                     A                      A                      A
 Frequencies --   998.6157              1007.4209              1009.3586
 Red. masses --    14.2250                14.2222                14.2264
 Frc consts  --     8.3579                 8.5043                 8.5396
 IR Inten    --   115.9784               250.2909                63.4359

                    70                     71                     72
                     A                      A                      A
 Frequencies --  1117.8188              1119.5761              1124.6141
 Red. masses --    13.5780                13.5744                13.5687
 Frc consts  --     9.9960                10.0249                10.1110
 IR Inten    --   181.8648               193.7961               150.0663

                    73                     74                     75
                     A                      A                      A
 Frequencies --  1174.2122              1177.7053              1181.6623
 Red. masses --    13.6686                13.6641                13.6630
 Frc consts  --    11.1037                11.1662                11.2404
 IR Inten    --     2.3288                 3.2554                10.4248

                    76                     77                     78
                     A                      A                      A
 Frequencies --  1323.3402              1324.6699              1326.3248
 Red. masses --    12.7002                12.6755                12.2381
 Frc consts  --    13.1040                13.1048                12.6842
 IR Inten    --    24.3829                26.4902                12.3234

                    79                     80                     81
                     A                      A                      A
 Frequencies --  1327.6830              1328.4359              1330.5837
 Red. masses --    12.2601                12.4550                12.0621
 Frc consts  --    12.7331                12.9501                12.5822
 IR Inten    --     6.9143                 4.9631                 3.1817

                    82                     83                     84
                     A                      A                      A
 Frequencies --  1416.2862              1422.0957              1430.5357
 Red. masses --    12.5898                12.5697                12.5749
 Frc consts  --    14.8789                14.9773                15.1618
 IR Inten    --    43.9284                22.4889                10.5809

                    85                     86                     87
                     A                      A                      A
 Frequencies --  1511.7326              1522.2632              1528.2965
 Red. masses --    12.3401                12.3516                12.3575
 Frc consts  --    16.6157                16.8638                17.0058
 IR Inten    --   211.0323               356.6308               540.7364

                    88                     89                     90
                     A                      A                      A
 Frequencies --  1553.5130              1555.2065              1558.6323
 Red. masses --    12.4966                12.4875                12.5057
 Frc consts  --    17.7693                17.7951                17.8996
 IR Inten    --   264.6649               332.7189                58.2783

                    91                     92                     93
                     A                      A                      A
 Frequencies --  1657.9184              1660.2176              1661.8188
 Red. masses --    12.0683                12.0653                12.0621
 Frc consts  --    19.5445                19.5938                19.6263
 IR Inten    --     7.4010                10.1016                 4.6745

                    94                     95                     96
                     A                      A                      A
 Frequencies --  1672.8048              1673.6030              1677.9394
 Red. masses --    12.0490                12.0485                12.0462
 Frc consts  --    19.8651                19.8832                19.9826
 IR Inten    --    65.6692                38.8978                21.9795

 - Thermochemistry -
 -------------------
 Temperature   298.150 Kelvin.  Pressure   1.00000 Atm.
 Atom     1 has atomic number  9 and mass  18.99840

 Molecular mass:   531.94981 amu.
 Principal axes and moments of inertia in atomic units:
                           1         2         3
     Eigenvalues --  ******************************
           X            0.99999   0.00413   0.00115
           Y           -0.00414   0.99999   0.00054
           Z           -0.00115  -0.00054   1.00000
 This molecule is an asymmetric top.
 Rotational symmetry number  1.
 Warning -- assumption of classical behavior for rotation
           may cause significant error
 Rotational temperatures (Kelvin)      0.00560     0.00518     0.00339
 Rotational constants (GHZ):           0.11670     0.10784     0.07054
 Zero-point vibrational energy     394683.1 (Joules/Mol)
                                   94.33153 (Kcal/Mol)
 Warning -- explicit consideration of  54 degrees of freedom as
           vibrations may cause significant error
 Vibrational temperatures:     24.23    32.30    36.51    49.76    58.45
          (Kelvin)             61.94   143.70   154.22   166.72   182.17
                              191.86   196.71   203.30   211.85   214.23
                              241.47   244.74   253.09   319.11   321.77
                              336.21   381.29   381.84   383.19   392.06
                              396.04   396.77   443.76   446.63   448.33
                              458.55   469.77   471.95   512.66   529.10
                              544.58   562.24   565.29   565.83   586.17
                              601.11   623.03   642.33   644.13   645.99
                              718.76   738.09   745.34   827.75   829.42
                              838.21   838.75   841.11   843.69   897.28
                              904.66   913.73   922.08   925.70   960.32
                             1084.96  1102.35  1107.55  1197.72  1212.01
                             1223.22  1436.78  1449.45  1452.24  1608.29
                             1610.82  1618.07  1689.43  1694.45  1700.15
                             1903.99  1905.90  1908.28  1910.24  1911.32
                             1914.41  2037.72  2046.08  2058.22  2175.04
                             2190.19  2198.88  2235.16  2237.59  2242.52
                             2385.37  2388.68  2390.98  2406.79  2407.94
                             2414.18

 Zero-point correction=                           0.150327 (Hartree/Particle)
 Thermal correction to Energy=                    0.180069
 Thermal correction to Enthalpy=                  0.181014
 Thermal correction to Gibbs Free Energy=         0.088257
 Sum of electronic and zero-point Energies=          -2524.540198
 Sum of electronic and thermal Energies=             -2524.510456
 Sum of electronic and thermal Enthalpies=           -2524.509512
 Sum of electronic and thermal Free Energies=        -2524.602269

                     E (Thermal)             CV                S
                      KCal/Mol        Cal/Mol-Kelvin    Cal/Mol-Kelvin
 Total                  112.995            107.889            195.223
 Electronic               0.000              0.000              0.000
 Translational            0.889              2.981             44.700
 Rotational               0.889              2.981             37.135
 Vibrational            111.218            101.927            113.388
 Vibration     1          0.593              1.986              6.975
 Vibration     2          0.593              1.985              6.405
 Vibration     3          0.593              1.985              6.161
 Vibration     4          0.594              1.983              5.548
 Vibration     5          0.594              1.981              5.228
 Vibration     6          0.595              1.980              5.113
 Vibration     7          0.604              1.949              3.457
 Vibration     8          0.606              1.943              3.319
 Vibration     9          0.608              1.936              3.168
 Vibration    10          0.611              1.927              2.997
 Vibration    11          0.613              1.920              2.897
 Vibration    12          0.614              1.917              2.849
 Vibration    13          0.615              1.912              2.786
 Vibration    14          0.617              1.906              2.708
 Vibration    15          0.618              1.904              2.686
 Vibration    16          0.625              1.882              2.460
 Vibration    17          0.625              1.879              2.434
 Vibration    18          0.628              1.872              2.371
 Vibration    19          0.648              1.808              1.944
 Vibration    20          0.649              1.805              1.929
 Vibration    21          0.654              1.789              1.850
 Vibration    22          0.671              1.737              1.629
 Vibration    23          0.671              1.736              1.626
 Vibration    24          0.672              1.735              1.620
 Vibration    25          0.675              1.724              1.580
 Vibration    26          0.677              1.719              1.563
 Vibration    27          0.677              1.718              1.560
 Vibration    28          0.698              1.658              1.371
 Vibration    29          0.699              1.654              1.360
 Vibration    30          0.700              1.652              1.354
 Vibration    31          0.705              1.638              1.317
 Vibration    32          0.710              1.622              1.277
 Vibration    33          0.711              1.619              1.270
 Vibration    34          0.732              1.562              1.138
 Vibration    35          0.740              1.539              1.089
 Vibration    36          0.749              1.516              1.045
 Vibration    37          0.758              1.490              0.997
 Vibration    38          0.760              1.485              0.989
 Vibration    39          0.760              1.485              0.988
 Vibration    40          0.772              1.454              0.936
 Vibration    41          0.781              1.432              0.900
 Vibration    42          0.794              1.398              0.849
 Vibration    43          0.806              1.369              0.807
 Vibration    44          0.807              1.366              0.803
 Vibration    45          0.808              1.363              0.799
 Vibration    46          0.855              1.251              0.659
 Vibration    47          0.868              1.221              0.626
 Vibration    48          0.873              1.210              0.615
 Vibration    49          0.932              1.085              0.494
 Vibration    50          0.933              1.082              0.492
 Vibration    51          0.939              1.069              0.481
 Vibration    52          0.940              1.068              0.480
 Vibration    53          0.942              1.065              0.477
 Vibration    54          0.943              1.061              0.474

 Optimization completed.
    -- Stationary point found.
 Normal termination of Gaussian 09 at Sun Oct  3 00:52:05 2021.
 Gaussian 09:  AM64L-G09RevA.02 11-Jun-2009

 ----------------------------------------------------------------------
 #p TD(NStates=10, Root=1) b3lyp/6-31G* volume pop=NPA density=current
 Geom=AllCheck Guess=Read
 ----------------------------------------------------------------------

 f_0
 ----------------------------------------------------------------------
 Redundant internal coordinates taken from checkpoint file:
 C18F15P_ff1c_conf_0.chk
 Charge =  0 Multiplicity = 1

                         Standard orientation:
 ---------------------------------------------------------------------
 Center     Atomic      Atomic             Coordinates (Angstroms)
 Number     Number       Type             X           Y           Z
 ---------------------------------------------------------------------
      1          9           0        1.724744    2.181472   -2.069305
      2          6           0        0.999571    2.537164   -0.995707
      3          6           0        0.133865    1.605953   -0.407315
      4         15           0        0.030652   -0.031594   -1.285700
      5          6           0        1.399827   -0.938195   -0.429549
      6          6           0        1.559168   -1.045818    0.955976
      7          9           0        0.633053   -0.535141    1.779512
      8          6           0        2.649535   -1.686240    1.531616
      9          9           0        2.769068   -1.774769    2.859771
     10          6           0        3.624222   -2.248516    0.707131
     11          6           0        3.499032   -2.165927   -0.676305
     12          6           0        2.394163   -1.516661   -1.225342
     13          9           0        2.313237   -1.460947   -2.560871
     14          9           0        4.431840   -2.706061   -1.465661
     15          9           0        4.674211   -2.866263    1.246518
     16          6           0       -1.528577   -0.790618   -0.628452
     17          6           0       -2.720291   -0.102419   -0.884313
     18          9           0       -2.661528    1.118785   -1.447297
     19          6           0       -3.974592   -0.612497   -0.576131
     20          9           0       -5.079271    0.095843   -0.827540
     21          6           0       -4.069967   -1.879639   -0.004576
     22          6           0       -2.911271   -2.606598    0.247104
     23          6           0       -1.666230   -2.064075   -0.069278
     24          9           0       -0.596883   -2.837911    0.182075
     25          9           0       -2.993180   -3.825989    0.788483
     26          9           0       -5.263708   -2.392172    0.296023
     27          6           0       -0.572098    2.043099    0.718715
     28          9           0       -1.417380    1.233948    1.370985
     29          6           0       -0.438823    3.336789    1.219562
     30          6           0        0.430657    4.232969    0.604070
     31          6           0        1.160386    3.831096   -0.511841
     32          9           0        2.002658    4.681532   -1.105767
     33          9           0        0.567740    5.468984    1.083863
     34          9           0       -1.134738    3.718103    2.295134
 ---------------------------------------------------------------------

 SCF Done:  E(RB3LYP) =  -2524.69052524     A.U. after    2 cycles

 Excitation energies and oscillator strengths:

 Excited State   1:      Singlet-A      4.4366 eV  279.46 nm  f=0.0204  <S**2>=0.000
     129 ->130         0.69430
 This state for optimization and/or second-order correction.
 Total Energy, E(TD-HF/TD-KS) =  -2524.52748198
 Copying the excited state density for this state as the 1-particle RhoCI density.

 Excited State   2:      Singlet-A      4.7510 eV  260.96 nm  f=0.1658  <S**2>=0.000
     129 ->131         0.67868
     129 ->132        -0.10780

 Excited State   3:      Singlet-A      4.8434 eV  255.99 nm  f=0.0027  <S**2>=0.000
     126 ->130        -0.10442
     128 ->130         0.64472
     128 ->131         0.12018
     129 ->134         0.13806

 Excited State   4:      Singlet-A      4.8749 eV  254.33 nm  f=0.0263  <S**2>=0.000
     124 ->133        -0.10907
     125 ->133         0.14991
     126 ->130        -0.15628
     127 ->130         0.62332

 Excited State   5:      Singlet-A      4.9205 eV  251.98 nm  f=0.0031  <S**2>=0.000
     125 ->133        -0.11508
     126 ->130         0.49897
     128 ->131         0.34803
     129 ->135        -0.23823

 Excited State   6:      Singlet-A      4.9996 eV  247.99 nm  f=0.0093  <S**2>=0.000
     126 ->130        -0.38538
     127 ->130        -0.21264
     127 ->131        -0.12634
     128 ->130        -0.17159
     128 ->131         0.45053
     129 ->135        -0.15508

 Excited State   7:      Singlet-A      5.0210 eV  246.93 nm  f=0.0053  <S**2>=0.000
     126 ->131         0.27547
     127 ->131         0.50107
     128 ->130        -0.18720
     128 ->132         0.14333
     129 ->134         0.26062

 Excited State   8:      Singlet-A      5.1896 eV  238.91 nm  f=0.0006  <S**2>=0.000
     125 ->130         0.10527
     126 ->131         0.51861
     127 ->131        -0.38045
     128 ->131        -0.14970
     128 ->132         0.11792

 Excited State   9:      Singlet-A      5.2313 eV  237.00 nm  f=0.0917  <S**2>=0.000
     125 ->130         0.28869
     125 ->131         0.22492
     129 ->132         0.55667
     129 ->136        -0.12263

 Excited State  10:      Singlet-A      5.3054 eV  233.70 nm  f=0.1232  <S**2>=0.000
     124 ->130         0.18544
     125 ->130         0.56738
     129 ->131        -0.12093
     129 ->132        -0.27652

 The electronic state is 1-A.
 Alpha  occ. eigenvalues --  -77.14933 -24.75303 -24.75076 -24.75057 -24.74934
 Alpha  occ. eigenvalues --  -24.74862 -24.74828 -24.74730 -24.74700 -24.74695
 Alpha  occ. eigenvalues --  -24.74655 -24.74649 -24.74600 -24.74504 -24.74477
 Alpha  occ. eigenvalues --  -24.74420 -10.32564 -10.32312 -10.32256 -10.32203
 Alpha  occ. eigenvalues --  -10.32098 -10.32058 -10.32008 -10.31977 -10.31807
 Alpha  occ. eigenvalues --  -10.31714 -10.31688 -10.31579 -10.31500 -10.31473
 Alpha  occ. eigenvalues --  -10.31420 -10.25077 -10.25018 -10.24943  -6.61392
 Alpha  occ. eigenvalues --   -4.77674  -4.77664  -4.77116  -1.27527  -1.27328
 Alpha  occ. eigenvalues --   -1.27186  -1.26827  -1.26662  -1.26591  -1.26384
 Alpha  occ. eigenvalues --   -1.26186  -1.26100  -1.25397  -1.25236  -1.25178
 Alpha  occ. eigenvalues --   -1.25050  -1.24871  -1.24790  -0.91851  -0.91489
 Alpha  occ. eigenvalues --   -0.91418  -0.82530  -0.80049  -0.79948  -0.79440
 Alpha  occ. eigenvalues --   -0.79228  -0.79112  -0.71767  -0.68302  -0.68156
 Alpha  occ. eigenvalues --   -0.67565  -0.67367  -0.67292  -0.63319  -0.60795
 Alpha  occ. eigenvalues --   -0.60616  -0.60540  -0.60317  -0.60139  -0.60001
 Alpha  occ. eigenvalues --   -0.58519  -0.58441  -0.57107  -0.55759  -0.55539
 Alpha  occ. eigenvalues --   -0.55465  -0.55163  -0.55011  -0.54593  -0.53763
 Alpha  occ. eigenvalues --   -0.53608  -0.53527  -0.52994  -0.52848  -0.52511
 Alpha  occ. eigenvalues --   -0.50806  -0.50717  -0.50205  -0.49932  -0.49395
 Alpha  occ. eigenvalues --   -0.49165  -0.47741  -0.47636  -0.47266  -0.47201
 Alpha  occ. eigenvalues --   -0.46934  -0.46893  -0.45993  -0.45675  -0.45276
 Alpha  occ. eigenvalues --   -0.45110  -0.44811  -0.44736  -0.44550  -0.44408
 Alpha  occ. eigenvalues --   -0.42629  -0.42576  -0.42408  -0.42338  -0.40525
 Alpha  occ. eigenvalues --   -0.39775  -0.39471  -0.39347  -0.39309  -0.36983
 Alpha  occ. eigenvalues --   -0.36591  -0.36214  -0.31029  -0.28997  -0.27867
 Alpha  occ. eigenvalues --   -0.27080  -0.26822  -0.26602  -0.25521
 Alpha virt. eigenvalues --   -0.06442  -0.05632  -0.04088  -0.02955  -0.02870
 Alpha virt. eigenvalues --   -0.02740  -0.01391  -0.00091   0.00495   0.03660
 Alpha virt. eigenvalues --    0.04616   0.08116   0.09097   0.09954   0.10509

 Mulliken atomic charges:
              1
     1  F   -0.258210
     2  C    0.326753
     3  C   -0.290121
     4  P    0.592334
     5  C   -0.367853
     6  C    0.302978
     7  F   -0.302156
     8  C    0.248751
     9  F   -0.277976
    10  C    0.197324
    11  C    0.240236
    12  C    0.291062
    13  F   -0.287271
    14  F   -0.279260
    15  F   -0.283021
    16  C   -0.254909
    17  C    0.337797
    18  F   -0.261930
    19  C    0.278035
    20  F   -0.248537
    21  C    0.293833
    22  C    0.282162
    23  C    0.342436
    24  F   -0.238718
    25  F   -0.246087
    26  F   -0.232596
    27  C    0.339609
    28  F   -0.277191
    29  C    0.269708
    30  C    0.266053
    31  C    0.263771
    32  F   -0.257600
    33  F   -0.251521
    34  F   -0.257885
 Sum of Mulliken atomic charges =  -0.00000

 Dipole moment (field-independent basis, Debye):
    X=             -7.6314    Y=              1.7273    Z=             -1.9267  Tot=              8.0582
 Quadrupole moment (field-independent basis, Debye-Ang):
   XX=           -193.7525   YY=           -189.1189   ZZ=           -189.1044
   XY=             16.6001   XZ=              2.9562   YZ=              1.9119

 Summary of Natural Population Analysis:

                                       Natural Population
                Natural  -----------------------------------------------
    Atom  No    Charge         Core      Valence    Rydberg      Total
 -----------------------------------------------------------------------
      F    1   -0.30152      1.99994     7.29522    0.00636     9.30152
      C    2    0.38685      1.99834     3.58655    0.02827     5.61315
      C    3   -0.49762      1.99874     4.47240    0.02647     6.49762
      P    4    1.21845      9.99772     3.72428    0.05955    13.78155
      C    5   -0.63489      1.99872     4.61252    0.02365     6.63489
      C    6    0.30812      1.99831     3.66108    0.03250     5.69188
      F    7   -0.33946      1.99994     7.33308    0.00645     9.33946
      C    8    0.29941      1.99837     3.67423    0.02799     5.70059
      F    9   -0.31646      1.99994     7.30996    0.00656     9.31646
      C   10    0.22863      1.99844     3.74419    0.02875     5.77137
      C   11    0.28274      1.99838     3.69067    0.02821     5.71726
      C   12    0.34549      1.99834     3.62657    0.02961     5.65451
      F   13   -0.32900      1.99994     7.32301    0.00605     9.32900
      F   14   -0.31847      1.99994     7.31193    0.00660     9.31847
      F   15   -0.32144      1.99994     7.31466    0.00684     9.32144
      C   16   -0.45795      1.99877     4.43267    0.02651     6.45795
      C   17    0.39081      1.99833     3.58190    0.02896     5.60919
      F   18   -0.30268      1.99994     7.29618    0.00656     9.30268
      C   19    0.30790      1.99836     3.66586    0.02788     5.69210
      F   20   -0.29198      1.99994     7.28501    0.00702     9.29198
      C   21    0.37508      1.99842     3.59862    0.02788     5.62492
      C   22    0.30902      1.99839     3.66486    0.02773     5.69098
      C   23    0.40699      1.99832     3.56448    0.03022     5.59301
      F   24   -0.28209      1.99994     7.27542    0.00673     9.28209
      F   25   -0.28925      1.99994     7.28215    0.00716     9.28925
      F   26   -0.27482      1.99994     7.26765    0.00724     9.27482
      C   27    0.36448      1.99831     3.60574    0.03147     5.63552
      F   28   -0.31164      1.99994     7.30503    0.00667     9.31164
      C   29    0.31027      1.99838     3.66375    0.02760     5.68973
      C   30    0.32861      1.99842     3.64487    0.02810     5.67139
      C   31    0.29878      1.99837     3.67507    0.02779     5.70122
      F   32   -0.29983      1.99994     7.29298    0.00692     9.29983
      F   33   -0.29292      1.99994     7.28586    0.00712     9.29292
      F   34   -0.29959      1.99994     7.29269    0.00696     9.29959
 =======================================================================
   * Total *   -0.00000     75.96849   181.36115    0.67036   258.00000

 Normal termination of Gaussian 09 at Sun Oct  3 22:19:17 2021.
