 Gaussian 09, Revision A.02,

 -----------------------------------
 #p opt b3lyp/6-31G* scf=(xqc,tight)
 -----------------------------------

 ----------------------------------------------
 O=C(C(C)(C)C)Oc1ccc2c(c1)cc(cc2)n1cccn1_conf_0
 ----------------------------------------------
 Symbolic Z-matrix:
 Charge =  0 Multiplicity = 1

 SCF Done:  E(RB3LYP) =  -956.707511777     A.U. after   15 cycles
 SCF Done:  E(RB3LYP) =  -956.713836319     A.U. after   16 cycles
 SCF Done:  E(RB3LYP) =  -956.711541074     A.U. after   14 cycles
 SCF Done:  E(RB3LYP) =  -956.714552655     A.U. after   13 cycles
 SCF Done:  E(RB3LYP) =  -956.715107475     A.U. after   12 cycles
 SCF Done:  E(RB3LYP) =  -956.715343362     A.U. after   12 cycles
 SCF Done:  E(RB3LYP) =  -956.715515134     A.U. after   12 cycles
 SCF Done:  E(RB3LYP) =  -956.715690781     A.U. after   12 cycles
 SCF Done:  E(RB3LYP) =  -956.715747188     A.U. after   12 cycles
 SCF Done:  E(RB3LYP) =  -956.715759799     A.U. after   11 cycles
 SCF Done:  E(RB3LYP) =  -956.715891875     A.U. after   11 cycles
 SCF Done:  E(RB3LYP) =  -956.715903347     A.U. after   11 cycles
 SCF Done:  E(RB3LYP) =  -956.715952840     A.U. after   11 cycles
 SCF Done:  E(RB3LYP) =  -956.715976996     A.U. after   11 cycles
 SCF Done:  E(RB3LYP) =  -956.715980381     A.U. after   10 cycles
 SCF Done:  E(RB3LYP) =  -956.715979906     A.U. after    9 cycles
 SCF Done:  E(RB3LYP) =  -956.715981733     A.U. after    9 cycles
 SCF Done:  E(RB3LYP) =  -956.715981960     A.U. after    8 cycles
 Optimization completed.
    -- Stationary point found.
 Normal termination of Gaussian 09 at Wed Sep 29 17:00:58 2021.

 ----------------------------------------------------------------------
 #p freq b3lyp/6-31G* volume NMR pop=NPA density=current Geom=AllCheck
 Guess=Read
 ----------------------------------------------------------------------

 O=C(C(C)(C)C)Oc1ccc2c(c1)cc(cc2)n1cccn1_conf_0
 ----------------------------------------------
 Redundant internal coordinates taken from checkpoint file:
 C18H18N2O2_2055_conf_0.chk
 Charge =  0 Multiplicity = 1

 SCF Done:  E(RB3LYP) =  -956.715981960     A.U. after    1 cycles

  1  O    Isotropic =   -64.7447   Anisotropy =   573.4676

  2  C    Isotropic =    22.2287   Anisotropy =    77.4094

  3  C    Isotropic =   148.9012   Anisotropy =    24.3238

  4  C    Isotropic =   162.0724   Anisotropy =    38.0463

  5  C    Isotropic =   162.1312   Anisotropy =    36.9372

  6  C    Isotropic =   162.8727   Anisotropy =    31.3866

  7  O    Isotropic =   107.4696   Anisotropy =   158.1082

  8  C    Isotropic =    45.2531   Anisotropy =   108.0108

  9  C    Isotropic =    73.5840   Anisotropy =   148.4175

 10  C    Isotropic =    67.2377   Anisotropy =   142.7486

 11  C    Isotropic =    67.6336   Anisotropy =   191.2903

 12  C    Isotropic =    61.8100   Anisotropy =   191.6575

 13  C    Isotropic =    77.1950   Anisotropy =   120.6392

 14  C    Isotropic =    77.2602   Anisotropy =   132.8320

 15  C    Isotropic =    57.9150   Anisotropy =   123.6200

 16  C    Isotropic =    80.1812   Anisotropy =   138.0762

 17  C    Isotropic =    66.6429   Anisotropy =   144.5823

 18  N    Isotropic =    35.9507   Anisotropy =   136.9792

 19  C    Isotropic =    71.0156   Anisotropy =   113.7489

 20  C    Isotropic =    87.7968   Anisotropy =   112.4548

 21  C    Isotropic =    56.0215   Anisotropy =   122.5135

 22  N    Isotropic =   -41.4491   Anisotropy =   325.5922

 23  H    Isotropic =    30.2679   Anisotropy =     7.5045

 24  H    Isotropic =    30.8080   Anisotropy =     7.9001

 25  H    Isotropic =    31.0605   Anisotropy =     7.9817

 26  H    Isotropic =    30.3644   Anisotropy =     5.8318

 27  H    Isotropic =    31.0648   Anisotropy =     7.9282

 28  H    Isotropic =    30.7999   Anisotropy =     8.1423

 29  H    Isotropic =    30.6329   Anisotropy =     7.8172

 30  H    Isotropic =    30.6230   Anisotropy =     8.2657

 31  H    Isotropic =    31.4420   Anisotropy =     7.9468

 32  H    Isotropic =    24.7938   Anisotropy =     9.1018

 33  H    Isotropic =    24.6244   Anisotropy =     6.9551

 34  H    Isotropic =    24.9550   Anisotropy =     9.8942

 35  H    Isotropic =    23.8718   Anisotropy =    10.9564

 36  H    Isotropic =    24.8917   Anisotropy =     7.9012

 37  H    Isotropic =    24.5664   Anisotropy =     7.0332

 38  H    Isotropic =    24.5415   Anisotropy =     6.1211

 39  H    Isotropic =    26.0161   Anisotropy =     3.0141

 40  H    Isotropic =    24.7858   Anisotropy =     2.8150

  Exact polarizability: 352.719 -19.979 206.851  -9.757  -6.186 103.715
 Approx polarizability: 479.902 -24.515 354.692 -20.021 -20.545 165.123

                     1                      2                      3
                     A                      A                      A
 Frequencies --    19.8384                31.9785                39.3832
 Red. masses --     3.5458                 4.3638                 4.3667
 Frc consts  --     0.0008                 0.0026                 0.0040
 IR Inten    --     0.3949                 1.7455                 2.7546

                     4                      5                      6
                     A                      A                      A
 Frequencies --    48.4067                65.6931                75.8262
 Red. masses --     5.5976                 5.1819                 4.8053
 Frc consts  --     0.0077                 0.0132                 0.0163
 IR Inten    --     0.9040                 0.0363                 0.4381

                     7                      8                      9
                     A                      A                      A
 Frequencies --   117.7119               142.8669               179.1985
 Red. masses --     5.5164                 4.8781                 4.6739
 Frc consts  --     0.0450                 0.0587                 0.0884
 IR Inten    --     0.8006                 1.1557                 0.1134

                    10                     11                     12
                     A                      A                      A
 Frequencies --   189.2642               205.4948               226.2514
 Red. masses --     4.9587                 1.3202                 1.6709
 Frc consts  --     0.1047                 0.0328                 0.0504
 IR Inten    --     0.9718                 0.1597                 0.0725

                    13                     14                     15
                     A                      A                      A
 Frequencies --   257.4938               269.2768               284.0816
 Red. masses --     2.1255                 1.1017                 1.5007
 Frc consts  --     0.0830                 0.0471                 0.0714
 IR Inten    --     0.5435                 0.0878                 0.5063

                    16                     17                     18
                     A                      A                      A
 Frequencies --   304.8927               320.4428               328.8941
 Red. masses --     3.8383                 5.9231                 4.7002
 Frc consts  --     0.2102                 0.3583                 0.2996
 IR Inten    --     5.3011                 1.7887                 0.3879

                    19                     20                     21
                     A                      A                      A
 Frequencies --   332.3066               356.5016               376.5448
 Red. masses --     3.7642                 3.2940                 2.3890
 Frc consts  --     0.2449                 0.2467                 0.1996
 IR Inten    --     4.2998                 9.1740                 0.5241

                    22                     23                     24
                     A                      A                      A
 Frequencies --   408.0364               439.3057               450.7618
 Red. masses --     4.3775                 3.7884                 3.7090
 Frc consts  --     0.4294                 0.4308                 0.4440
 IR Inten    --     1.5190                 0.4889                 1.3928

                    25                     26                     27
                     A                      A                      A
 Frequencies --   487.2847               506.6962               534.1790
 Red. masses --     2.7170                 4.1010                 6.0439
 Frc consts  --     0.3801                 0.6203                 1.0161
 IR Inten    --     8.6877                 6.7018                 2.7758

                    28                     29                     30
                     A                      A                      A
 Frequencies --   584.6500               611.1268               624.7409
 Red. masses --     4.2594                 4.3857                 4.9826
 Frc consts  --     0.8578                 0.9650                 1.1458
 IR Inten    --     6.8857                 4.6914                 5.5667

                    31                     32                     33
                     A                      A                      A
 Frequencies --   630.1733               646.9708               657.8230
 Red. masses --     4.0153                 4.6324                 3.6470
 Frc consts  --     0.9395                 1.1424                 0.9298
 IR Inten    --     6.2419                 0.2017                 1.4133

                    34                     35                     36
                     A                      A                      A
 Frequencies --   672.0317               751.1636               756.5730
 Red. masses --     6.2580                 1.2690                 3.9032
 Frc consts  --     1.6652                 0.4219                 1.3164
 IR Inten    --     3.9771                44.3757                 3.5209

                    37                     38                     39
                     A                      A                      A
 Frequencies --   760.1589               764.3445               786.9591
 Red. masses --     4.9255                 5.5527                 3.1597
 Frc consts  --     1.6769                 1.9113                 1.1529
 IR Inten    --     6.8775                 7.2532                 1.7492

                    40                     41                     42
                     A                      A                      A
 Frequencies --   795.2590               819.2683               831.8910
 Red. masses --     2.0768                 2.6001                 1.2502
 Frc consts  --     0.7739                 1.0282                 0.5098
 IR Inten    --     1.0045                 4.6265                 2.0345

                    43                     44                     45
                     A                      A                      A
 Frequencies --   846.7469               873.2365               886.6175
 Red. masses --     1.7562                 1.7439                 1.3087
 Frc consts  --     0.7419                 0.7835                 0.6061
 IR Inten    --    33.8115                 3.7957                 3.8227

                    46                     47                     48
                     A                      A                      A
 Frequencies --   897.3048               925.5450               930.8398
 Red. masses --     2.6665                 3.0719                 1.9899
 Frc consts  --     1.2649                 1.5504                 1.0158
 IR Inten    --    12.3681                17.6644                33.6511

                    49                     50                     51
                     A                      A                      A
 Frequencies --   934.3016               948.6079               949.9683
 Red. masses --     5.0218                 1.2752                 1.7646
 Frc consts  --     2.5828                 0.6761                 0.9382
 IR Inten    --    34.2115                 0.6124                 1.5762

                    52                     53                     54
                     A                      A                      A
 Frequencies --   956.7237               961.4634               979.8899
 Red. masses --     1.6412                 1.3253                 3.5893
 Frc consts  --     0.8851                 0.7218                 2.0306
 IR Inten    --     6.9191                 2.4881                 3.3423

                    55                     56                     57
                     A                      A                      A
 Frequencies --   983.1490               989.5067              1059.6696
 Red. masses --     1.1987                 3.0139                 1.4745
 Frc consts  --     0.6827                 1.7386                 0.9755
 IR Inten    --     0.0195                28.6746                56.3740

                    58                     59                     60
                     A                      A                      A
 Frequencies --  1061.2153              1062.0706              1073.6261
 Red. masses --     2.0555                 1.4354                 1.4662
 Frc consts  --     1.3639                 0.9540                 0.9957
 IR Inten    --    17.7621                 6.3963                49.7967

                    61                     62                     63
                     A                      A                      A
 Frequencies --  1139.0601              1144.9524              1168.0333
 Red. masses --     2.6974                 2.0576                 1.6810
 Frc consts  --     2.0620                 1.5892                 1.3513
 IR Inten    --   394.8995                69.4942               189.5966

                    64                     65                     66
                     A                      A                      A
 Frequencies --  1187.7203              1192.8172              1228.4363
 Red. masses --     1.7504                 1.2658                 2.1236
 Frc consts  --     1.4549                 1.0612                 1.8881
 IR Inten    --   177.5613                72.8994               123.9048

                    67                     68                     69
                     A                      A                      A
 Frequencies --  1242.0348              1245.7234              1264.7933
 Red. masses --     2.6539                 2.2774                 2.7779
 Frc consts  --     2.4121                 2.0822                 2.6182
 IR Inten    --     1.9361                94.5612                20.4571

                    70                     71                     72
                     A                      A                      A
 Frequencies --  1269.9471              1294.4822              1299.2851
 Red. masses --     1.8329                 1.7648                 3.2434
 Frc consts  --     1.7416                 1.7423                 3.2260
 IR Inten    --     9.7541                 4.8599                90.2030

                    73                     74                     75
                     A                      A                      A
 Frequencies --  1309.8105              1363.4171              1382.9213
 Red. masses --     3.1432                 3.6853                 2.1804
 Frc consts  --     3.1772                 4.0362                 2.4568
 IR Inten    --    38.9771                18.2698                 7.2843

                    76                     77                     78
                     A                      A                      A
 Frequencies --  1420.0675              1424.4365              1424.7334
 Red. masses --     3.8179                 6.8611                 1.2079
 Frc consts  --     4.5362                 8.2022                 1.4446
 IR Inten    --    21.2340                 0.1724                 3.8694

                    79                     80                     81
                     A                      A                      A
 Frequencies --  1430.4876              1444.7349              1458.0577
 Red. masses --     1.2421                 4.0535                 3.5893
 Frc consts  --     1.4975                 4.9849                 4.4959
 IR Inten    --     3.9679               119.8582                11.2683

                    82                     83                     84
                     A                      A                      A
 Frequencies --  1459.6435              1503.1110              1508.4405
 Red. masses --     1.2229                 4.0141                 1.0485
 Frc consts  --     1.5351                 5.3435                 1.4057
 IR Inten    --    16.5570                56.3737                 0.0503

                    85                     86                     87
                     A                      A                      A
 Frequencies --  1515.0555              1515.6917              1522.2988
 Red. masses --     2.8031                 1.0553                 1.0455
 Frc consts  --     3.7909                 1.4284                 1.4275
 IR Inten    --    31.3443                 0.8394                 0.0655

                    88                     89                     90
                     A                      A                      A
 Frequencies --  1530.2430              1533.6763              1551.9152
 Red. masses --     1.0489                 1.0535                 1.0688
 Frc consts  --     1.4471                 1.4600                 1.5167
 IR Inten    --     5.4310                 7.3022                35.0101

                    91                     92                     93
                     A                      A                      A
 Frequencies --  1564.1517              1583.0975              1629.9780
 Red. masses --     3.5184                 4.2007                 7.5372
 Frc consts  --     5.0718                 6.2028                11.7984
 IR Inten    --    40.8890               100.8882                 7.3617

                    94                     95                     96
                     A                      A                      A
 Frequencies --  1667.4736              1688.8180              1830.6737
 Red. masses --     6.0226                 6.5455                12.6877
 Frc consts  --     9.8662                10.9991                25.0528
 IR Inten    --    22.1163               123.8918               189.9839

                    97                     98                     99
                     A                      A                      A
 Frequencies --  3050.9081              3052.9587              3061.7304
 Red. masses --     1.0357                 1.0360                 1.0365
 Frc consts  --     5.6799                 5.6893                 5.7248
 IR Inten    --    27.2473                10.9039                30.4461

                   100                    101                    102
                     A                      A                      A
 Frequencies --  3114.0494              3116.5596              3129.3499
 Red. masses --     1.1029                 1.1025                 1.1018
 Frc consts  --     6.3015                 6.3095                 6.3569
 IR Inten    --    14.0978                23.0062                40.3694

                   103                    104                    105
                     A                      A                      A
 Frequencies --  3139.3310              3140.4813              3144.0193
 Red. masses --     1.1027                 1.1020                 1.1010
 Frc consts  --     6.4029                 6.4035                 6.4119
 IR Inten    --    10.5488                14.1087                46.1016

                   106                    107                    108
                     A                      A                      A
 Frequencies --  3188.0954              3191.7676              3211.7376
 Red. masses --     1.0891                 1.0893                 1.0914
 Frc consts  --     6.5222                 6.5383                 6.6329
 IR Inten    --     0.2919                22.5164                 4.3797

                   109                    110                    111
                     A                      A                      A
 Frequencies --  3220.1232              3237.2803              3246.3004
 Red. masses --     1.0930                 1.0908                 1.0933
 Frc consts  --     6.6773                 6.7354                 6.7882
 IR Inten    --    11.7398                 0.2993                 3.5759

                   112                    113                    114
                     A                      A                      A
 Frequencies --  3258.5988              3280.4205              3301.1190
 Red. masses --     1.0930                 1.0948                 1.1035
 Frc consts  --     6.8381                 6.9412                 7.0848
 IR Inten    --     6.8619                 3.7854                 0.9788

 - Thermochemistry -
 -------------------
 Temperature   298.150 Kelvin.  Pressure   1.00000 Atm.
 Atom     1 has atomic number  8 and mass  15.99491

 Molecular mass:   294.13683 amu.
 Principal axes and moments of inertia in atomic units:
                           1         2         3
     Eigenvalues --  2358.02075********************
           X            0.99995   0.00958  -0.00266
           Y           -0.00958   0.99995   0.00176
           Z            0.00267  -0.00173   0.99999
 This molecule is an asymmetric top.
 Rotational symmetry number  1.
 Warning -- assumption of classical behavior for rotation
           may cause significant error
 Rotational temperatures (Kelvin)      0.03673     0.00510     0.00464
 Rotational constants (GHZ):           0.76536     0.10620     0.09668
 Zero-point vibrational energy     855552.9 (Joules/Mol)
                                  204.48205 (Kcal/Mol)
 Warning -- explicit consideration of  29 degrees of freedom as
           vibrations may cause significant error
 Vibrational temperatures:     28.54    46.01    56.66    69.65    94.52
          (Kelvin)            109.10   169.36   205.55   257.83   272.31
                              295.66   325.52   370.48   387.43   408.73
                              438.67   461.05   473.20   478.11   512.93
                              541.76   587.07   632.06   648.54   701.09
                              729.02   768.56   841.18   879.27   898.86
                              906.68   930.85   946.46   966.90  1080.76
                             1088.54  1093.70  1099.72  1132.26  1144.20
                             1178.74  1196.90  1218.28  1256.39  1275.64
                             1291.02  1331.65  1339.27  1344.25  1364.83
                             1366.79  1376.51  1383.33  1409.84  1414.53
                             1423.68  1524.63  1526.85  1528.08  1544.71
                             1638.85  1647.33  1680.54  1708.86  1716.20
                             1767.44  1787.01  1792.32  1819.75  1827.17
                             1862.47  1869.38  1884.52  1961.65  1989.71
                             2043.16  2049.44  2049.87  2058.15  2078.65
                             2097.82  2100.10  2162.64  2170.31  2179.82
                             2180.74  2190.25  2201.68  2206.62  2232.86
                             2250.46  2277.72  2345.17  2399.12  2429.83
                             2633.93  4389.57  4392.52  4405.14  4480.42
                             4484.03  4502.43  4516.79  4518.45  4523.54
                             4586.95  4592.24  4620.97  4633.03  4657.72
                             4670.70  4688.39  4719.79  4749.57

 Zero-point correction=                           0.325863 (Hartree/Particle)
 Thermal correction to Energy=                    0.345256
 Thermal correction to Enthalpy=                  0.346200
 Thermal correction to Gibbs Free Energy=         0.276268
 Sum of electronic and zero-point Energies=           -956.390119
 Sum of electronic and thermal Energies=              -956.370726
 Sum of electronic and thermal Enthalpies=            -956.369782
 Sum of electronic and thermal Free Energies=         -956.439714

                     E (Thermal)             CV                S
                      KCal/Mol        Cal/Mol-Kelvin    Cal/Mol-Kelvin
 Total                  216.651             75.726            147.186
 Electronic               0.000              0.000              0.000
 Translational            0.889              2.981             42.934
 Rotational               0.889              2.981             34.969
 Vibrational            214.874             69.765             69.283
 Vibration     1          0.593              1.986              6.650
 Vibration     2          0.594              1.983              5.703
 Vibration     3          0.594              1.981              5.290
 Vibration     4          0.595              1.978              4.881
 Vibration     5          0.597              1.971              4.278
 Vibration     6          0.599              1.965              3.996
 Vibration     7          0.608              1.935              3.138
 Vibration     8          0.616              1.910              2.765
 Vibration     9          0.629              1.868              2.337
 Vibration    10          0.633              1.855              2.235
 Vibration    11          0.640              1.832              2.083
 Vibration    12          0.650              1.801              1.908
 Vibration    13          0.667              1.750              1.679
 Vibration    14          0.674              1.730              1.601
 Vibration    15          0.682              1.703              1.509
 Vibration    16          0.696              1.664              1.390
 Vibration    17          0.706              1.634              1.308
 Vibration    18          0.712              1.618              1.266
 Vibration    19          0.714              1.611              1.249
 Vibration    20          0.732              1.562              1.137
 Vibration    21          0.747              1.520              1.053
 Vibration    22          0.773              1.453              0.934
 Vibration    23          0.799              1.384              0.829
 Vibration    24          0.810              1.359              0.793
 Vibration    25          0.843              1.278              0.691
 Vibration    26          0.862              1.235              0.642
 Vibration    27          0.889              1.174              0.578
 Vibration    28          0.942              1.065              0.477
 Vibration    29          0.970              1.008              0.431

 Optimization completed.
    -- Stationary point found.
 Normal termination of Gaussian 09 at Wed Sep 29 20:08:01 2021.
 Gaussian 09:  AM64L-G09RevA.02 11-Jun-2009

 ----------------------------------------------------------------------
 #p TD(NStates=10, Root=1) b3lyp/6-31G* volume pop=NPA density=current
 Geom=AllCheck Guess=Read
 ----------------------------------------------------------------------

 O=C(C(C)(C)C)Oc1ccc2c(c1)cc(cc2)n1cccn1_conf_0
 ----------------------------------------------
 Redundant internal coordinates taken from checkpoint file:
 C18H18N2O2_2055_conf_0.chk
 Charge =  0 Multiplicity = 1

                         Standard orientation:
 ---------------------------------------------------------------------
 Center     Atomic      Atomic             Coordinates (Angstroms)
 Number     Number       Type             X           Y           Z
 ---------------------------------------------------------------------
      1          8           0       -3.777293    0.862632   -1.262938
      2          6           0       -3.804564    0.031209   -0.388431
      3          6           0       -4.997793   -0.857599   -0.024932
      4          6           0       -4.600075   -2.338239   -0.221936
      5          6           0       -5.380493   -0.611331    1.451800
      6          6           0       -6.173828   -0.497664   -0.946340
      7          8           0       -2.731547   -0.245946    0.424616
      8          6           0       -1.532121    0.451544    0.275133
      9          6           0       -1.497405    1.867018    0.283479
     10          6           0       -0.281209    2.505810    0.220468
     11          6           0        0.934287    1.775128    0.152540
     12          6           0        0.884007    0.343507    0.154689
     13          6           0       -0.382105   -0.297110    0.215369
     14          6           0        2.090293   -0.396544    0.085055
     15          6           0        3.305792    0.253579    0.023964
     16          6           0        3.364676    1.672169    0.038245
     17          6           0        2.203851    2.406209    0.094198
     18          7           0        4.506129   -0.499316   -0.046999
     19          6           0        5.733657   -0.093508   -0.495699
     20          6           0        6.576557   -1.178607   -0.400973
     21          6           0        5.762147   -2.211865    0.117681
     22          7           0        4.515120   -1.805808    0.329598
     23          1           0       -3.767017   -2.617868    0.428803
     24          1           0       -4.308506   -2.535758   -1.259950
     25          1           0       -5.454496   -2.982537    0.014911
     26          1           0       -4.556287   -0.861075    2.125564
     27          1           0       -6.243310   -1.233417    1.716044
     28          1           0       -5.658411    0.435575    1.621085
     29          1           0       -5.916505   -0.654347   -1.998089
     30          1           0       -6.462683    0.551347   -0.829899
     31          1           0       -7.039340   -1.124273   -0.703661
     32          1           0       -2.421987    2.428517    0.330791
     33          1           0       -0.240803    3.592183    0.223901
     34          1           0       -0.445623   -1.380889    0.220930
     35          1           0        2.067767   -1.480029    0.081602
     36          1           0        4.324104    2.178106    0.030194
     37          1           0        2.252487    3.492101    0.108626
     38          1           0        5.902658    0.905673   -0.866459
     39          1           0        7.621527   -1.219743   -0.671708
     40          1           0        6.034351   -3.233408    0.349821
 ---------------------------------------------------------------------

 SCF Done:  E(RB3LYP) =  -956.715981960     A.U. after    1 cycles

 Excitation energies and oscillator strengths:

 Excited State   1:      Singlet-A      4.0966 eV  302.65 nm  f=0.0446  <S**2>=0.000
      77 -> 79         0.31878
      77 -> 80         0.13297
      78 -> 79         0.51351
      78 -> 80        -0.32977
 This state for optimization and/or second-order correction.
 Total Energy, E(TD-HF/TD-KS) =  -956.565435675
 Copying the excited state density for this state as the 1-particle RhoCI density.

 Excited State   2:      Singlet-A      4.2165 eV  294.05 nm  f=0.0419  <S**2>=0.000
      77 -> 79        -0.39321
      78 -> 79         0.45500
      78 -> 80         0.34941

 Excited State   3:      Singlet-A      4.9227 eV  251.86 nm  f=0.7356  <S**2>=0.000
      76 -> 79        -0.38942
      77 -> 79         0.38230
      78 -> 80         0.39538

 Excited State   4:      Singlet-A      4.9933 eV  248.30 nm  f=0.4240  <S**2>=0.000
      76 -> 79         0.58259
      77 -> 79         0.23184
      78 -> 80         0.27726

 Excited State   5:      Singlet-A      5.2376 eV  236.72 nm  f=0.0769  <S**2>=0.000
      74 -> 79        -0.10417
      75 -> 79         0.29138
      75 -> 80        -0.11143
      77 -> 80         0.57277
      78 -> 79        -0.10920
      78 -> 81        -0.13679

 Excited State   6:      Singlet-A      5.3160 eV  233.23 nm  f=0.1516  <S**2>=0.000
      74 -> 79        -0.16670
      74 -> 81         0.10814
      75 -> 80         0.13797
      75 -> 81         0.18839
      77 -> 79        -0.10832
      77 -> 80         0.20176
      78 -> 81         0.56951

 Excited State   7:      Singlet-A      5.4333 eV  228.19 nm  f=0.0438  <S**2>=0.000
      74 -> 79         0.18772
      75 -> 79         0.48623
      77 -> 80        -0.18697
      78 -> 81         0.25514
      78 -> 82        -0.27203

 Excited State   8:      Singlet-A      5.5082 eV  225.09 nm  f=0.0106  <S**2>=0.000
      72 -> 79        -0.10535
      74 -> 79         0.44129
      74 -> 80        -0.11913
      74 -> 81        -0.14118
      75 -> 80        -0.11879
      75 -> 81        -0.14498
      77 -> 80         0.10539
      78 -> 81         0.20535
      78 -> 82         0.37055

 Excited State   9:      Singlet-A      5.6222 eV  220.52 nm  f=0.0024  <S**2>=0.000
      76 -> 80         0.67891
      78 -> 82        -0.10042

 Excited State  10:      Singlet-A      5.7280 eV  216.45 nm  f=0.0109  <S**2>=0.000
      72 -> 79        -0.15877
      74 -> 79         0.22872
      74 -> 80         0.19275
      74 -> 81         0.24627
      75 -> 79         0.29078
      75 -> 80         0.26715
      75 -> 81         0.29698
      78 -> 81        -0.12941
      78 -> 82         0.19442

 The electronic state is 1-A.
 Alpha  occ. eigenvalues --  -19.20212 -19.14291 -14.41999 -14.34766 -10.31875
 Alpha  occ. eigenvalues --  -10.25625 -10.24234 -10.22532 -10.21607 -10.20751
 Alpha  occ. eigenvalues --  -10.20702 -10.20319 -10.20287 -10.20159 -10.19925
 Alpha  occ. eigenvalues --  -10.19739 -10.19505 -10.19351 -10.18511 -10.18414
 Alpha  occ. eigenvalues --  -10.18397 -10.17600  -1.10914  -1.05064  -1.02611
 Alpha  occ. eigenvalues --   -0.88656  -0.85595  -0.82786  -0.80850  -0.78959
 Alpha  occ. eigenvalues --   -0.77486  -0.74507  -0.72524  -0.69364  -0.68939
 Alpha  occ. eigenvalues --   -0.66700  -0.64620  -0.61997  -0.60661  -0.59026
 Alpha  occ. eigenvalues --   -0.58115  -0.55721  -0.54357  -0.52170  -0.49956
 Alpha  occ. eigenvalues --   -0.48809  -0.48247  -0.46543  -0.46095  -0.45756
 Alpha  occ. eigenvalues --   -0.45020  -0.44256  -0.44080  -0.43499  -0.42643
 Alpha  occ. eigenvalues --   -0.42521  -0.42075  -0.41278  -0.39993  -0.39612
 Alpha  occ. eigenvalues --   -0.39339  -0.38728  -0.38221  -0.37014  -0.36631
 Alpha  occ. eigenvalues --   -0.35750  -0.34790  -0.34068  -0.33619  -0.33279
 Alpha  occ. eigenvalues --   -0.31665  -0.29208  -0.28894  -0.27541  -0.27009
 Alpha  occ. eigenvalues --   -0.25043  -0.23123  -0.21251
 Alpha virt. eigenvalues --   -0.04639  -0.02476   0.00589   0.01920   0.03644
 Alpha virt. eigenvalues --    0.07018   0.08149   0.08784   0.10108   0.10842
 Alpha virt. eigenvalues --    0.11997   0.12469   0.12612   0.14584   0.14957

 Mulliken atomic charges:
              1
     1  O   -0.471590
     2  C    0.627278
     3  C   -0.005882
     4  C   -0.450403
     5  C   -0.450908
     6  C   -0.433266
     7  O   -0.537069
     8  C    0.332279
     9  C   -0.119505
    10  C   -0.236283
    11  C    0.175525
    12  C    0.132144
    13  C   -0.257934
    14  C   -0.241654
    15  C    0.342264
    16  C   -0.187208
    17  C   -0.228638
    18  N   -0.353130
    19  C    0.090942
    20  C   -0.241760
    21  C    0.076509
    22  N   -0.273069
    23  H    0.162319
    24  H    0.150651
    25  H    0.144819
    26  H    0.165347
    27  H    0.144698
    28  H    0.147495
    29  H    0.155924
    30  H    0.153088
    31  H    0.134319
    32  H    0.152334
    33  H    0.129554
    34  H    0.132093
    35  H    0.170101
    36  H    0.123841
    37  H    0.129480
    38  H    0.185957
    39  H    0.161688
    40  H    0.167648
 Sum of Mulliken atomic charges =  -0.00000

 Dipole moment (field-independent basis, Debye):
    X=              4.3674    Y=             -0.8632    Z=              0.4445  Tot=              4.4740
 Quadrupole moment (field-independent basis, Debye-Ang):
   XX=            -90.1262   YY=           -119.3551   ZZ=           -134.4236
   XY=              3.1544   XZ=            -10.5773   YZ=              2.7372

 Summary of Natural Population Analysis:

                                       Natural Population
                Natural  -----------------------------------------------
    Atom  No    Charge         Core      Valence    Rydberg      Total
 -----------------------------------------------------------------------
      O    1   -0.58548      1.99977     6.56577    0.01993     8.58548
      C    2    0.83420      1.99928     3.11736    0.04917     5.16580
      C    3   -0.15066      1.99905     4.13919    0.01241     6.15066
      C    4   -0.66843      1.99938     4.65930    0.00974     6.66843
      C    5   -0.66904      1.99938     4.65994    0.00972     6.66904
      C    6   -0.66928      1.99940     4.65883    0.01106     6.66928
      O    7   -0.54706      1.99970     6.53623    0.01113     8.54706
      C    8    0.25712      1.99873     3.72109    0.02307     5.74288
      C    9   -0.19945      1.99902     4.18621    0.01422     6.19945
      C   10   -0.24936      1.99908     4.23514    0.01514     6.24936
      C   11   -0.03320      1.99902     4.01956    0.01462     6.03320
      C   12   -0.04372      1.99904     4.02941    0.01527     6.04372
      C   13   -0.26629      1.99897     4.25201    0.01531     6.26629
      C   14   -0.21281      1.99901     4.19908    0.01472     6.21281
      C   15    0.18254      1.99895     3.79823    0.02028     5.81746
      C   16   -0.30792      1.99906     4.29403    0.01483     6.30792
      C   17   -0.22420      1.99908     4.20933    0.01579     6.22420
      N   18   -0.12500      1.99931     5.10916    0.01653     7.12500
      C   19   -0.04707      1.99915     4.03121    0.01671     6.04707
      C   20   -0.30531      1.99909     4.29372    0.01250     6.30531
      C   21   -0.01117      1.99931     3.98922    0.02264     6.01117
      N   22   -0.29202      1.99950     5.26720    0.02531     7.29202
      H   23    0.24315      0.00000     0.75569    0.00116     0.75685
      H   24    0.23566      0.00000     0.76342    0.00092     0.76434
      H   25    0.23234      0.00000     0.76658    0.00108     0.76766
      H   26    0.24503      0.00000     0.75388    0.00109     0.75497
      H   27    0.23238      0.00000     0.76647    0.00114     0.76762
      H   28    0.23401      0.00000     0.76505    0.00094     0.76599
      H   29    0.24283      0.00000     0.75610    0.00107     0.75717
      H   30    0.24122      0.00000     0.75772    0.00106     0.75878
      H   31    0.22810      0.00000     0.77096    0.00094     0.77190
      H   32    0.25180      0.00000     0.74717    0.00103     0.74820
      H   33    0.23413      0.00000     0.76484    0.00103     0.76587
      H   34    0.24133      0.00000     0.75729    0.00138     0.75867
      H   35    0.25925      0.00000     0.73937    0.00138     0.74075
      H   36    0.23055      0.00000     0.76860    0.00085     0.76945
      H   37    0.23519      0.00000     0.76377    0.00104     0.76481
      H   38    0.25003      0.00000     0.74929    0.00068     0.74997
      H   39    0.25486      0.00000     0.74476    0.00039     0.74514
      H   40    0.24174      0.00000     0.75788    0.00038     0.75826
 =======================================================================
   * Total *    0.00000     43.98227   111.62008    0.39765   156.00000

 Normal termination of Gaussian 09 at Thu Sep 30 04:22:36 2021.
