 Gaussian 09, Revision A.02,

 -----------------------------------
 #p opt b3lyp/6-31G* scf=(xqc,tight)
 -----------------------------------

 ----------------------------------------------
 O=C(C(C)(C)C)Oc1ccc2c(c1)cc(cc2)n1cncc1_conf_0
 ----------------------------------------------
 Symbolic Z-matrix:
 Charge =  0 Multiplicity = 1

 SCF Done:  E(RB3LYP) =  -956.719256648     A.U. after   15 cycles
 SCF Done:  E(RB3LYP) =  -956.725275812     A.U. after   16 cycles
 SCF Done:  E(RB3LYP) =  -956.723045129     A.U. after   14 cycles
 SCF Done:  E(RB3LYP) =  -956.725761579     A.U. after   13 cycles
 SCF Done:  E(RB3LYP) =  -956.726322167     A.U. after   12 cycles
 SCF Done:  E(RB3LYP) =  -956.726867897     A.U. after   12 cycles
 SCF Done:  E(RB3LYP) =  -956.727681964     A.U. after   15 cycles
 SCF Done:  E(RB3LYP) =  -956.728656104     A.U. after   13 cycles
 SCF Done:  E(RB3LYP) =  -956.729287796     A.U. after   12 cycles
 SCF Done:  E(RB3LYP) =  -956.729312148     A.U. after   16 cycles
 SCF Done:  E(RB3LYP) =  -956.729418777     A.U. after    9 cycles
 SCF Done:  E(RB3LYP) =  -956.729420932     A.U. after   10 cycles
 SCF Done:  E(RB3LYP) =  -956.729422794     A.U. after   10 cycles
 SCF Done:  E(RB3LYP) =  -956.729422912     A.U. after    7 cycles
 SCF Done:  E(RB3LYP) =  -956.729422888     A.U. after    8 cycles
 SCF Done:  E(RB3LYP) =  -956.729423405     A.U. after    9 cycles
 SCF Done:  E(RB3LYP) =  -956.729423483     A.U. after    7 cycles
 SCF Done:  E(RB3LYP) =  -956.729423548     A.U. after    7 cycles
 Optimization completed.
    -- Stationary point found.
 Normal termination of Gaussian 09 at Wed Sep 29 13:28:22 2021.

 ----------------------------------------------------------------------
 #p freq b3lyp/6-31G* volume NMR pop=NPA density=current Geom=AllCheck
 Guess=Read
 ----------------------------------------------------------------------

 O=C(C(C)(C)C)Oc1ccc2c(c1)cc(cc2)n1cncc1_conf_0
 ----------------------------------------------
 Redundant internal coordinates taken from checkpoint file:
 C18H18N2O2_86fa_conf_0.chk
 Charge =  0 Multiplicity = 1

 SCF Done:  E(RB3LYP) =  -956.729423548     A.U. after    1 cycles

  1  O    Isotropic =   -65.3229   Anisotropy =   573.5544

  2  C    Isotropic =    22.2012   Anisotropy =    77.2760

  3  C    Isotropic =   148.7421   Anisotropy =    24.4924

  4  C    Isotropic =   162.1540   Anisotropy =    38.0074

  5  C    Isotropic =   162.0688   Anisotropy =    37.1772

  6  C    Isotropic =   162.8924   Anisotropy =    31.4055

  7  O    Isotropic =   107.3251   Anisotropy =   159.7216

  8  C    Isotropic =    44.8940   Anisotropy =   109.5492

  9  C    Isotropic =    73.0144   Anisotropy =   149.8060

 10  C    Isotropic =    66.8095   Anisotropy =   143.8332

 11  C    Isotropic =    67.1894   Anisotropy =   192.6045

 12  C    Isotropic =    61.9891   Anisotropy =   191.4115

 13  C    Isotropic =    77.8579   Anisotropy =   119.9786

 14  C    Isotropic =    76.3512   Anisotropy =   122.0525

 15  C    Isotropic =    59.1748   Anisotropy =   128.8838

 16  C    Isotropic =    75.5743   Anisotropy =   138.7470

 17  C    Isotropic =    65.5094   Anisotropy =   146.9985

 18  N    Isotropic =    68.3584   Anisotropy =   136.5712

 19  C    Isotropic =    63.1365   Anisotropy =    80.0294

 20  N    Isotropic =   -13.6586   Anisotropy =   389.7751

 21  C    Isotropic =    64.7817   Anisotropy =   107.3425

 22  C    Isotropic =    78.6990   Anisotropy =    90.1951

 23  H    Isotropic =    30.2959   Anisotropy =     7.4333

 24  H    Isotropic =    30.8054   Anisotropy =     7.9888

 25  H    Isotropic =    31.0345   Anisotropy =     7.9844

 26  H    Isotropic =    30.3948   Anisotropy =     5.8398

 27  H    Isotropic =    31.0404   Anisotropy =     7.9549

 28  H    Isotropic =    30.7873   Anisotropy =     8.1671

 29  H    Isotropic =    30.6366   Anisotropy =     7.8389

 30  H    Isotropic =    30.6105   Anisotropy =     8.2497

 31  H    Isotropic =    31.4216   Anisotropy =     7.9685

 32  H    Isotropic =    24.7230   Anisotropy =     9.1351

 33  H    Isotropic =    24.5480   Anisotropy =     6.9466

 34  H    Isotropic =    25.0252   Anisotropy =    10.0002

 35  H    Isotropic =    24.7964   Anisotropy =    11.0299

 36  H    Isotropic =    24.8378   Anisotropy =     7.7500

 37  H    Isotropic =    24.4802   Anisotropy =     6.9603

 38  H    Isotropic =    24.7738   Anisotropy =     6.0282

 39  H    Isotropic =    25.1848   Anisotropy =     3.9211

 40  H    Isotropic =    25.2644   Anisotropy =     5.7797

  Exact polarizability: 339.440 -15.774 201.208   0.977   3.394 109.289
 Approx polarizability: 467.894 -20.395 340.025   3.912  -1.198 175.072

                     1                      2                      3
                     A                      A                      A
 Frequencies --    14.1720                31.8263                42.5689
 Red. masses --     3.4146                 4.4251                 4.8160
 Frc consts  --     0.0004                 0.0026                 0.0051
 IR Inten    --     0.5442                 0.0623                 0.6357

                     4                      5                      6
                     A                      A                      A
 Frequencies --    53.8777                67.1556                74.1956
 Red. masses --     5.7199                 5.6470                 4.2437
 Frc consts  --     0.0098                 0.0150                 0.0138
 IR Inten    --     1.5158                 1.2213                 1.6863

                     7                      8                      9
                     A                      A                      A
 Frequencies --   105.3668               146.9964               178.6491
 Red. masses --     5.7964                 4.5977                 5.1469
 Frc consts  --     0.0379                 0.0585                 0.0968
 IR Inten    --     1.3321                 0.0914                 0.9051

                    10                     11                     12
                     A                      A                      A
 Frequencies --   190.7765               201.2778               220.3553
 Red. masses --     4.5516                 1.3919                 1.7380
 Frc consts  --     0.0976                 0.0332                 0.0497
 IR Inten    --     0.5784                 0.8306                 0.8354

                    13                     14                     15
                     A                      A                      A
 Frequencies --   250.0889               264.6670               279.4807
 Red. masses --     1.7926                 1.1429                 1.5537
 Frc consts  --     0.0661                 0.0472                 0.0715
 IR Inten    --     0.0956                 0.0477                 0.3757

                    16                     17                     18
                     A                      A                      A
 Frequencies --   300.5545               313.8176               331.4393
 Red. masses --     3.7219                 5.0072                 4.0048
 Frc consts  --     0.1981                 0.2905                 0.2592
 IR Inten    --     3.6717                 0.4161                 4.5709

                    19                     20                     21
                     A                      A                      A
 Frequencies --   342.8948               355.6903               373.2593
 Red. masses --     4.6916                 3.3381                 2.4554
 Frc consts  --     0.3250                 0.2488                 0.2016
 IR Inten    --     0.3374                 9.9818                 0.0850

                    22                     23                     24
                     A                      A                      A
 Frequencies --   396.5828               442.2032               450.6728
 Red. masses --     4.1439                 3.4772                 3.8590
 Frc consts  --     0.3840                 0.4006                 0.4618
 IR Inten    --     1.0958                 1.7466                 1.5896

                    25                     26                     27
                     A                      A                      A
 Frequencies --   486.6463               495.6945               533.4554
 Red. masses --     3.0304                 3.4268                 6.0346
 Frc consts  --     0.4228                 0.4961                 1.0118
 IR Inten    --     7.0699                 4.4029                 2.1259

                    28                     29                     30
                     A                      A                      A
 Frequencies --   586.3531               614.0181               621.7779
 Red. masses --     4.1254                 4.9684                 5.3546
 Frc consts  --     0.8357                 1.1036                 1.2197
 IR Inten    --     7.4215                 5.5231                 3.8102

                    31                     32                     33
                     A                      A                      A
 Frequencies --   636.3617               655.2741               660.8502
 Red. masses --     4.6423                 5.9236                 2.8796
 Frc consts  --     1.1076                 1.4986                 0.7409
 IR Inten    --     1.2339                 0.9953                 1.7907

                    34                     35                     36
                     A                      A                      A
 Frequencies --   675.1861               726.9251               756.9307
 Red. masses --     3.8806                 1.2216                 5.3279
 Frc consts  --     1.0423                 0.3803                 1.7985
 IR Inten    --    17.3524                18.5361                 5.6816

                    37                     38                     39
                     A                      A                      A
 Frequencies --   761.3478               763.5023               787.6662
 Red. masses --     4.0884                 5.0338                 4.0590
 Frc consts  --     1.3963                 1.7289                 1.4837
 IR Inten    --     2.4009                 4.1573                 0.7043

                    40                     41                     42
                     A                      A                      A
 Frequencies --   798.4237               807.3501               822.0984
 Red. masses --     1.9485                 1.3673                 2.2910
 Frc consts  --     0.7318                 0.5251                 0.9123
 IR Inten    --     4.1632                24.7275                 1.6243

                    43                     44                     45
                     A                      A                      A
 Frequencies --   853.8277               856.5022               866.6765
 Red. masses --     1.4766                 1.5092                 1.5964
 Frc consts  --     0.6342                 0.6523                 0.7065
 IR Inten    --     8.9364                21.9193                 3.3381

                    46                     47                     48
                     A                      A                      A
 Frequencies --   892.5446               913.5384               915.6902
 Red. masses --     2.7209                 5.3839                 1.8752
 Frc consts  --     1.2771                 2.6473                 0.9264
 IR Inten    --     7.8744                17.6761                30.5059

                    49                     50                     51
                     A                      A                      A
 Frequencies --   934.6604               948.3628               955.2847
 Red. masses --     4.5438                 1.7677                 1.3480
 Frc consts  --     2.3387                 0.9367                 0.7248
 IR Inten    --    19.4668                 1.5197                 6.1030

                    52                     53                     54
                     A                      A                      A
 Frequencies --   956.4916               969.5630               981.2855
 Red. masses --     1.5566                 1.3247                 1.1982
 Frc consts  --     0.8391                 0.7337                 0.6798
 IR Inten    --     2.4199                 0.6270                 0.0097

                    55                     56                     57
                     A                      A                      A
 Frequencies --   985.5329              1017.0959              1058.5694
 Red. masses --     3.7093                 3.2671                 1.4774
 Frc consts  --     2.1227                 1.9913                 0.9754
 IR Inten    --     9.3221                21.5383                53.7193

                    58                     59                     60
                     A                      A                      A
 Frequencies --  1059.9294              1075.8528              1125.7473
 Red. masses --     1.4330                 1.7494                 1.5730
 Frc consts  --     0.9485                 1.1930                 1.1745
 IR Inten    --     7.9830                83.1557                51.7035

                    61                     62                     63
                     A                      A                      A
 Frequencies --  1139.1583              1151.7516              1167.5889
 Red. masses --     2.8920                 2.7629                 1.6281
 Frc consts  --     2.2111                 2.1594                 1.3077
 IR Inten    --   469.5737                18.1126               149.0102

                    64                     65                     66
                     A                      A                      A
 Frequencies --  1187.0830              1190.7059              1241.2249
 Red. masses --     1.3639                 1.5166                 3.9039
 Frc consts  --     1.1324                 1.2669                 3.5437
 IR Inten    --    33.6152               232.6478               175.3956

                    67                     68                     69
                     A                      A                      A
 Frequencies --  1241.7309              1263.6564              1268.9373
 Red. masses --     2.6681                 2.4752                 1.7708
 Frc consts  --     2.4239                 2.3287                 1.6800
 IR Inten    --     5.3250                21.0000                19.6037

                    70                     71                     72
                     A                      A                      A
 Frequencies --  1279.0111              1296.4485              1306.6827
 Red. masses --     1.4586                 1.8692                 3.2329
 Frc consts  --     1.4058                 1.8510                 3.2522
 IR Inten    --    35.1182                 9.0959                74.1433

                    73                     74                     75
                     A                      A                      A
 Frequencies --  1311.0986              1334.7813              1381.3737
 Red. masses --     3.7598                 2.3306                 2.1699
 Frc consts  --     3.8079                 2.4465                 2.4396
 IR Inten    --     8.8895                83.4788                 1.0819

                    76                     77                     78
                     A                      A                      A
 Frequencies --  1403.2120              1422.5988              1423.0736
 Red. masses --     4.6384                 1.2613                 5.2794
 Frc consts  --     5.3811                 1.5040                 6.2993
 IR Inten    --     8.7040                 3.4966                 1.1149

                    79                     80                     81
                     A                      A                      A
 Frequencies --  1430.6096              1433.8933              1459.2090
 Red. masses --     1.2643                 4.0271                 1.2226
 Frc consts  --     1.5246                 4.8784                 1.5337
 IR Inten    --     6.0466                29.4802                16.9538

                    82                     83                     84
                     A                      A                      A
 Frequencies --  1484.2398              1507.6998              1511.8761
 Red. masses --     4.9156                 1.0483                 2.4833
 Frc consts  --     6.3802                 1.4040                 3.3443
 IR Inten    --    14.5872                 0.0216                41.3187

                    85                     86                     87
                     A                      A                      A
 Frequencies --  1515.8168              1520.8481              1529.8248
 Red. masses --     1.0462                 1.0455                 1.0497
 Frc consts  --     1.4163                 1.4248                 1.4474
 IR Inten    --     0.1696                 0.0584                 7.0317

                    88                     89                     90
                     A                      A                      A
 Frequencies --  1532.3380              1532.8015              1550.4675
 Red. masses --     1.2082                 2.5433                 1.0701
 Frc consts  --     1.6714                 3.5207                 1.5156
 IR Inten    --    27.1804               153.6289                34.8554

                    91                     92                     93
                     A                      A                      A
 Frequencies --  1560.0040              1569.0565              1628.1881
 Red. masses --     3.9929                 3.8164                 7.4501
 Frc consts  --     5.7252                 5.5359                11.6365
 IR Inten    --     9.5147               121.1685                 9.5677

                    94                     95                     96
                     A                      A                      A
 Frequencies --  1666.9552              1689.4008              1832.3788
 Red. masses --     5.9605                 6.4971                12.6966
 Frc consts  --     9.7584                10.9254                25.1171
 IR Inten    --    18.0388               106.4756               188.5026

                    97                     98                     99
                     A                      A                      A
 Frequencies --  3051.2225              3053.1511              3061.9577
 Red. masses --     1.0356                 1.0359                 1.0364
 Frc consts  --     5.6804                 5.6895                 5.7251
 IR Inten    --    26.7886                10.6468                28.5075

                   100                    101                    102
                     A                      A                      A
 Frequencies --  3114.8525              3117.0169              3129.8437
 Red. masses --     1.1029                 1.1025                 1.1020
 Frc consts  --     6.3048                 6.3114                 6.3603
 IR Inten    --    12.5652                22.0175                40.5223

                   103                    104                    105
                     A                      A                      A
 Frequencies --  3138.7086              3140.1042              3143.9642
 Red. masses --     1.1028                 1.1021                 1.1011
 Frc consts  --     6.4012                 6.4027                 6.4126
 IR Inten    --    12.5590                11.9244                46.5601

                   106                    107                    108
                     A                      A                      A
 Frequencies --  3189.7889              3193.7079              3205.2552
 Red. masses --     1.0890                 1.0895                 1.0909
 Frc consts  --     6.5285                 6.5475                 6.6031
 IR Inten    --     0.9736                19.6808                 4.9197

                   109                    110                    111
                     A                      A                      A
 Frequencies --  3209.8949              3218.0807              3247.5135
 Red. masses --     1.0912                 1.0940                 1.0933
 Frc consts  --     6.6241                 6.6749                 6.7935
 IR Inten    --     5.2184                 7.2545                 3.0246

                   112                    113                    114
                     A                      A                      A
 Frequencies --  3263.3294              3273.6599              3300.4610
 Red. masses --     1.0926                 1.0958                 1.1024
 Frc consts  --     6.8554                 6.9188                 7.0753
 IR Inten    --     8.6628                 0.4991                 1.9213

 - Thermochemistry -
 -------------------
 Temperature   298.150 Kelvin.  Pressure   1.00000 Atm.
 Atom     1 has atomic number  8 and mass  15.99491

 Molecular mass:   294.13683 amu.
 Principal axes and moments of inertia in atomic units:
                           1         2         3
     Eigenvalues --  2310.74787********************
           X            0.99995   0.00903  -0.00301
           Y           -0.00901   0.99994   0.00661
           Z            0.00307  -0.00659   0.99997
 This molecule is an asymmetric top.
 Rotational symmetry number  1.
 Warning -- assumption of classical behavior for rotation
           may cause significant error
 Rotational temperatures (Kelvin)      0.03748     0.00500     0.00458
 Rotational constants (GHZ):           0.78102     0.10417     0.09552
 Zero-point vibrational energy     855352.8 (Joules/Mol)
                                  204.43423 (Kcal/Mol)
 Warning -- explicit consideration of  29 degrees of freedom as
           vibrations may cause significant error
 Vibrational temperatures:     20.39    45.79    61.25    77.52    96.62
          (Kelvin)            106.75   151.60   211.49   257.04   274.48
                              289.59   317.04   359.82   380.80   402.11
                              432.43   451.51   476.87   493.35   511.76
                              537.04   570.59   636.23   648.42   700.17
                              713.19   767.52   843.63   883.43   894.60
                              915.58   942.79   950.81   971.44  1045.88
                             1089.05  1095.41  1098.51  1133.27  1148.75
                             1161.60  1182.81  1228.47  1232.31  1246.95
                             1284.17  1314.38  1317.47  1344.77  1364.48
                             1374.44  1376.18  1394.98  1411.85  1417.96
                             1463.37  1523.04  1525.00  1547.91  1619.70
                             1638.99  1657.11  1679.90  1707.95  1713.16
                             1785.84  1786.57  1818.12  1825.72  1840.21
                             1865.30  1880.02  1886.38  1920.45  1987.49
                             2018.91  2046.80  2047.48  2058.33  2063.05
                             2099.47  2135.49  2169.24  2175.25  2180.92
                             2188.16  2201.07  2204.69  2205.36  2230.77
                             2244.50  2257.52  2342.60  2398.37  2430.67
                             2636.38  4390.02  4392.80  4405.47  4481.57
                             4484.69  4503.14  4515.90  4517.90  4523.46
                             4589.39  4595.03  4611.64  4618.32  4630.09
                             4672.44  4695.20  4710.06  4748.62

 Zero-point correction=                           0.325787 (Hartree/Particle)
 Thermal correction to Energy=                    0.345247
 Thermal correction to Enthalpy=                  0.346192
 Thermal correction to Gibbs Free Energy=         0.275905
 Sum of electronic and zero-point Energies=           -956.403637
 Sum of electronic and thermal Energies=              -956.384176
 Sum of electronic and thermal Enthalpies=            -956.383232
 Sum of electronic and thermal Free Energies=         -956.453518

                     E (Thermal)             CV                S
                      KCal/Mol        Cal/Mol-Kelvin    Cal/Mol-Kelvin
 Total                  216.646             75.808            147.930
 Electronic               0.000              0.000              0.000
 Translational            0.889              2.981             42.934
 Rotational               0.889              2.981             34.980
 Vibrational            214.869             69.846             70.017
 Vibration     1          0.593              1.986              7.318
 Vibration     2          0.594              1.983              5.712
 Vibration     3          0.595              1.980              5.136
 Vibration     4          0.596              1.976              4.670
 Vibration     5          0.598              1.970              4.235
 Vibration     6          0.599              1.966              4.039
 Vibration     7          0.605              1.945              3.353
 Vibration     8          0.617              1.906              2.711
 Vibration     9          0.629              1.869              2.342
 Vibration    10          0.634              1.853              2.220
 Vibration    11          0.638              1.838              2.121
 Vibration    12          0.647              1.810              1.956
 Vibration    13          0.663              1.763              1.730
 Vibration    14          0.671              1.738              1.631
 Vibration    15          0.680              1.712              1.537
 Vibration    16          0.693              1.673              1.414
 Vibration    17          0.702              1.647              1.342
 Vibration    18          0.714              1.613              1.253
 Vibration    19          0.722              1.590              1.199
 Vibration    20          0.731              1.564              1.141
 Vibration    21          0.745              1.527              1.066
 Vibration    22          0.763              1.477              0.975
 Vibration    23          0.802              1.378              0.820
 Vibration    24          0.809              1.359              0.794
 Vibration    25          0.843              1.280              0.692
 Vibration    26          0.851              1.260              0.669
 Vibration    27          0.888              1.176              0.580
 Vibration    28          0.943              1.061              0.474
 Vibration    29          0.973              1.002              0.426

 Optimization completed.
    -- Stationary point found.
 Normal termination of Gaussian 09 at Wed Sep 29 16:33:55 2021.
 Gaussian 09:  AM64L-G09RevA.02 11-Jun-2009

 ----------------------------------------------------------------------
 #p TD(NStates=10, Root=1) b3lyp/6-31G* volume pop=NPA density=current
 Geom=AllCheck Guess=Read
 ----------------------------------------------------------------------

 O=C(C(C)(C)C)Oc1ccc2c(c1)cc(cc2)n1cncc1_conf_0
 ----------------------------------------------
 Redundant internal coordinates taken from checkpoint file:
 C18H18N2O2_86fa_conf_0.chk
 Charge =  0 Multiplicity = 1

                         Standard orientation:
 ---------------------------------------------------------------------
 Center     Atomic      Atomic             Coordinates (Angstroms)
 Number     Number       Type             X           Y           Z
 ---------------------------------------------------------------------
      1          8           0       -3.799202    0.766216   -1.299730
      2          6           0       -3.823392    0.000773   -0.367336
      3          6           0       -5.017879   -0.849311    0.074565
      4          6           0       -4.632174   -2.343643   -0.012656
      5          6           0       -5.383405   -0.487798    1.531868
      6          6           0       -6.201018   -0.551762   -0.860045
      7          8           0       -2.740609   -0.224543    0.451735
      8          6           0       -1.542570    0.456435    0.241507
      9          6           0       -1.503099    1.868701    0.147139
     10          6           0       -0.285973    2.497587    0.029352
     11          6           0        0.927696    1.760710    0.005870
     12          6           0        0.871604    0.332827    0.105955
     13          6           0       -0.394452   -0.298011    0.224420
     14          6           0        2.080367   -0.409191    0.098195
     15          6           0        3.296839    0.230401   -0.026056
     16          6           0        3.355756    1.644994   -0.137763
     17          6           0        2.197387    2.384449   -0.112287
     18          7           0        4.503696   -0.515906   -0.049018
     19          6           0        5.699979   -0.170514    0.539818
     20          7           0        6.625377   -1.084923    0.367596
     21          6           0        6.016045   -2.077426   -0.371163
     22          6           0        4.710532   -1.756858   -0.634732
     23          1           0       -3.796004   -2.579886    0.651234
     24          1           0       -4.351006   -2.621482   -1.035022
     25          1           0       -5.489169   -2.961293    0.279063
     26          1           0       -4.555120   -0.694391    2.215233
     27          1           0       -6.249330   -1.079468    1.850067
     28          1           0       -5.650244    0.571516    1.623462
     29          1           0       -5.956440   -0.791285   -1.899171
     30          1           0       -6.480924    0.505395   -0.821912
     31          1           0       -7.068164   -1.150705   -0.560479
     32          1           0       -2.425497    2.435485    0.161716
     33          1           0       -0.242830    3.581142   -0.045472
     34          1           0       -0.462278   -1.378477    0.307710
     35          1           0        2.042464   -1.488464    0.211934
     36          1           0        4.317961    2.129361   -0.268381
     37          1           0        2.244371    3.466847   -0.200810
     38          1           0        5.810607    0.744902    1.104822
     39          1           0        6.556950   -2.963099   -0.676428
     40          1           0        3.936169   -2.247860   -1.203556
 ---------------------------------------------------------------------

 SCF Done:  E(RB3LYP) =  -956.729423548     A.U. after    1 cycles

 Excitation energies and oscillator strengths:

 Excited State   1:      Singlet-A      4.0560 eV  305.68 nm  f=0.0467  <S**2>=0.000
      77 -> 79         0.32258
      77 -> 80         0.12178
      78 -> 79         0.58567
      78 -> 80        -0.15483
 This state for optimization and/or second-order correction.
 Total Energy, E(TD-HF/TD-KS) =  -956.580367913
 Copying the excited state density for this state as the 1-particle RhoCI density.

 Excited State   2:      Singlet-A      4.2831 eV  289.47 nm  f=0.0158  <S**2>=0.000
      76 -> 79        -0.34809
      77 -> 79         0.35621
      77 -> 80         0.10564
      78 -> 79        -0.34726
      78 -> 80        -0.31983

 Excited State   3:      Singlet-A      4.3296 eV  286.36 nm  f=0.0085  <S**2>=0.000
      76 -> 79         0.40181
      77 -> 79         0.49281
      77 -> 80        -0.14804
      78 -> 79        -0.11442
      78 -> 80         0.21249

 Excited State   4:      Singlet-A      4.8555 eV  255.35 nm  f=0.1202  <S**2>=0.000
      76 -> 79        -0.15755
      77 -> 80         0.49449
      78 -> 80         0.45722

 Excited State   5:      Singlet-A      5.1450 eV  240.98 nm  f=0.4434  <S**2>=0.000
      73 -> 79         0.10024
      74 -> 79         0.17038
      74 -> 81        -0.10422
      75 -> 79         0.43427
      76 -> 79         0.27533
      77 -> 80         0.29447
      78 -> 80        -0.19668
      78 -> 81        -0.12686

 Excited State   6:      Singlet-A      5.1816 eV  239.28 nm  f=0.3185  <S**2>=0.000
      73 -> 79        -0.12009
      74 -> 79        -0.14253
      75 -> 79         0.53635
      76 -> 79        -0.19627
      77 -> 80        -0.22676
      78 -> 80         0.16577
      78 -> 81         0.12801

 Excited State   7:      Singlet-A      5.3754 eV  230.65 nm  f=0.2803  <S**2>=0.000
      73 -> 79        -0.25572
      74 -> 79         0.45791
      74 -> 80        -0.20460
      74 -> 81        -0.25620
      76 -> 79        -0.16541
      77 -> 80        -0.15510
      78 -> 80         0.12471
      78 -> 81        -0.15319

 Excited State   8:      Singlet-A      5.4563 eV  227.23 nm  f=0.0101  <S**2>=0.000
      73 -> 79         0.19997
      74 -> 79         0.35975
      76 -> 80        -0.26487
      77 -> 81        -0.14755
      78 -> 81         0.43821
      78 -> 82         0.12594

 Excited State   9:      Singlet-A      5.4952 eV  225.62 nm  f=0.1299  <S**2>=0.000
      72 -> 79         0.11569
      74 -> 79         0.12145
      76 -> 80         0.58083
      77 -> 81        -0.15482
      78 -> 81         0.22029

 Excited State  10:      Singlet-A      5.6664 eV  218.81 nm  f=0.2146  <S**2>=0.000
      72 -> 79         0.14758
      73 -> 79         0.37821
      76 -> 81         0.15812
      77 -> 80        -0.11668
      77 -> 81        -0.10192
      77 -> 82        -0.18821
      78 -> 81        -0.30431
      78 -> 82         0.33589

 The electronic state is 1-A.
 Alpha  occ. eigenvalues --  -19.20831 -19.14877 -14.40091 -14.31101 -10.32443
 Alpha  occ. eigenvalues --  -10.26410 -10.25091 -10.23703 -10.22085 -10.21696
 Alpha  occ. eigenvalues --  -10.21306 -10.21137 -10.20911 -10.20837 -10.20723
 Alpha  occ. eigenvalues --  -10.20656 -10.20477 -10.20344 -10.19710 -10.18861
 Alpha  occ. eigenvalues --  -10.18849 -10.18008  -1.11526  -1.03224  -1.01965
 Alpha  occ. eigenvalues --   -0.90372  -0.87859  -0.83682  -0.82249  -0.78895
 Alpha  occ. eigenvalues --   -0.76173  -0.74184  -0.73625  -0.69815  -0.69380
 Alpha  occ. eigenvalues --   -0.67293  -0.65450  -0.62249  -0.61391  -0.58932
 Alpha  occ. eigenvalues --   -0.58725  -0.56542  -0.55127  -0.53050  -0.50628
 Alpha  occ. eigenvalues --   -0.49325  -0.48644  -0.47285  -0.46525  -0.45993
 Alpha  occ. eigenvalues --   -0.44858  -0.44580  -0.44294  -0.43976  -0.43200
 Alpha  occ. eigenvalues --   -0.42989  -0.42603  -0.41923  -0.40585  -0.40151
 Alpha  occ. eigenvalues --   -0.39775  -0.39341  -0.38716  -0.37460  -0.37408
 Alpha  occ. eigenvalues --   -0.36323  -0.35586  -0.34645  -0.34075  -0.33859
 Alpha  occ. eigenvalues --   -0.32307  -0.29989  -0.28505  -0.27769  -0.26600
 Alpha  occ. eigenvalues --   -0.24344  -0.23020  -0.22179
 Alpha virt. eigenvalues --   -0.05411  -0.02839   0.00105   0.01521   0.03453
 Alpha virt. eigenvalues --    0.06734   0.07710   0.08547   0.09195   0.10676
 Alpha virt. eigenvalues --    0.10803   0.12153   0.12822   0.13500   0.14297

 Mulliken atomic charges:
              1
     1  O   -0.469296
     2  C    0.630274
     3  C   -0.004837
     4  C   -0.449780
     5  C   -0.450344
     6  C   -0.433060
     7  O   -0.542056
     8  C    0.335894
     9  C   -0.134978
    10  C   -0.248112
    11  C    0.175156
    12  C    0.139164
    13  C   -0.279352
    14  C   -0.278399
    15  C    0.279459
    16  C   -0.187710
    17  C   -0.247222
    18  N   -0.477827
    19  C    0.271970
    20  N   -0.417289
    21  C    0.014412
    22  C    0.082291
    23  H    0.162101
    24  H    0.148644
    25  H    0.142242
    26  H    0.165868
    27  H    0.141959
    28  H    0.148278
    29  H    0.154523
    30  H    0.153527
    31  H    0.132027
    32  H    0.134697
    33  H    0.114378
    34  H    0.108402
    35  H    0.109524
    36  H    0.107343
    37  H    0.115322
    38  H    0.225082
    39  H    0.200966
    40  H    0.226758
 Sum of Mulliken atomic charges =   0.00000

 Dipole moment (field-independent basis, Debye):
    X=              6.1000    Y=             -4.4530    Z=              0.3335  Tot=              7.5598
 Quadrupole moment (field-independent basis, Debye-Ang):
   XX=           -102.6093   YY=           -115.7853   ZZ=           -132.7509
   XY=             -6.8630   XZ=            -11.3749   YZ=              6.7680

 Summary of Natural Population Analysis:

                                       Natural Population
                Natural  -----------------------------------------------
    Atom  No    Charge         Core      Valence    Rydberg      Total
 -----------------------------------------------------------------------
      O    1   -0.58373      1.99977     6.56408    0.01989     8.58373
      C    2    0.83843      1.99928     3.11320    0.04909     5.16157
      C    3   -0.15070      1.99905     4.13926    0.01239     6.15070
      C    4   -0.66775      1.99938     4.65868    0.00968     6.66775
      C    5   -0.66858      1.99938     4.65950    0.00970     6.66858
      C    6   -0.66896      1.99940     4.65852    0.01105     6.66896
      O    7   -0.55077      1.99970     6.54005    0.01102     8.55077
      C    8    0.26944      1.99872     3.70920    0.02264     5.73056
      C    9   -0.23923      1.99901     4.22633    0.01389     6.23923
      C   10   -0.27119      1.99907     4.25739    0.01473     6.27119
      C   11   -0.02735      1.99902     4.01391    0.01441     6.02735
      C   12   -0.03261      1.99903     4.01836    0.01522     6.03261
      C   13   -0.30246      1.99897     4.28888    0.01461     6.30246
      C   14   -0.28290      1.99901     4.26953    0.01436     6.28290
      C   15    0.09068      1.99894     3.89086    0.01953     5.90932
      C   16   -0.29815      1.99906     4.28497    0.01413     6.29815
      C   17   -0.27048      1.99907     4.25539    0.01602     6.27048
      N   18   -0.34131      1.99932     5.33002    0.01197     7.34131
      C   19    0.31233      1.99937     3.66217    0.02613     5.68767
      N   20   -0.50299      1.99951     5.48025    0.02322     7.50299
      C   21    0.04830      1.99920     3.93135    0.02115     5.95170
      C   22    0.01944      1.99916     3.96578    0.01563     5.98056
      H   23    0.24324      0.00000     0.75557    0.00118     0.75676
      H   24    0.23454      0.00000     0.76453    0.00093     0.76546
      H   25    0.23067      0.00000     0.76824    0.00109     0.76933
      H   26    0.24552      0.00000     0.75339    0.00110     0.75448
      H   27    0.23061      0.00000     0.76826    0.00113     0.76939
      H   28    0.23451      0.00000     0.76456    0.00093     0.76549
      H   29    0.24207      0.00000     0.75684    0.00108     0.75793
      H   30    0.24153      0.00000     0.75739    0.00107     0.75847
      H   31    0.22660      0.00000     0.77244    0.00096     0.77340
      H   32    0.24524      0.00000     0.75379    0.00097     0.75476
      H   33    0.22814      0.00000     0.77087    0.00099     0.77186
      H   34    0.23030      0.00000     0.76830    0.00139     0.76970
      H   35    0.22131      0.00000     0.77760    0.00109     0.77869
      H   36    0.22248      0.00000     0.77680    0.00072     0.77752
      H   37    0.23029      0.00000     0.76873    0.00098     0.76971
      H   38    0.25537      0.00000     0.74411    0.00052     0.74463
      H   39    0.25103      0.00000     0.74874    0.00023     0.74897
      H   40    0.26707      0.00000     0.73257    0.00037     0.73293
 =======================================================================
   * Total *   -0.00000     43.98241   111.62040    0.39719   156.00000

 Normal termination of Gaussian 09 at Thu Sep 30 00:44:04 2021.
