 Gaussian 09, Revision A.02,

 -----------------------------------
 #p opt b3lyp/6-31G* scf=(xqc,tight)
 -----------------------------------

 ----------------------------------------------------
 Fc1ccc(cc1)b1ob(ob(o1)c1ccc(cc1)F)c1ccc(cc1)F_conf_0
 ----------------------------------------------------
 Symbolic Z-matrix:
 Charge =  0 Multiplicity = 1

 SCF Done:  E(RB3LYP) =  -1293.23378544     A.U. after   14 cycles
 SCF Done:  E(RB3LYP) =  -1293.24184612     A.U. after   15 cycles
 SCF Done:  E(RB3LYP) =  -1293.24215402     A.U. after   14 cycles
 SCF Done:  E(RB3LYP) =  -1293.24211833     A.U. after   15 cycles
 SCF Done:  E(RB3LYP) =  -1293.24216491     A.U. after   14 cycles
 SCF Done:  E(RB3LYP) =  -1293.24213332     A.U. after   14 cycles
 Optimization completed.
    -- Stationary point found.
 Normal termination of Gaussian 09 at Mon Oct  4 03:42:30 2021.

 ----------------------------------------------------------------------
 #p freq b3lyp/6-31G* volume NMR pop=NPA density=current Geom=AllCheck
 Guess=Read
 ----------------------------------------------------------------------

 Fc1ccc(cc1)b1ob(ob(o1)c1ccc(cc1)F)c1ccc(cc1)F_conf_0
 ----------------------------------------------------
 Redundant internal coordinates taken from checkpoint file:
 C18H12B3F3O3_43ff_conf_0.chk
 Charge =  0 Multiplicity = 1

 SCF Done:  E(RB3LYP) =  -1293.24213332     A.U. after    1 cycles

  1  F    Isotropic =   287.1827   Anisotropy =   121.9040

  2  C    Isotropic =    29.5360   Anisotropy =   101.0592

  3  C    Isotropic =    80.2759   Anisotropy =   136.5067

  4  C    Isotropic =    56.9910   Anisotropy =   179.3107

  5  C    Isotropic =    71.4405   Anisotropy =   184.2414

  6  C    Isotropic =    56.9878   Anisotropy =   179.2826

  7  C    Isotropic =    80.3360   Anisotropy =   136.6133

  8  B    Isotropic =    83.0935   Anisotropy =    13.3711

  9  O    Isotropic =   170.2418   Anisotropy =   274.8131

 10  B    Isotropic =    83.1413   Anisotropy =    13.5125

 11  O    Isotropic =   170.2709   Anisotropy =   274.9661

 12  B    Isotropic =    83.1492   Anisotropy =    13.5061

 13  O    Isotropic =   170.2774   Anisotropy =   274.8506

 14  C    Isotropic =    71.4508   Anisotropy =   184.3393

 15  C    Isotropic =    57.0290   Anisotropy =   179.3766

 16  C    Isotropic =    80.2990   Anisotropy =   136.6485

 17  C    Isotropic =    29.4931   Anisotropy =   101.0626

 18  C    Isotropic =    80.3170   Anisotropy =   136.6280

 19  C    Isotropic =    56.9724   Anisotropy =   179.3237

 20  F    Isotropic =   287.2691   Anisotropy =   122.4532

 21  C    Isotropic =    71.4668   Anisotropy =   184.2529

 22  C    Isotropic =    56.9879   Anisotropy =   179.3850

 23  C    Isotropic =    80.2759   Anisotropy =   136.5208

 24  C    Isotropic =    29.4937   Anisotropy =   100.9729

 25  C    Isotropic =    80.2879   Anisotropy =   136.6180

 26  C    Isotropic =    57.0521   Anisotropy =   179.4455

 27  F    Isotropic =   287.0399   Anisotropy =   121.4252

 28  H    Isotropic =    25.2716   Anisotropy =     5.2783

 29  H    Isotropic =    23.8789   Anisotropy =     8.9964

 30  H    Isotropic =    23.8769   Anisotropy =     8.9927

 31  H    Isotropic =    25.2674   Anisotropy =     5.2817

 32  H    Isotropic =    23.8817   Anisotropy =     8.9828

 33  H    Isotropic =    25.2771   Anisotropy =     5.2800

 34  H    Isotropic =    25.2920   Anisotropy =     5.2582

 35  H    Isotropic =    23.8805   Anisotropy =     8.9785

 36  H    Isotropic =    23.8710   Anisotropy =     9.0107

 37  H    Isotropic =    25.2832   Anisotropy =     5.2616

 38  H    Isotropic =    25.2682   Anisotropy =     5.2819

 39  H    Isotropic =    23.8689   Anisotropy =     9.0098

  Exact polarizability: 302.431  -0.001 302.431   0.004   0.007  80.857
 Approx polarizability: 452.576   0.000 452.562   0.007   0.013 130.384

                     1                      2                      3
                     A                      A                      A
 Frequencies --    25.3195                28.1406                31.2993
 Red. masses --    11.3294                 4.1155                 4.2413
 Frc consts  --     0.0043                 0.0019                 0.0024
 IR Inten    --     0.0616                 0.0008                 0.0027

                     4                      5                      6
                     A                      A                      A
 Frequencies --    37.1538                40.1233                40.5792
 Red. masses --     3.6891                 8.9026                 8.8996
 Frc consts  --     0.0030                 0.0084                 0.0086
 IR Inten    --     0.0000                 0.0398                 0.0391

                     7                      8                      9
                     A                      A                      A
 Frequencies --    73.6706                74.3752               122.7940
 Red. masses --     8.7407                 8.6841                 6.9938
 Frc consts  --     0.0280                 0.0283                 0.0621
 IR Inten    --     0.0000                 0.0000                 0.0000

                    10                     11                     12
                     A                      A                      A
 Frequencies --   140.2253               140.6001               141.7605
 Red. masses --    12.2833                12.3322                10.7597
 Frc consts  --     0.1423                 0.1436                 0.1274
 IR Inten    --     0.0254                 0.0179                 0.8154

                    13                     14                     15
                     A                      A                      A
 Frequencies --   190.6226               221.4416               221.6160
 Red. masses --     9.0018                 7.6598                 7.6622
 Frc consts  --     0.1927                 0.2213                 0.2217
 IR Inten    --     0.0000                 0.2150                 0.2129

                    16                     17                     18
                     A                      A                      A
 Frequencies --   290.6385               290.8203               314.0012
 Red. masses --     7.7890                 7.7898                 7.6978
 Frc consts  --     0.3877                 0.3882                 0.4472
 IR Inten    --     0.0001                 0.0001                 1.4018

                    19                     20                     21
                     A                      A                      A
 Frequencies --   335.7706               336.6202               400.0395
 Red. masses --    11.6619                11.6689                 7.4034
 Frc consts  --     0.7746                 0.7790                 0.6981
 IR Inten    --     1.2588                 1.2371                 0.0006

                    22                     23                     24
                     A                      A                      A
 Frequencies --   422.8675               423.5891               424.1284
 Red. masses --     3.0530                 3.0625                 3.0683
 Frc consts  --     0.3216                 0.3238                 0.3252
 IR Inten    --     0.0001                 0.0000                 0.0002

                    25                     26                     27
                     A                      A                      A
 Frequencies --   429.6349               430.5466               512.0146
 Red. masses --     5.2808                 5.2925                 3.2082
 Frc consts  --     0.5743                 0.5780                 0.4955
 IR Inten    --     2.3721                 2.4118                 0.0040

                    28                     29                     30
                     A                      A                      A
 Frequencies --   512.6021               522.8920               524.1833
 Red. masses --     3.2188                 2.9159                 7.3641
 Frc consts  --     0.4983                 0.4697                 1.1922
 IR Inten    --     0.0173                10.1002                 0.0167

                    31                     32                     33
                     A                      A                      A
 Frequencies --   533.5467               533.6361               584.8575
 Red. masses --    10.6763                10.6712                 8.1970
 Frc consts  --     1.7907                 1.7904                 1.6520
 IR Inten    --    63.3538                63.2773                 0.0002

                    34                     35                     36
                     A                      A                      A
 Frequencies --   639.2281               639.3427               645.9689
 Red. masses --     5.0293                 5.0299                 7.2557
 Frc consts  --     1.2108                 1.2114                 1.7838
 IR Inten    --     0.0002                 0.0000                 1.3935

                    37                     38                     39
                     A                      A                      A
 Frequencies --   646.1795               646.5401               696.6357
 Red. masses --     7.2535                 7.2718                 5.0695
 Frc consts  --     1.7845                 1.7910                 1.4495
 IR Inten    --     1.4532                 0.0754                46.3512

                    40                     41                     42
                     A                      A                      A
 Frequencies --   727.5411               727.6000               737.2100
 Red. masses --     7.9723                 7.9787                 5.0807
 Frc consts  --     2.4863                 2.4887                 1.6269
 IR Inten    --     0.1952                 0.1973                 0.0047

                    43                     44                     45
                     A                      A                      A
 Frequencies --   737.4326               755.2222               806.8052
 Red. masses --     5.0953                 6.0299                15.6017
 Frc consts  --     1.6325                 2.0263                 5.9836
 IR Inten    --     0.0080               103.2348                 0.0003

                    46                     47                     48
                     A                      A                      A
 Frequencies --   837.7281               840.1685               841.0202
 Red. masses --     6.7840                 1.2419                 1.2414
 Frc consts  --     2.8050                 0.5165                 0.5173
 IR Inten    --     0.0010                 0.0061                 0.0058

                    49                     50                     51
                     A                      A                      A
 Frequencies --   841.7092               849.6322               849.7100
 Red. masses --     1.2417                 6.9291                 6.9329
 Frc consts  --     0.5183                 2.9471                 2.9492
 IR Inten    --     0.0117                25.0221                25.0806

                    52                     53                     54
                     A                      A                      A
 Frequencies --   850.4568               850.8640               852.5338
 Red. masses --     1.5833                 1.5831                 1.6058
 Frc consts  --     0.6747                 0.6753                 0.6876
 IR Inten    --     0.7219                 3.7181                99.2400

                    55                     56                     57
                     A                      A                      A
 Frequencies --   973.7500               974.2611               975.9955
 Red. masses --     1.2768                 1.2762                 1.2735
 Frc consts  --     0.7133                 0.7137                 0.7147
 IR Inten    --     0.0001                 0.0008                 0.0001

                    58                     59                     60
                     A                      A                      A
 Frequencies --   981.1628               982.5459               983.4632
 Red. masses --     1.3415                 1.3383                 1.3377
 Frc consts  --     0.7609                 0.7612                 0.7623
 IR Inten    --     0.0006                 0.0005                 0.0013

                    61                     62                     63
                     A                      A                      A
 Frequencies --  1024.3007              1035.6703              1035.9559
 Red. masses --     7.5447                 2.8262                 2.8371
 Frc consts  --     4.6639                 1.7861                 1.7939
 IR Inten    --     0.0001                15.3749                15.6193

                    64                     65                     66
                     A                      A                      A
 Frequencies --  1044.7297              1099.1288              1099.2970
 Red. masses --     2.2430                 3.6777                 3.6632
 Frc consts  --     1.4424                 2.6177                 2.6082
 IR Inten    --     0.0129                13.6174                13.7265

                    67                     68                     69
                     A                      A                      A
 Frequencies --  1124.9838              1128.5152              1128.8493
 Red. masses --     1.3266                 1.4600                 1.4507
 Frc consts  --     0.9892                 1.0955                 1.0892
 IR Inten    --     0.2814                28.9934                27.7769

                    70                     71                     72
                     A                      A                      A
 Frequencies --  1183.0895              1191.0990              1191.6611
 Red. masses --    11.3259                 1.1810                 1.1807
 Frc consts  --     9.3403                 0.9871                 0.9879
 IR Inten    --     0.0607               153.6376               152.1565

                    73                     74                     75
                     A                      A                      A
 Frequencies --  1196.1139              1285.5654              1285.8776
 Red. masses --     1.1761                 3.7201                 3.7321
 Frc consts  --     0.9914                 3.6223                 3.6358
 IR Inten    --     1.8471               238.0925               236.2148

                    76                     77                     78
                     A                      A                      A
 Frequencies --  1287.5604              1301.7703              1301.9210
 Red. masses --     3.7882                 6.4657                 6.3825
 Frc consts  --     3.7001                 6.4556                 6.3740
 IR Inten    --     7.0660                43.1494                43.5239

                    79                     80                     81
                     A                      A                      A
 Frequencies --  1330.0093              1332.5624              1333.3024
 Red. masses --     1.3302                 1.3160                 1.3193
 Frc consts  --     1.3864                 1.3769                 1.3818
 IR Inten    --     0.0614                 2.9519                 4.2515

                    82                     83                     84
                     A                      A                      A
 Frequencies --  1345.0963              1351.1462              1351.2607
 Red. masses --     8.1326                 8.2062                 8.3891
 Frc consts  --     8.6694                 8.8267                 9.0249
 IR Inten    --     0.2311               489.7929               497.9036

                    85                     86                     87
                     A                      A                      A
 Frequencies --  1373.9997              1386.5958              1386.8996
 Red. masses --     5.4158                 8.9444                 8.9295
 Frc consts  --     6.0240                10.1321                10.1197
 IR Inten    --     0.3015              1688.2667              1691.7090

                    88                     89                     90
                     A                      A                      A
 Frequencies --  1442.6953              1447.1138              1447.2907
 Red. masses --     3.0919                 3.2763                 3.2646
 Frc consts  --     3.7916                 4.0424                 4.0290
 IR Inten    --     0.1246               124.3250               124.9681

                    91                     92                     93
                     A                      A                      A
 Frequencies --  1562.5414              1562.9842              1565.8902
 Red. masses --     2.7720                 2.7671                 2.8502
 Frc consts  --     3.9875                 3.9827                 4.1176
 IR Inten    --     8.2829                 8.3366                 0.1234

                    94                     95                     96
                     A                      A                      A
 Frequencies --  1632.6498              1634.9428              1635.2752
 Red. masses --     6.9701                 6.9213                 6.8980
 Frc consts  --    10.9466                10.9005                10.8681
 IR Inten    --     0.3048                45.6383                44.9346

                    97                     98                     99
                     A                      A                      A
 Frequencies --  1661.2352              1661.3821              1663.8071
 Red. masses --     5.8141                 5.8036                 5.8848
 Frc consts  --     9.4535                 9.4382                 9.5982
 IR Inten    --   267.7367               267.4745                 0.4158

                   100                    101                    102
                     A                      A                      A
 Frequencies --  3204.0035              3204.0476              3204.3799
 Red. masses --     1.0882                 1.0882                 1.0882
 Frc consts  --     6.5821                 6.5823                 6.5833
 IR Inten    --     4.1788                 8.0826                 3.9651

                   103                    104                    105
                     A                      A                      A
 Frequencies --  3204.5692              3204.7597              3204.8979
 Red. masses --     1.0881                 1.0881                 1.0881
 Frc consts  --     6.5837                 6.5844                 6.5851
 IR Inten    --     4.2656                 5.9309                 9.2273

                   106                    107                    108
                     A                      A                      A
 Frequencies --  3223.7367              3223.8738              3224.1125
 Red. masses --     1.0942                 1.0942                 1.0942
 Frc consts  --     6.7001                 6.7005                 6.7012
 IR Inten    --     6.0912                10.4405                 8.9111

                   109                    110                    111
                     A                      A                      A
 Frequencies --  3224.6595              3224.7443              3224.9353
 Red. masses --     1.0947                 1.0947                 1.0947
 Frc consts  --     6.7066                 6.7071                 6.7081
 IR Inten    --     9.7902                 3.6404                 3.8560

 - Thermochemistry -
 -------------------
 Temperature   298.150 Kelvin.  Pressure   1.00000 Atm.
 Atom     1 has atomic number  9 and mass  18.99840

 Molecular mass:   366.10177 amu.
 Principal axes and moments of inertia in atomic units:
                           1         2         3
     Eigenvalues --  ******************************
           X            1.00000  -0.00018   0.00000
           Y            0.00018   1.00000   0.00000
           Z           -0.00000  -0.00000   1.00000
 This molecule is an asymmetric top.
 Rotational symmetry number  1.
 Warning -- assumption of classical behavior for rotation
           may cause significant error
 Rotational temperatures (Kelvin)      0.00619     0.00619     0.00310
 Rotational constants (GHZ):           0.12900     0.12898     0.06450
 Zero-point vibrational energy     728946.3 (Joules/Mol)
                                  174.22235 (Kcal/Mol)
 Warning -- explicit consideration of  33 degrees of freedom as
           vibrations may cause significant error
 Vibrational temperatures:     36.43    40.49    45.03    53.46    57.73
          (Kelvin)             58.38   106.00   107.01   176.67   201.75
                              202.29   203.96   274.26   318.60   318.86
                              418.16   418.42   451.78   483.10   484.32
                              575.57   608.41   609.45   610.23   618.15
                              619.46   736.67   737.52   752.32   754.18
                              767.65   767.78   841.48   919.71   919.87
                              929.40   929.71   930.23  1002.30  1046.77
                             1046.85  1060.68  1061.00  1086.59  1160.81
                             1205.30  1208.81  1210.04  1211.03  1222.43
                             1222.54  1223.62  1224.20  1226.60  1401.01
                             1401.74  1404.24  1411.67  1413.66  1414.98
                             1473.74  1490.10  1490.51  1503.13  1581.40
                             1581.64  1618.60  1623.68  1624.16  1702.20
                             1713.72  1714.53  1720.94  1849.64  1850.09
                             1852.51  1872.95  1873.17  1913.58  1917.26
                             1918.32  1935.29  1944.00  1944.16  1976.88
                             1995.00  1995.44  2075.71  2082.07  2082.33
                             2248.15  2248.78  2252.96  2349.02  2352.32
                             2352.79  2390.14  2390.36  2393.84  4609.84
                             4609.90  4610.38  4610.65  4610.93  4611.13
                             4638.23  4638.43  4638.77  4639.56  4639.68
                             4639.96

 Zero-point correction=                           0.277641 (Hartree/Particle)
 Thermal correction to Energy=                    0.299437
 Thermal correction to Enthalpy=                  0.300381
 Thermal correction to Gibbs Free Energy=         0.222827
 Sum of electronic and zero-point Energies=          -1292.964492
 Sum of electronic and thermal Energies=             -1292.942696
 Sum of electronic and thermal Enthalpies=           -1292.941752
 Sum of electronic and thermal Free Energies=        -1293.019306

                     E (Thermal)             CV                S
                      KCal/Mol        Cal/Mol-Kelvin    Cal/Mol-Kelvin
 Total                  187.900             83.677            163.226
 Electronic               0.000              0.000              0.000
 Translational            0.889              2.981             43.586
 Rotational               0.889              2.981             36.947
 Vibrational            186.122             77.716             82.693
 Vibration     1          0.593              1.985              6.166
 Vibration     2          0.593              1.984              5.956
 Vibration     3          0.594              1.983              5.745
 Vibration     4          0.594              1.982              5.405
 Vibration     5          0.594              1.981              5.253
 Vibration     6          0.594              1.981              5.231
 Vibration     7          0.599              1.966              4.053
 Vibration     8          0.599              1.966              4.034
 Vibration     9          0.610              1.930              3.056
 Vibration    10          0.615              1.913              2.801
 Vibration    11          0.615              1.913              2.796
 Vibration    12          0.615              1.911              2.780
 Vibration    13          0.634              1.853              2.222
 Vibration    14          0.648              1.808              1.947
 Vibration    15          0.648              1.808              1.946
 Vibration    16          0.687              1.691              1.470
 Vibration    17          0.687              1.691              1.469
 Vibration    18          0.702              1.647              1.341
 Vibration    19          0.717              1.604              1.232
 Vibration    20          0.717              1.602              1.228
 Vibration    21          0.766              1.470              0.963
 Vibration    22          0.785              1.421              0.882
 Vibration    23          0.786              1.419              0.880
 Vibration    24          0.786              1.418              0.878
 Vibration    25          0.791              1.406              0.860
 Vibration    26          0.792              1.404              0.857
 Vibration    27          0.867              1.223              0.629
 Vibration    28          0.868              1.222              0.627
 Vibration    29          0.878              1.199              0.603
 Vibration    30          0.879              1.196              0.600
 Vibration    31          0.889              1.176              0.579
 Vibration    32          0.889              1.176              0.579
 Vibration    33          0.942              1.064              0.476

 Normal termination of Gaussian 09 at Mon Oct  4 09:21:49 2021.
 Gaussian 09:  AM64L-G09RevA.02 11-Jun-2009

 ----------------------------------------------------------------------
 #p TD(NStates=10, Root=1) b3lyp/6-31G* volume pop=NPA density=current
 Geom=AllCheck Guess=Read
 ----------------------------------------------------------------------

 Fc1ccc(cc1)b1ob(ob(o1)c1ccc(cc1)F)c1ccc(cc1)F_conf_0
 ----------------------------------------------------
 Redundant internal coordinates taken from checkpoint file:
 C18H12B3F3O3_43ff_conf_0.chk
 Charge =  0 Multiplicity = 1

                         Standard orientation:
 ---------------------------------------------------------------------
 Center     Atomic      Atomic             Coordinates (Angstroms)
 Number     Number       Type             X           Y           Z
 ---------------------------------------------------------------------
      1          9           0        3.916959   -5.896625   -0.000515
      2          6           0        3.171372   -4.774099   -0.000265
      3          6           0        3.815385   -3.540479    0.000006
      4          6           0        3.034538   -2.387684    0.000253
      5          6           0        1.627999   -2.450942    0.000236
      6          6           0        1.024462   -3.723017   -0.000041
      7          6           0        1.784581   -4.889560   -0.000288
      8          5           0        0.770276   -1.159698    0.000499
      9          8           0        1.372076    0.086234    0.000445
     10          5           0        0.618896    1.246997    0.000518
     11          8           0       -0.760978    1.145132    0.000442
     12          5           0       -1.389600   -0.087507    0.000483
     13          8           0       -0.611436   -1.231616    0.000410
     14          6           0       -2.936706   -0.184739    0.000228
     15          6           0       -3.736279    0.974152    0.000245
     16          6           0       -5.126601    0.899651    0.000007
     17          6           0       -5.720323   -0.358967   -0.000260
     18          6           0       -4.974264   -1.533695   -0.000289
     19          6           0       -3.585483   -1.434362   -0.000049
     20          9           0       -7.065251   -0.443293   -0.000496
     21          6           0        1.308203    2.635537    0.000234
     22          6           0        2.711610    2.748455    0.000104
     23          6           0        3.342362    3.989748   -0.000175
     24          6           0        2.549359    5.133275   -0.000326
     25          6           0        1.158996    5.074675   -0.000203
     26          6           0        0.550511    3.822298    0.000072
     27          9           0        3.149031    6.340055   -0.000592
     28          1           0        4.899891   -3.502722    0.000017
     29          1           0        3.520871   -1.416429    0.000466
     30          1           0       -0.059354   -3.795160   -0.000060
     31          1           0        1.329610   -5.874739   -0.000502
     32          1           0       -3.256343    1.948587    0.000454
     33          1           0       -5.751921    1.786533    0.000022
     34          1           0       -5.484233   -2.491566   -0.000500
     35          1           0       -2.987878   -2.341407   -0.000073
     36          1           0        3.315549    1.845618    0.000223
     37          1           0        4.423083    4.087777   -0.000276
     38          1           0        0.584427    5.995257   -0.000325
     39          1           0       -0.533835    3.758584    0.000166
 ---------------------------------------------------------------------

 SCF Done:  E(RB3LYP) =  -1293.24213332     A.U. after    1 cycles

 Excitation energies and oscillator strengths:

 Excited State   1:      Singlet-A      5.0355 eV  246.22 nm  f=0.1169  <S**2>=0.000
      88 -> 94         0.12576
      90 -> 95         0.21715
      93 -> 94         0.60191
      93 -> 95         0.11104
 This state for optimization and/or second-order correction.
 Total Energy, E(TD-HF/TD-KS) =  -1293.05708201
 Copying the excited state density for this state as the 1-particle RhoCI density.

 Excited State   2:      Singlet-A      5.0358 eV  246.21 nm  f=0.1168  <S**2>=0.000
      88 -> 95        -0.12432
      89 -> 94         0.22247
      93 -> 94        -0.11112
      93 -> 95         0.60110

 Excited State   3:      Singlet-A      5.0550 eV  245.27 nm  f=0.0000  <S**2>=0.000
      88 -> 94         0.31746
      89 -> 95        -0.21328
      90 -> 95        -0.23367
      91 -> 95        -0.28839
      91 -> 98         0.16582
      92 -> 94        -0.28884
      92 -> 99        -0.16536
      93 -> 97        -0.19500

 Excited State   4:      Singlet-A      5.1015 eV  243.03 nm  f=0.0468  <S**2>=0.000
      88 -> 94         0.23387
      89 -> 94        -0.14552
      90 -> 95         0.40793
      91 -> 97        -0.11823
      91 -> 98         0.11597
      92 -> 97         0.15286
      92 -> 99         0.12383
      93 -> 94        -0.28143
      93 -> 98         0.15148
      93 -> 99         0.16461

 Excited State   5:      Singlet-A      5.1016 eV  243.03 nm  f=0.0470  <S**2>=0.000
      88 -> 94         0.10502
      88 -> 95        -0.24247
      88 -> 96         0.13001
      89 -> 94         0.40861
      90 -> 95         0.13111
      91 -> 97         0.16145
      91 -> 99        -0.11800
      92 -> 97         0.11016
      92 -> 98         0.12559
      93 -> 95        -0.28273
      93 -> 98        -0.16414
      93 -> 99         0.15175

 Excited State   6:      Singlet-A      5.1535 eV  240.58 nm  f=0.0000  <S**2>=0.000
      88 -> 94         0.25117
      89 -> 95        -0.16860
      90 -> 95        -0.18564
      91 -> 94        -0.12905
      91 -> 95         0.37058
      91 -> 98         0.12118
      92 -> 94         0.37578
      92 -> 95         0.12722
      92 -> 99        -0.12112
      93 -> 97        -0.15107

 Excited State   7:      Singlet-A      5.1822 eV  239.25 nm  f=0.3487  <S**2>=0.000
      91 -> 94         0.38260
      91 -> 95        -0.28607
      92 -> 94         0.28425
      92 -> 95         0.38167
      93 -> 95         0.16334

 Excited State   8:      Singlet-A      5.1823 eV  239.25 nm  f=0.3494  <S**2>=0.000
      91 -> 94         0.28425
      91 -> 95         0.38442
      92 -> 94        -0.37995
      92 -> 95         0.28594
      93 -> 94         0.16300

 Excited State   9:      Singlet-A      5.3690 eV  230.93 nm  f=0.0000  <S**2>=0.000
      88 -> 95        -0.11936
      91 -> 94        -0.43190
      91 -> 95        -0.14849
      92 -> 94        -0.14813
      92 -> 95         0.43197
      93 -> 96        -0.19221

 Excited State  10:      Singlet-A      5.4754 eV  226.44 nm  f=0.0029  <S**2>=0.000
      88 -> 95        -0.33951
      89 -> 94        -0.12478
      90 -> 94         0.60618

 The electronic state is 1-A.
 Alpha  occ. eigenvalues --  -24.71101 -24.71100 -24.71100 -19.17181 -19.17181
 Alpha  occ. eigenvalues --  -19.17180 -10.28169 -10.28169 -10.28167 -10.20580
 Alpha  occ. eigenvalues --  -10.20578 -10.20577 -10.20577 -10.20576 -10.20576
 Alpha  occ. eigenvalues --  -10.20108 -10.20107 -10.20107 -10.20107 -10.20107
 Alpha  occ. eigenvalues --  -10.20105 -10.18007 -10.18005 -10.18004  -6.80876
 Alpha  occ. eigenvalues --   -6.80875  -6.80873  -1.22305  -1.22304  -1.22304
 Alpha  occ. eigenvalues --   -1.07208  -1.01391  -1.01389  -0.86381  -0.86381
 Alpha  occ. eigenvalues --   -0.86347  -0.76116  -0.76106  -0.76105  -0.75163
 Alpha  occ. eigenvalues --   -0.75162  -0.74903  -0.63059  -0.63058  -0.62885
 Alpha  occ. eigenvalues --   -0.62171  -0.62170  -0.61367  -0.57502  -0.57501
 Alpha  occ. eigenvalues --   -0.54778  -0.54418  -0.54417  -0.53781  -0.50486
 Alpha  occ. eigenvalues --   -0.48894  -0.48893  -0.47923  -0.47555  -0.47555
 Alpha  occ. eigenvalues --   -0.47164  -0.46444  -0.46422  -0.46421  -0.45157
 Alpha  occ. eigenvalues --   -0.44452  -0.44451  -0.43558  -0.43557  -0.43552
 Alpha  occ. eigenvalues --   -0.43472  -0.39779  -0.39779  -0.39573  -0.37931
 Alpha  occ. eigenvalues --   -0.37930  -0.36600  -0.36598  -0.36240  -0.36066
 Alpha  occ. eigenvalues --   -0.35580  -0.35579  -0.34803  -0.34802  -0.34558
 Alpha  occ. eigenvalues --   -0.32445  -0.32444  -0.26485  -0.26485  -0.26484
 Alpha  occ. eigenvalues --   -0.25376  -0.25376  -0.24872
 Alpha virt. eigenvalues --   -0.04701  -0.04700  -0.02023  -0.01303  -0.01292
 Alpha virt. eigenvalues --   -0.01291   0.06435   0.06437   0.07021   0.08931
 Alpha virt. eigenvalues --    0.08933   0.10024   0.12102   0.12102   0.12458

 Mulliken atomic charges:
              1
     1  F   -0.261517
     2  C    0.397930
     3  C   -0.172690
     4  C   -0.185707
     5  C    0.091195
     6  C   -0.189782
     7  C   -0.170277
     8  B    0.414394
     9  O   -0.396163
    10  B    0.293057
    11  O   -0.383046
    12  B    0.333441
    13  O   -0.402526
    14  C    0.100668
    15  C   -0.195909
    16  C   -0.184538
    17  C    0.370568
    18  C   -0.177500
    19  C   -0.207918
    20  F   -0.285931
    21  C    0.105631
    22  C   -0.212866
    23  C   -0.183472
    24  C    0.357030
    25  C   -0.188026
    26  C   -0.205057
    27  F   -0.298008
    28  H    0.177802
    29  H    0.189930
    30  H    0.182516
    31  H    0.176946
    32  H    0.158250
    33  H    0.148782
    34  H    0.146236
    35  H    0.135893
    36  H    0.120180
    37  H    0.131868
    38  H    0.133578
    39  H    0.135039
 Sum of Mulliken atomic charges =  -0.00000

 Dipole moment (field-independent basis, Debye):
    X=              1.9419    Y=             -7.4478    Z=              0.0003  Tot=              7.6968
 Quadrupole moment (field-independent basis, Debye-Ang):
   XX=           -144.2198   YY=           -141.7287   ZZ=           -151.1870
   XY=            -18.5254   XZ=              0.0009   YZ=              0.0020

 Summary of Natural Population Analysis:

                                       Natural Population
                Natural  -----------------------------------------------
    Atom  No    Charge         Core      Valence    Rydberg      Total
 -----------------------------------------------------------------------
      F    1   -0.29938      1.99994     7.29373    0.00571     9.29938
      C    2    0.47684      1.99848     3.49782    0.02687     5.52316
      C    3   -0.28461      1.99901     4.27050    0.01510     6.28461
      C    4   -0.15503      1.99914     4.14173    0.01416     6.15503
      C    5   -0.32033      1.99897     4.30537    0.01599     6.32033
      C    6   -0.16767      1.99914     4.15421    0.01432     6.16767
      C    7   -0.27735      1.99900     4.26333    0.01502     6.27735
      B    8    1.15476      1.99890     1.81968    0.02667     3.84524
      O    9   -0.89055      1.99974     6.88434    0.00646     8.89055
      B   10    1.04615      1.99884     1.92975    0.02526     3.95385
      O   11   -0.87107      1.99975     6.86495    0.00637     8.87107
      B   12    1.08203      1.99886     1.89329    0.02581     3.91797
      O   13   -0.89997      1.99974     6.89373    0.00650     8.89997
      C   14   -0.38689      1.99897     4.37134    0.01658     6.38689
      C   15   -0.16465      1.99912     4.15165    0.01388     6.16465
      C   16   -0.30822      1.99900     4.29428    0.01494     6.30822
      C   17    0.43067      1.99847     3.54366    0.02720     5.56933
      C   18   -0.28662      1.99900     4.27290    0.01471     6.28662
      C   19   -0.20237      1.99912     4.18894    0.01430     6.20237
      F   20   -0.32230      1.99994     7.31679    0.00557     9.32230
      C   21   -0.41988      1.99897     4.40406    0.01686     6.41988
      C   22   -0.20700      1.99911     4.19377    0.01412     6.20700
      C   23   -0.29846      1.99900     4.28484    0.01462     6.29846
      C   24    0.40780      1.99846     3.56642    0.02732     5.59220
      C   25   -0.31261      1.99900     4.29885    0.01477     6.31261
      C   26   -0.18219      1.99911     4.16922    0.01386     6.18219
      F   27   -0.33366      1.99994     7.32824    0.00547     9.33366
      H   28    0.26346      0.00000     0.73552    0.00102     0.73654
      H   29    0.26490      0.00000     0.73384    0.00127     0.73510
      H   30    0.26152      0.00000     0.73717    0.00131     0.73848
      H   31    0.26253      0.00000     0.73643    0.00104     0.73747
      H   32    0.24899      0.00000     0.74964    0.00138     0.75101
      H   33    0.25073      0.00000     0.74809    0.00117     0.74927
      H   34    0.24798      0.00000     0.75080    0.00122     0.75202
      H   35    0.23873      0.00000     0.75988    0.00139     0.76127
      H   36    0.23083      0.00000     0.76782    0.00135     0.76917
      H   37    0.24169      0.00000     0.75706    0.00125     0.75831
      H   38    0.24352      0.00000     0.75525    0.00122     0.75648
      H   39    0.23766      0.00000     0.76096    0.00138     0.76234
 =======================================================================
   * Total *    0.00000     53.97671   131.58982    0.43346   186.00000

 Normal termination of Gaussian 09 at Mon Oct  4 21:17:23 2021.
