 Gaussian 09, Revision A.02,

 -----------------------------------
 #p opt b3lyp/6-31G* scf=(xqc,tight)
 -----------------------------------

 ------------------------------------
 C1CCC(CC1)P(c1ccccc1)c1ccccc1_conf_0
 ------------------------------------
 Symbolic Z-matrix:
 Charge =  0 Multiplicity = 1

 SCF Done:  E(RB3LYP) =  -1039.92128260     A.U. after   14 cycles
 SCF Done:  E(RB3LYP) =  -1039.92452660     A.U. after   13 cycles
 SCF Done:  E(RB3LYP) =  -1039.92493297     A.U. after   12 cycles
 SCF Done:  E(RB3LYP) =  -1039.92503946     A.U. after   12 cycles
 SCF Done:  E(RB3LYP) =  -1039.92506296     A.U. after   12 cycles
 SCF Done:  E(RB3LYP) =  -1039.92514994     A.U. after   11 cycles
 SCF Done:  E(RB3LYP) =  -1039.92522653     A.U. after   12 cycles
 SCF Done:  E(RB3LYP) =  -1039.92523076     A.U. after   12 cycles
 SCF Done:  E(RB3LYP) =  -1039.92525092     A.U. after   11 cycles
 SCF Done:  E(RB3LYP) =  -1039.92525582     A.U. after   11 cycles
 SCF Done:  E(RB3LYP) =  -1039.92525636     A.U. after    8 cycles
 SCF Done:  E(RB3LYP) =  -1039.92525638     A.U. after    8 cycles
 SCF Done:  E(RB3LYP) =  -1039.92525636     A.U. after    7 cycles
 Optimization completed.
    -- Stationary point found.
 Normal termination of Gaussian 09 at Sat Oct  2 01:56:31 2021.

 ----------------------------------------------------------------------
 #p freq b3lyp/6-31G* volume NMR pop=NPA density=current Geom=AllCheck
 Guess=Read
 ----------------------------------------------------------------------

 C1CCC(CC1)P(c1ccccc1)c1ccccc1_conf_0
 ------------------------------------
 Redundant internal coordinates taken from checkpoint file:
 C18H21P_0d84_conf_0.chk
 Charge =  0 Multiplicity = 1

 SCF Done:  E(RB3LYP) =  -1039.92525636     A.U. after    1 cycles

  1  C    Isotropic =   162.2230   Anisotropy =     2.4632

  2  C    Isotropic =   161.6652   Anisotropy =     4.9384

  3  C    Isotropic =   159.4778   Anisotropy =    12.1712

  4  C    Isotropic =   148.2959   Anisotropy =    21.9971

  5  C    Isotropic =   160.5139   Anisotropy =     8.4220

  6  C    Isotropic =   161.6623   Anisotropy =     5.2055

  7  P    Isotropic =   362.6680   Anisotropy =    39.0066

  8  C    Isotropic =    55.6374   Anisotropy =   181.9102

  9  C    Isotropic =    64.0095   Anisotropy =   173.3766

 10  C    Isotropic =    68.8174   Anisotropy =   163.3763

 11  C    Isotropic =    68.1352   Anisotropy =   167.1171

 12  C    Isotropic =    69.4871   Anisotropy =   162.3675

 13  C    Isotropic =    59.7798   Anisotropy =   160.5198

 14  C    Isotropic =    57.2878   Anisotropy =   182.2418

 15  C    Isotropic =    59.0334   Anisotropy =   161.7045

 16  C    Isotropic =    67.9324   Anisotropy =   165.4247

 17  C    Isotropic =    67.8085   Anisotropy =   167.2501

 18  C    Isotropic =    68.8385   Anisotropy =   163.6469

 19  C    Isotropic =    66.0398   Anisotropy =   169.4580

 20  H    Isotropic =    30.5417   Anisotropy =    10.2735

 21  H    Isotropic =    30.6871   Anisotropy =     8.3878

 22  H    Isotropic =    30.4833   Anisotropy =     9.7481

 23  H    Isotropic =    30.7052   Anisotropy =     7.6115

 24  H    Isotropic =    30.7611   Anisotropy =     6.0714

 25  H    Isotropic =    30.3811   Anisotropy =     7.1578

 26  H    Isotropic =    29.9328   Anisotropy =     4.6146

 27  H    Isotropic =    30.6964   Anisotropy =     6.3803

 28  H    Isotropic =    30.8609   Anisotropy =     9.0310

 29  H    Isotropic =    30.5169   Anisotropy =     9.6204

 30  H    Isotropic =    30.8616   Anisotropy =     7.2371

 31  H    Isotropic =    25.0259   Anisotropy =    11.5426

 32  H    Isotropic =    25.1033   Anisotropy =     6.1467

 33  H    Isotropic =    25.0898   Anisotropy =     3.7619

 34  H    Isotropic =    25.0412   Anisotropy =     4.6962

 35  H    Isotropic =    24.6293   Anisotropy =     8.7454

 36  H    Isotropic =    24.7104   Anisotropy =     9.4616

 37  H    Isotropic =    24.9517   Anisotropy =     4.7638

 38  H    Isotropic =    24.9695   Anisotropy =     3.8373

 39  H    Isotropic =    24.8586   Anisotropy =     5.6210

 40  H    Isotropic =    24.5439   Anisotropy =    10.0204

  Exact polarizability: 208.643 -16.030 233.655   8.083 -10.508 174.194
 Approx polarizability: 282.885 -28.195 331.142  18.357 -28.702 321.275

                     1                      2                      3
                     A                      A                      A
 Frequencies --    32.8724                40.2128                50.6659
 Red. masses --     3.8770                 3.7169                 4.7031
 Frc consts  --     0.0025                 0.0035                 0.0071
 IR Inten    --     0.2546                 0.0142                 0.0882

                     4                      5                      6
                     A                      A                      A
 Frequencies --    55.1052                66.0808                73.6517
 Red. masses --     3.1325                 4.1366                 3.9784
 Frc consts  --     0.0056                 0.0106                 0.0127
 IR Inten    --     0.0053                 0.0336                 0.1076

                     7                      8                      9
                     A                      A                      A
 Frequencies --   145.9306               179.8187               212.2118
 Red. masses --     3.2480                 4.1299                 4.3830
 Frc consts  --     0.0408                 0.0787                 0.1163
 IR Inten    --     0.2141                 0.3808                 0.9560

                    10                     11                     12
                     A                      A                      A
 Frequencies --   221.9658               233.8487               250.5121
 Red. masses --     3.7397                 2.7486                 3.7113
 Frc consts  --     0.1086                 0.0886                 0.1372
 IR Inten    --     0.6060                 0.0655                 0.5009

                    13                     14                     15
                     A                      A                      A
 Frequencies --   270.6690               308.8775               377.2637
 Red. masses --     3.4779                 2.1978                 3.1752
 Frc consts  --     0.1501                 0.1235                 0.2663
 IR Inten    --     0.0621                 0.1349                 2.2873

                    16                     17                     18
                     A                      A                      A
 Frequencies --   404.6317               412.6878               414.1581
 Red. masses --     4.4152                 2.9760                 2.9683
 Frc consts  --     0.4259                 0.2986                 0.3000
 IR Inten    --     3.9094                 1.1275                 0.0064

                    19                     20                     21
                     A                      A                      A
 Frequencies --   429.3401               448.4279               463.6720
 Red. masses --     4.4112                 3.1602                 4.5505
 Frc consts  --     0.4791                 0.3744                 0.5764
 IR Inten    --     5.9831                 0.9109                 6.7900

                    22                     23                     24
                     A                      A                      A
 Frequencies --   495.9465               508.9017               521.1571
 Red. masses --     3.3827                 2.1708                 2.8583
 Frc consts  --     0.4902                 0.3312                 0.4574
 IR Inten    --    11.8701                 8.0069                21.1124

                    25                     26                     27
                     A                      A                      A
 Frequencies --   632.9143               633.9287               697.2945
 Red. masses --     6.4309                 6.3924                 6.5926
 Frc consts  --     1.5178                 1.5135                 1.8886
 IR Inten    --     0.1185                 0.0164                 1.4855

                    28                     29                     30
                     A                      A                      A
 Frequencies --   705.3525               713.1622               714.5639
 Red. masses --     6.5720                 2.1551                 2.0840
 Frc consts  --     1.9265                 0.6458                 0.6270
 IR Inten    --     2.7583                22.2240                21.7672

                    31                     32                     33
                     A                      A                      A
 Frequencies --   743.2753               759.6658               767.7850
 Red. masses --     2.2997                 1.6352                 1.8376
 Frc consts  --     0.7486                 0.5560                 0.6382
 IR Inten    --    16.6123                16.5581                14.8467

                    34                     35                     36
                     A                      A                      A
 Frequencies --   803.2470               822.9686               864.6793
 Red. masses --     1.4639                 3.4042                 1.5751
 Frc consts  --     0.5565                 1.3584                 0.6938
 IR Inten    --     0.2013                 0.9358                 4.1156

                    37                     38                     39
                     A                      A                      A
 Frequencies --   866.8376               867.8673               899.7615
 Red. masses --     1.3365                 1.2733                 2.0495
 Frc consts  --     0.5917                 0.5651                 0.9776
 IR Inten    --     1.7480                 0.5863                 1.1412

                    40                     41                     42
                     A                      A                      A
 Frequencies --   902.2821               933.2541               934.6088
 Red. masses --     1.9627                 1.3557                 1.3436
 Frc consts  --     0.9414                 0.6957                 0.6915
 IR Inten    --     0.4865                 0.2568                 0.7998

                    43                     44                     45
                     A                      A                      A
 Frequencies --   937.8383               976.1570               977.4399
 Red. masses --     1.4873                 1.3590                 1.3573
 Frc consts  --     0.7708                 0.7630                 0.7640
 IR Inten    --     3.4963                 0.0095                 0.1721

                    46                     47                     48
                     A                      A                      A
 Frequencies --  1000.2760              1000.6117              1015.7776
 Red. masses --     1.2566                 1.2562                 6.2082
 Frc consts  --     0.7408                 0.7411                 3.7741
 IR Inten    --     0.0812                 0.0593                 4.7078

                    49                     50                     51
                     A                      A                      A
 Frequencies --  1016.7424              1022.4170              1044.5545
 Red. masses --     6.1198                 2.0773                 1.9205
 Frc consts  --     3.7274                 1.2794                 1.2346
 IR Inten    --     1.6436                 4.8882                 2.9537

                    52                     53                     54
                     A                      A                      A
 Frequencies --  1052.4582              1053.2102              1062.8918
 Red. masses --     3.3770                 3.2193                 1.7306
 Frc consts  --     2.2039                 2.1040                 1.1520
 IR Inten    --     1.1758                 0.4389                 1.3702

                    55                     56                     57
                     A                      A                      A
 Frequencies --  1099.2020              1102.2415              1107.9437
 Red. masses --     2.1741                 1.3527                 1.8047
 Frc consts  --     1.5477                 0.9683                 1.3052
 IR Inten    --     0.1427                 2.8746                 3.2738

                    58                     59                     60
                     A                      A                      A
 Frequencies --  1109.9387              1111.1951              1116.1665
 Red. masses --     1.6377                 2.0140                 2.5543
 Frc consts  --     1.1887                 1.4651                 1.8749
 IR Inten    --     6.8543                 7.5242                 6.1095

                    61                     62                     63
                     A                      A                      A
 Frequencies --  1139.6143              1193.5052              1194.1151
 Red. masses --     1.8176                 1.1011                 1.1012
 Frc consts  --     1.3908                 0.9241                 0.9251
 IR Inten    --     0.7065                 0.0272                 0.0200

                    64                     65                     66
                     A                      A                      A
 Frequencies --  1209.0704              1219.3579              1220.5775
 Red. masses --     1.3304                 1.1721                 1.1799
 Frc consts  --     1.1458                 1.0268                 1.0357
 IR Inten    --     2.0988                 4.5766                 0.4937

                    67                     68                     69
                     A                      A                      A
 Frequencies --  1231.2514              1302.4943              1308.0455
 Red. masses --     1.4294                 1.2866                 1.2614
 Frc consts  --     1.2767                 1.2860                 1.2716
 IR Inten    --     8.7153                 0.5837                 1.7859

                    70                     71                     72
                     A                      A                      A
 Frequencies --  1313.3343              1325.6301              1327.4246
 Red. masses --     1.2401                 3.6688                 3.3964
 Frc consts  --     1.2603                 3.7985                 3.5261
 IR Inten    --     6.5407                 3.7081                 2.3402

                    73                     74                     75
                     A                      A                      A
 Frequencies --  1346.9612              1364.9563              1367.9610
 Red. masses --     1.2206                 1.6501                 1.5930
 Frc consts  --     1.3048                 1.8114                 1.7564
 IR Inten    --     0.7502                 0.6463                 2.0345

                    76                     77                     78
                     A                      A                      A
 Frequencies --  1380.5357              1389.2899              1395.9049
 Red. masses --     1.3531                 1.3269                 1.4397
 Frc consts  --     1.5194                 1.5090                 1.6528
 IR Inten    --     0.2093                 0.9484                 5.3617

                    79                     80                     81
                     A                      A                      A
 Frequencies --  1401.2392              1409.2371              1479.7915
 Red. masses --     1.4804                 1.4139                 2.1003
 Frc consts  --     1.7126                 1.6544                 2.7098
 IR Inten    --     0.5118                 2.9891                 4.2250

                    82                     83                     84
                     A                      A                      A
 Frequencies --  1480.8607              1512.6327              1515.4686
 Red. masses --     2.1079                 1.0864                 1.0885
 Frc consts  --     2.7236                 1.4646                 1.4730
 IR Inten    --    14.1883                 0.1278                 3.0610

                    85                     86                     87
                     A                      A                      A
 Frequencies --  1518.4923              1521.8566              1531.6201
 Red. masses --     1.0942                 1.0860                 2.0013
 Frc consts  --     1.4866                 1.4819                 2.7660
 IR Inten    --     1.7493                 6.4633                 7.0562

                    88                     89                     90
                     A                      A                      A
 Frequencies --  1533.3723              1536.0727              1630.2048
 Red. masses --     1.9719                 1.1057                 5.0423
 Frc consts  --     2.7317                 1.5371                 7.8952
 IR Inten    --     5.0346                 0.1951                 0.1320

                    91                     92                     93
                     A                      A                      A
 Frequencies --  1631.3093              1645.9918              1647.8209
 Red. masses --     5.0899                 5.2878                 5.2910
 Frc consts  --     7.9806                 8.4407                 8.4646
 IR Inten    --     0.6656                 2.2038                 0.9849

                    94                     95                     96
                     A                      A                      A
 Frequencies --  3008.7300              3018.9037              3020.4715
 Red. masses --     1.0807                 1.0685                 1.0718
 Frc consts  --     5.7640                 5.7375                 5.7610
 IR Inten    --     3.7599                24.2274                16.5516

                    97                     98                     99
                     A                      A                      A
 Frequencies --  3024.2106              3026.5691              3032.7420
 Red. masses --     1.0628                 1.0630                 1.0660
 Frc consts  --     5.7271                 5.7368                 5.7768
 IR Inten    --    10.8832                 6.9904                46.9655

                   100                    101                    102
                     A                      A                      A
 Frequencies --  3068.1144              3068.3309              3074.5519
 Red. masses --     1.0974                 1.0932                 1.1023
 Frc consts  --     6.0864                 6.0641                 6.1395
 IR Inten    --    58.0904                81.3094                61.9440

                   103                    104                    105
                     A                      A                      A
 Frequencies --  3086.6946              3091.8024              3176.8906
 Red. masses --     1.0972                 1.0965                 1.0847
 Frc consts  --     6.1593                 6.1754                 6.4502
 IR Inten    --    39.1423                32.5508                 1.6368

                   106                    107                    108
                     A                      A                      A
 Frequencies --  3177.8784              3183.1441              3183.8572
 Red. masses --     1.0849                 1.0875                 1.0876
 Frc consts  --     6.4552                 6.4922                 6.4955
 IR Inten    --     2.1540                 0.9834                 1.0078

                   109                    110                    111
                     A                      A                      A
 Frequencies --  3192.9968              3193.9765              3202.5184
 Red. masses --     1.0914                 1.0914                 1.0930
 Frc consts  --     6.5560                 6.5600                 6.6047
 IR Inten    --    16.0322                22.4867                29.3902

                   112                    113                    114
                     A                      A                      A
 Frequencies --  3204.4176              3208.7468              3210.7243
 Red. masses --     1.0931                 1.0970                 1.0961
 Frc consts  --     6.6133                 6.6547                 6.6573
 IR Inten    --    36.4012                27.7793                17.6335

 - Thermochemistry -
 -------------------
 Temperature   298.150 Kelvin.  Pressure   1.00000 Atm.
 Atom     1 has atomic number  6 and mass  12.00000

 Molecular mass:   268.13809 amu.
 Principal axes and moments of inertia in atomic units:
                           1         2         3
     Eigenvalues --  5202.841275764.202029512.40989
           X            0.99863   0.05240  -0.00056
           Y           -0.05240   0.99862  -0.00396
           Z            0.00035   0.00399   0.99999
 This molecule is an asymmetric top.
 Rotational symmetry number  1.
 Warning -- assumption of classical behavior for rotation
           may cause significant error
 Rotational temperatures (Kelvin)      0.01665     0.01503     0.00911
 Rotational constants (GHZ):           0.34688     0.31309     0.18972
 Zero-point vibrational energy     905402.0 (Joules/Mol)
                                  216.39627 (Kcal/Mol)
 Warning -- explicit consideration of  24 degrees of freedom as
           vibrations may cause significant error
 Vibrational temperatures:     47.30    57.86    72.90    79.28    95.08
          (Kelvin)            105.97   209.96   258.72   305.33   319.36
                              336.46   360.43   389.43   444.41   542.80
                              582.17   593.76   595.88   617.72   645.19
                              667.12   713.56   732.20   749.83   910.62
                              912.08  1003.25  1014.84  1026.08  1028.10
                             1069.41  1092.99  1104.67  1155.69  1184.07
                             1244.08  1247.18  1248.67  1294.55  1298.18
                             1342.74  1344.69  1349.34  1404.47  1406.32
                             1439.17  1439.66  1461.48  1462.86  1471.03
                             1502.88  1514.25  1515.33  1529.26  1581.50
                             1585.88  1594.08  1596.95  1598.76  1605.91
                             1639.65  1717.19  1718.06  1739.58  1754.38
                             1756.14  1771.49  1874.00  1881.98  1889.59
                             1907.28  1909.87  1937.97  1963.87  1968.19
                             1986.28  1998.88  2008.39  2016.07  2027.58
                             2129.09  2130.63  2176.34  2180.42  2184.77
                             2189.61  2203.66  2206.18  2210.06  2345.50
                             2347.09  2368.21  2370.84  4328.89  4343.52
                             4345.78  4351.16  4354.55  4363.43  4414.33
                             4414.64  4423.59  4441.06  4448.41  4570.83
                             4572.25  4579.83  4580.85  4594.00  4595.41
                             4607.70  4610.44  4616.67  4619.51

 Zero-point correction=                           0.344849 (Hartree/Particle)
 Thermal correction to Energy=                    0.361904
 Thermal correction to Enthalpy=                  0.362848
 Thermal correction to Gibbs Free Energy=         0.298579
 Sum of electronic and zero-point Energies=          -1039.580407
 Sum of electronic and thermal Energies=             -1039.563353
 Sum of electronic and thermal Enthalpies=           -1039.562409
 Sum of electronic and thermal Free Energies=        -1039.626677

                     E (Thermal)             CV                S
                      KCal/Mol        Cal/Mol-Kelvin    Cal/Mol-Kelvin
 Total                  227.098             67.857            135.264
 Electronic               0.000              0.000              0.000
 Translational            0.889              2.981             42.658
 Rotational               0.889              2.981             34.011
 Vibrational            225.321             61.895             58.595
 Vibration     1          0.594              1.983              5.648
 Vibration     2          0.594              1.981              5.249
 Vibration     3          0.595              1.977              4.791
 Vibration     4          0.596              1.976              4.625
 Vibration     5          0.597              1.970              4.267
 Vibration     6          0.599              1.966              4.053
 Vibration     7          0.617              1.907              2.725
 Vibration     8          0.629              1.867              2.330
 Vibration     9          0.643              1.822              2.025
 Vibration    10          0.648              1.808              1.943
 Vibration    11          0.654              1.789              1.849
 Vibration    12          0.663              1.762              1.727
 Vibration    13          0.674              1.727              1.592
 Vibration    14          0.698              1.657              1.368
 Vibration    15          0.748              1.519              1.050
 Vibration    16          0.770              1.460              0.946
 Vibration    17          0.776              1.443              0.917
 Vibration    18          0.778              1.439              0.912
 Vibration    19          0.791              1.406              0.861
 Vibration    20          0.807              1.364              0.801
 Vibration    21          0.821              1.331              0.755
 Vibration    22          0.852              1.259              0.668
 Vibration    23          0.864              1.230              0.636
 Vibration    24          0.876              1.203              0.607

 Optimization completed.
    -- Stationary point found.
 Normal termination of Gaussian 09 at Sat Oct  2 05:52:52 2021.
 Gaussian 09:  AM64L-G09RevA.02 11-Jun-2009

 ----------------------------------------------------------------------
 #p TD(NStates=10, Root=1) b3lyp/6-31G* volume pop=NPA density=current
 Geom=AllCheck Guess=Read
 ----------------------------------------------------------------------

 C1CCC(CC1)P(c1ccccc1)c1ccccc1_conf_0
 ------------------------------------
 Redundant internal coordinates taken from checkpoint file:
 C18H21P_0d84_conf_0.chk
 Charge =  0 Multiplicity = 1

                         Standard orientation:
 ---------------------------------------------------------------------
 Center     Atomic      Atomic             Coordinates (Angstroms)
 Number     Number       Type             X           Y           Z
 ---------------------------------------------------------------------
      1          6           0       -4.363475   -1.108773    0.179897
      2          6           0       -3.266371   -2.157627    0.410884
      3          6           0       -1.983461   -1.817832   -0.366237
      4          6           0       -1.467663   -0.404111   -0.024486
      5          6           0       -2.574450    0.641077   -0.277062
      6          6           0       -3.856669    0.304348    0.502442
      7         15           0        0.066523    0.004363   -1.050833
      8          6           0        0.583770    1.624358   -0.296966
      9          6           0        1.183217    1.756509    0.965659
     10          6           0        1.529825    3.012707    1.463691
     11          6           0        1.281810    4.161518    0.708648
     12          6           0        0.690815    4.046382   -0.549841
     13          6           0        0.351465    2.787049   -1.049279
     14          6           0        1.348137   -1.157698   -0.374845
     15          6           0        2.440717   -1.437663   -1.212911
     16          6           0        3.466216   -2.289849   -0.802263
     17          6           0        3.410026   -2.896531    0.453579
     18          6           0        2.325150   -2.641800    1.293792
     19          6           0        1.306164   -1.779039    0.884442
     20          1           0       -5.249474   -1.343818    0.783719
     21          1           0       -4.682931   -1.146547   -0.872198
     22          1           0       -3.623395   -3.154336    0.120832
     23          1           0       -3.035050   -2.210088    1.485282
     24          1           0       -2.188995   -1.868735   -1.445640
     25          1           0       -1.212475   -2.569613   -0.161756
     26          1           0       -1.210677   -0.365734    1.044915
     27          1           0       -2.803403    0.670707   -1.352832
     28          1           0       -2.222591    1.642130   -0.003309
     29          1           0       -4.632475    1.048190    0.279132
     30          1           0       -3.653875    0.380255    1.581056
     31          1           0        1.395067    0.871633    1.558987
     32          1           0        1.996687    3.095078    2.442162
     33          1           0        1.554298    5.139367    1.097233
     34          1           0        0.501244    4.934312   -1.147627
     35          1           0       -0.094585    2.702366   -2.037411
     36          1           0        2.483195   -0.983711   -2.200251
     37          1           0        4.303497   -2.487223   -1.466737
     38          1           0        4.202732   -3.567867    0.773162
     39          1           0        2.270657   -3.114066    2.271559
     40          1           0        0.473388   -1.595889    1.557353
 ---------------------------------------------------------------------

 SCF Done:  E(RB3LYP) =  -1039.92525636     A.U. after    1 cycles

 Excitation energies and oscillator strengths:

 Excited State   1:      Singlet-A      4.5630 eV  271.71 nm  f=0.0793  <S**2>=0.000
      72 -> 73         0.69275
 This state for optimization and/or second-order correction.
 Total Energy, E(TD-HF/TD-KS) =  -1039.75756832
 Copying the excited state density for this state as the 1-particle RhoCI density.

 Excited State   2:      Singlet-A      4.9222 eV  251.89 nm  f=0.0361  <S**2>=0.000
      72 -> 74         0.68140

 Excited State   3:      Singlet-A      5.0155 eV  247.20 nm  f=0.0014  <S**2>=0.000
      69 -> 73        -0.19171
      69 -> 74        -0.11057
      72 -> 75         0.65087

 Excited State   4:      Singlet-A      5.1280 eV  241.78 nm  f=0.0043  <S**2>=0.000
      71 -> 73         0.21448
      72 -> 76         0.62794

 Excited State   5:      Singlet-A      5.4247 eV  228.56 nm  f=0.0047  <S**2>=0.000
      68 -> 75         0.13838
      69 -> 73         0.11049
      70 -> 74        -0.25903
      70 -> 76         0.24804
      71 -> 73         0.46542
      71 -> 76        -0.10103
      72 -> 75         0.14652
      72 -> 76        -0.23760

 Excited State   6:      Singlet-A      5.4776 eV  226.35 nm  f=0.0109  <S**2>=0.000
      68 -> 73         0.18075
      68 -> 74        -0.13785
      68 -> 75         0.31299
      69 -> 73         0.43703
      69 -> 74         0.15945
      70 -> 75         0.14007
      71 -> 75         0.11960
      72 -> 75         0.18339
      72 -> 76         0.15893

 Excited State   7:      Singlet-A      5.6578 eV  219.14 nm  f=0.0472  <S**2>=0.000
      68 -> 73        -0.25249
      69 -> 73         0.15304
      70 -> 73         0.57595
      70 -> 74         0.12473
      70 -> 76         0.16140
      71 -> 76        -0.12593

 Excited State   8:      Singlet-A      5.7932 eV  214.02 nm  f=0.0397  <S**2>=0.000
      68 -> 73         0.43363
      68 -> 74        -0.17514
      68 -> 75        -0.10518
      69 -> 73        -0.17915
      69 -> 74         0.16397
      70 -> 73         0.26436
      70 -> 74         0.10396
      71 -> 73         0.25054
      71 -> 74         0.17705

 Excited State   9:      Singlet-A      5.8215 eV  212.98 nm  f=0.0072  <S**2>=0.000
      68 -> 73        -0.32778
      70 -> 76        -0.13561
      71 -> 73         0.27516
      71 -> 74         0.45910
      71 -> 76         0.22397

 Excited State  10:      Singlet-A      5.9299 eV  209.08 nm  f=0.0209  <S**2>=0.000
      68 -> 73        -0.13646
      68 -> 74         0.11896
      68 -> 75         0.19839
      69 -> 73        -0.30741
      69 -> 74         0.52242
      69 -> 75         0.13392
      69 -> 76         0.10225
      71 -> 75         0.10382

 The electronic state is 1-A.
 Alpha  occ. eigenvalues --  -77.07283 -10.19390 -10.19264 -10.19209 -10.19153
 Alpha  occ. eigenvalues --  -10.19092 -10.19050 -10.18994 -10.18987 -10.18875
 Alpha  occ. eigenvalues --  -10.18855 -10.18836 -10.18812 -10.18791 -10.17737
 Alpha  occ. eigenvalues --  -10.17693 -10.17667 -10.17611 -10.17514  -6.54031
 Alpha  occ. eigenvalues --   -4.70310  -4.70256  -4.69790  -0.85283  -0.84724
 Alpha  occ. eigenvalues --   -0.82497  -0.76230  -0.74418  -0.74152  -0.73848
 Alpha  occ. eigenvalues --   -0.73363  -0.73291  -0.63966  -0.60719  -0.60323
 Alpha  occ. eigenvalues --   -0.59941  -0.59325  -0.59111  -0.55372  -0.54189
 Alpha  occ. eigenvalues --   -0.51297  -0.49835  -0.46869  -0.45219  -0.44660
 Alpha  occ. eigenvalues --   -0.44462  -0.44216  -0.43494  -0.43197  -0.42445
 Alpha  occ. eigenvalues --   -0.41853  -0.41642  -0.40291  -0.38060  -0.37381
 Alpha  occ. eigenvalues --   -0.36995  -0.36346  -0.35869  -0.34619  -0.34443
 Alpha  occ. eigenvalues --   -0.34107  -0.33826  -0.33674  -0.31583  -0.31360
 Alpha  occ. eigenvalues --   -0.29346  -0.28673  -0.25417  -0.25019  -0.24901
 Alpha  occ. eigenvalues --   -0.24688  -0.21623
 Alpha virt. eigenvalues --   -0.01907  -0.00664  -0.00172   0.00325   0.06568
 Alpha virt. eigenvalues --    0.06867   0.08415   0.10469   0.10620   0.11201
 Alpha virt. eigenvalues --    0.13205   0.13731   0.14214   0.15001   0.15134

 Mulliken atomic charges:
              1
     1  C   -0.255611
     2  C   -0.263976
     3  C   -0.283430
     4  C   -0.285869
     5  C   -0.282567
     6  C   -0.264660
     7  P    0.530813
     8  C   -0.108778
     9  C   -0.162201
    10  C   -0.118112
    11  C   -0.161381
    12  C   -0.118424
    13  C   -0.184540
    14  C   -0.103104
    15  C   -0.163605
    16  C   -0.130449
    17  C   -0.157895
    18  C   -0.111545
    19  C   -0.192643
    20  H    0.137131
    21  H    0.130497
    22  H    0.141298
    23  H    0.133718
    24  H    0.138169
    25  H    0.166665
    26  H    0.190860
    27  H    0.135347
    28  H    0.171285
    29  H    0.141401
    30  H    0.135581
    31  H    0.134021
    32  H    0.124321
    33  H    0.114640
    34  H    0.118136
    35  H    0.112937
    36  H    0.121050
    37  H    0.118976
    38  H    0.116532
    39  H    0.123498
    40  H    0.111912
 Sum of Mulliken atomic charges =  -0.00000

 Dipole moment (field-independent basis, Debye):
    X=             -3.2970    Y=             -0.8946    Z=             -0.6713  Tot=              3.4816
 Quadrupole moment (field-independent basis, Debye-Ang):
   XX=           -120.8794   YY=           -125.8357   ZZ=           -114.4259
   XY=              0.3377   XZ=              0.7443   YZ=             -2.2727

 Summary of Natural Population Analysis:

                                       Natural Population
                Natural  -----------------------------------------------
    Atom  No    Charge         Core      Valence    Rydberg      Total
 -----------------------------------------------------------------------
      C    1   -0.46100      1.99933     4.45012    0.01156     6.46100
      C    2   -0.45673      1.99933     4.44506    0.01235     6.45673
      C    3   -0.47150      1.99930     4.45906    0.01314     6.47150
      C    4   -0.56656      1.99919     4.54920    0.01817     6.56656
      C    5   -0.46872      1.99930     4.45638    0.01304     6.46872
      C    6   -0.45706      1.99933     4.44543    0.01230     6.45706
      P    7    1.33834      9.99740     3.61779    0.04646    13.66166
      C    8   -0.46760      1.99885     4.44311    0.02564     6.46760
      C    9   -0.24010      1.99898     4.22329    0.01783     6.24010
      C   10   -0.23115      1.99909     4.21768    0.01439     6.23115
      C   11   -0.28198      1.99909     4.26689    0.01600     6.28198
      C   12   -0.23555      1.99909     4.22175    0.01470     6.23555
      C   13   -0.24885      1.99902     4.23387    0.01595     6.24885
      C   14   -0.46442      1.99887     4.44290    0.02265     6.46442
      C   15   -0.20542      1.99903     4.19086    0.01553     6.20542
      C   16   -0.26042      1.99910     4.24583    0.01549     6.26042
      C   17   -0.27366      1.99909     4.25860    0.01596     6.27366
      C   18   -0.21377      1.99908     4.20043    0.01427     6.21377
      C   19   -0.29591      1.99900     4.27802    0.01888     6.29591
      H   20    0.24173      0.00000     0.75716    0.00111     0.75827
      H   21    0.22559      0.00000     0.77261    0.00181     0.77441
      H   22    0.24490      0.00000     0.75396    0.00115     0.75510
      H   23    0.22727      0.00000     0.77096    0.00178     0.77273
      H   24    0.22865      0.00000     0.76962    0.00173     0.77135
      H   25    0.25733      0.00000     0.74132    0.00135     0.74267
      H   26    0.27211      0.00000     0.72539    0.00250     0.72789
      H   27    0.22583      0.00000     0.77242    0.00175     0.77417
      H   28    0.26009      0.00000     0.73848    0.00142     0.73991
      H   29    0.24512      0.00000     0.75376    0.00112     0.75488
      H   30    0.22839      0.00000     0.76988    0.00173     0.77161
      H   31    0.23854      0.00000     0.75973    0.00173     0.76146
      H   32    0.23582      0.00000     0.76333    0.00086     0.76418
      H   33    0.22879      0.00000     0.77033    0.00088     0.77121
      H   34    0.23161      0.00000     0.76746    0.00093     0.76839
      H   35    0.22354      0.00000     0.77564    0.00082     0.77646
      H   36    0.22695      0.00000     0.77200    0.00106     0.77305
      H   37    0.23253      0.00000     0.76659    0.00088     0.76747
      H   38    0.22956      0.00000     0.76957    0.00087     0.77044
      H   39    0.23491      0.00000     0.76420    0.00089     0.76509
      H   40    0.22281      0.00000     0.77603    0.00116     0.77719
 =======================================================================
   * Total *   -0.00000     45.98147    97.65670    0.36183   144.00000

 Normal termination of Gaussian 09 at Sat Oct  2 19:26:12 2021.
