 Gaussian 09, Revision A.02,

 -----------------------------------
 #p opt b3lyp/6-31G* scf=(xqc,tight)
 -----------------------------------

 --------------------------------------
 COc1ccc2c(c1)ccc(c2)c1ccc(cc1)C_conf_0
 --------------------------------------
 Symbolic Z-matrix:
 Charge =  0 Multiplicity = 1

 SCF Done:  E(RB3LYP) =  -770.778362324     A.U. after   14 cycles
 SCF Done:  E(RB3LYP) =  -770.784973943     A.U. after   12 cycles
 SCF Done:  E(RB3LYP) =  -770.787007502     A.U. after   12 cycles
 SCF Done:  E(RB3LYP) =  -770.787315402     A.U. after   11 cycles
 SCF Done:  E(RB3LYP) =  -770.787461448     A.U. after   11 cycles
 SCF Done:  E(RB3LYP) =  -770.787512373     A.U. after   10 cycles
 SCF Done:  E(RB3LYP) =  -770.787535331     A.U. after   10 cycles
 SCF Done:  E(RB3LYP) =  -770.787539377     A.U. after    9 cycles
 SCF Done:  E(RB3LYP) =  -770.787539770     A.U. after    8 cycles
 SCF Done:  E(RB3LYP) =  -770.787539820     A.U. after    7 cycles
 Optimization completed.
    -- Stationary point found.
 Normal termination of Gaussian 09 at Tue Sep 28 17:24:55 2021.

 ----------------------------------------------------------------------
 #p freq b3lyp/6-31G* volume NMR pop=NPA density=current Geom=AllCheck
 Guess=Read
 ----------------------------------------------------------------------

 COc1ccc2c(c1)ccc(c2)c1ccc(cc1)C_conf_0
 --------------------------------------
 Redundant internal coordinates taken from checkpoint file:
 C18H16O_eb3d_conf_0.chk
 Charge =  0 Multiplicity = 1

 SCF Done:  E(RB3LYP) =  -770.787539820     A.U. after    1 cycles

  1  C    Isotropic =   137.1439   Anisotropy =    65.6297

  2  O    Isotropic =   234.4224   Anisotropy =    82.4440

  3  C    Isotropic =    40.0641   Anisotropy =   122.7888

  4  C    Isotropic =    76.2263   Anisotropy =   134.7814

  5  C    Isotropic =    66.0536   Anisotropy =   142.7448

  6  C    Isotropic =    68.5334   Anisotropy =   188.4462

  7  C    Isotropic =    63.0480   Anisotropy =   194.0482

  8  C    Isotropic =    90.0211   Anisotropy =   118.0435

  9  C    Isotropic =    68.7274   Anisotropy =   140.0340

 10  C    Isotropic =    67.2041   Anisotropy =   147.5469

 11  C    Isotropic =    57.9643   Anisotropy =   164.3426

 12  C    Isotropic =    66.3161   Anisotropy =   140.3023

 13  C    Isotropic =    53.3060   Anisotropy =   164.3648

 14  C    Isotropic =    65.4138   Anisotropy =   150.8651

 15  C    Isotropic =    70.2121   Anisotropy =   161.1558

 16  C    Isotropic =    69.7973   Anisotropy =   161.4129

 17  C    Isotropic =    65.5163   Anisotropy =   145.4070

 18  C    Isotropic =    60.0609   Anisotropy =   171.6674

 19  C    Isotropic =   167.3378   Anisotropy =    22.8708

 20  H    Isotropic =    28.1940   Anisotropy =     8.2828

 21  H    Isotropic =    28.4779   Anisotropy =     7.9137

 22  H    Isotropic =    28.4767   Anisotropy =     8.0444

 23  H    Isotropic =    25.1994   Anisotropy =     6.2619

 24  H    Isotropic =    24.6726   Anisotropy =     7.5609

 25  H    Isotropic =    25.6188   Anisotropy =     9.2975

 26  H    Isotropic =    24.6629   Anisotropy =     7.5840

 27  H    Isotropic =    24.8451   Anisotropy =     8.7044

 28  H    Isotropic =    24.6908   Anisotropy =    10.5592

 29  H    Isotropic =    25.0026   Anisotropy =     9.4966

 30  H    Isotropic =    25.0303   Anisotropy =     4.5728

 31  H    Isotropic =    25.0295   Anisotropy =     4.0700

 32  H    Isotropic =    24.9903   Anisotropy =     6.9855

 33  H    Isotropic =    30.0278   Anisotropy =     6.2393

 34  H    Isotropic =    29.5272   Anisotropy =     7.9744

 35  H    Isotropic =    30.1986   Anisotropy =     8.7080

  Exact polarizability: 335.820  -9.088 175.919  -2.956  -4.755  98.301
 Approx polarizability: 471.633 -25.817 315.482  -0.084 -17.673 159.928

                     1                      2                      3
                     A                      A                      A
 Frequencies --    37.2455                41.2887                73.1443
 Red. masses --     3.9506                 4.3673                 4.6432
 Frc consts  --     0.0032                 0.0044                 0.0146
 IR Inten    --     0.6266                 0.0090                 0.1819

                     4                      5                      6
                     A                      A                      A
 Frequencies --    91.4911               140.6551               149.5768
 Red. masses --     3.4855                 4.4711                 1.0573
 Frc consts  --     0.0172                 0.0521                 0.0139
 IR Inten    --     1.8168                 1.4299                 0.2108

                     7                      8                      9
                     A                      A                      A
 Frequencies --   166.7279               187.6841               198.1991
 Red. masses --     3.3523                 3.3518                 3.6386
 Frc consts  --     0.0549                 0.0696                 0.0842
 IR Inten    --     1.0158                 0.5504                 1.6395

                    10                     11                     12
                     A                      A                      A
 Frequencies --   238.2790               247.4565               285.5367
 Red. masses --     1.7048                 3.4552                 2.3332
 Frc consts  --     0.0570                 0.1247                 0.1121
 IR Inten    --     0.4063                 0.4903                 0.6358

                    13                     14                     15
                     A                      A                      A
 Frequencies --   298.3013               375.4484               379.8257
 Red. masses --     3.7425                 3.7173                 3.8621
 Frc consts  --     0.1962                 0.3087                 0.3283
 IR Inten    --     1.7237                 0.2206                 1.9636

                    16                     17                     18
                     A                      A                      A
 Frequencies --   411.9739               446.8714               466.3713
 Red. masses --     3.4721                 4.3978                 3.3062
 Frc consts  --     0.3472                 0.5174                 0.4237
 IR Inten    --     0.2774                 1.4354                 4.9960

                    19                     20                     21
                     A                      A                      A
 Frequencies --   483.9268               489.7933               519.0565
 Red. masses --     4.0695                 2.6495                 4.8153
 Frc consts  --     0.5615                 0.3745                 0.7644
 IR Inten    --     6.9056                 6.7396                10.8748

                    22                     23                     24
                     A                      A                      A
 Frequencies --   533.3186               549.5383               566.3551
 Red. masses --     5.8821                 4.4131                 4.5065
 Frc consts  --     0.9857                 0.7852                 0.8517
 IR Inten    --     0.2445                 1.3503                 2.6895

                    25                     26                     27
                     A                      A                      A
 Frequencies --   604.1532               643.5442               679.7305
 Red. masses --     3.0242                 6.8801                 5.3799
 Frc consts  --     0.6504                 1.6788                 1.4645
 IR Inten    --     0.2702                 1.3388                 2.2733

                    28                     29                     30
                     A                      A                      A
 Frequencies --   684.6337               742.9376               749.0972
 Red. masses --     4.3914                 2.6827                 5.0668
 Frc consts  --     1.2127                 0.8724                 1.6752
 IR Inten    --     1.0694                 6.9513                 3.4751

                    31                     32                     33
                     A                      A                      A
 Frequencies --   767.8153               775.3946               807.6296
 Red. masses --     2.5005                 1.6426                 4.4762
 Frc consts  --     0.8686                 0.5819                 1.7202
 IR Inten    --     5.6769                28.4392                 1.9176

                    34                     35                     36
                     A                      A                      A
 Frequencies --   825.1060               829.8515               836.0930
 Red. masses --     1.4264                 1.6778                 3.5016
 Frc consts  --     0.5722                 0.6808                 1.4422
 IR Inten    --     0.8625                14.6005                 7.4597

                    37                     38                     39
                     A                      A                      A
 Frequencies --   871.8406               886.1474               917.2082
 Red. masses --     1.6348                 1.3340                 1.4504
 Frc consts  --     0.7321                 0.6172                 0.7189
 IR Inten    --    36.8138                 0.5786                16.3592

                    40                     41                     42
                     A                      A                      A
 Frequencies --   932.7771               949.7819               966.1847
 Red. masses --     5.1127                 1.3622                 1.2889
 Frc consts  --     2.6209                 0.7240                 0.7089
 IR Inten    --    22.9069                 0.6760                 0.5436

                    43                     44                     45
                     A                      A                      A
 Frequencies --   968.7476               977.9006               984.0695
 Red. masses --     1.2929                 3.8559                 1.2567
 Frc consts  --     0.7149                 2.1726                 0.7170
 IR Inten    --     0.1179                 1.2593                 0.0567

                    46                     47                     48
                     A                      A                      A
 Frequencies --  1015.9470              1049.9131              1073.3251
 Red. masses --     1.5706                 3.1757                 1.5192
 Frc consts  --     0.9551                 2.0625                 1.0312
 IR Inten    --     1.8210                 1.9336                 2.9529

                    49                     50                     51
                     A                      A                      A
 Frequencies --  1074.4998              1083.7771              1148.9374
 Red. masses --     4.4256                 2.2467                 1.6697
 Frc consts  --     3.0105                 1.5548                 1.2986
 IR Inten    --    53.2794                 1.9569                 1.7972

                    52                     53                     54
                     A                      A                      A
 Frequencies --  1159.8753              1185.0324              1185.1209
 Red. masses --     1.4557                 1.2843                 1.2754
 Frc consts  --     1.1539                 1.0626                 1.0554
 IR Inten    --    19.6764                 0.3827                 0.8415

                    55                     56                     57
                     A                      A                      A
 Frequencies --  1196.9173              1206.5303              1223.0168
 Red. masses --     1.0994                 1.5018                 2.0996
 Frc consts  --     0.9279                 1.2881                 1.8503
 IR Inten    --     0.4662                30.1664                13.0755

                    58                     59                     60
                     A                      A                      A
 Frequencies --  1230.5863              1243.5869              1289.1225
 Red. masses --     1.8179                 1.8054                 3.8623
 Frc consts  --     1.6219                 1.6450                 3.7816
 IR Inten    --     3.7858               124.7397                98.6600

                    61                     62                     63
                     A                      A                      A
 Frequencies --  1304.0237              1309.1580              1312.1612
 Red. masses --     2.1011                 2.1641                 1.6603
 Frc consts  --     2.1050                 2.1853                 1.6843
 IR Inten    --    29.5634                95.5946                 2.5530

                    64                     65                     66
                     A                      A                      A
 Frequencies --  1341.7888              1376.3119              1413.1844
 Red. masses --     4.3137                 1.9817                 4.4178
 Frc consts  --     4.5758                 2.2117                 5.1983
 IR Inten    --     0.1752                 5.9351                 0.3635

                    67                     68                     69
                     A                      A                      A
 Frequencies --  1437.0757              1445.2561              1451.8139
 Red. masses --     3.4947                 1.2598                 4.3582
 Frc consts  --     4.2522                 1.5504                 5.4122
 IR Inten    --    83.8148                 1.7583                 7.5427

                    70                     71                     72
                     A                      A                      A
 Frequencies --  1488.1428              1495.2488              1514.5344
 Red. masses --     1.9400                 1.3273                 1.0812
 Frc consts  --     2.5313                 1.7484                 1.4612
 IR Inten    --     8.6170                13.0673                12.4754

                    73                     74                     75
                     A                      A                      A
 Frequencies --  1519.0500              1520.4896              1532.7401
 Red. masses --     1.0486                 1.4307                 1.5902
 Frc consts  --     1.4256                 1.9487                 2.2011
 IR Inten    --     6.1676                10.9278                17.9252

                    76                     77                     78
                     A                      A                      A
 Frequencies --  1534.0716              1545.6049              1554.2601
 Red. masses --     1.1872                 2.1604                 3.1002
 Frc consts  --     1.6461                 3.0408                 4.4125
 IR Inten    --    58.6585                50.1109                 5.8291

                    79                     80                     81
                     A                      A                      A
 Frequencies --  1622.0708              1629.9275              1659.6611
 Red. masses --     6.4307                 5.9256                 5.4592
 Frc consts  --     9.9690                 9.2752                 8.8596
 IR Inten    --     2.3731                 0.6256                36.7238

                    82                     83                     84
                     A                      A                      A
 Frequencies --  1664.5698              1685.9014              3026.0645
 Red. masses --     5.6928                 6.1169                 1.0346
 Frc consts  --     9.2935                10.2435                 5.5819
 IR Inten    --    57.5633                90.5892                58.0147

                    85                     86                     87
                     A                      A                      A
 Frequencies --  3044.0115              3084.8652              3100.7641
 Red. masses --     1.0428                 1.1066                 1.0940
 Frc consts  --     5.6932                 6.2047                 6.1972
 IR Inten    --    21.9495                42.3128                24.4339

                    88                     89                     90
                     A                      A                      A
 Frequencies --  3134.9541              3158.6455              3173.8244
 Red. masses --     1.1017                 1.0999                 1.0861
 Frc consts  --     6.3794                 6.4657                 6.4460
 IR Inten    --    17.1225                32.2096                11.6090

                    91                     92                     93
                     A                      A                      A
 Frequencies --  3176.8361              3183.6000              3184.6112
 Red. masses --     1.0872                 1.0875                 1.0887
 Frc consts  --     6.4649                 6.4942                 6.5055
 IR Inten    --    11.1380                 6.8494                 3.9401

                    94                     95                     96
                     A                      A                      A
 Frequencies --  3191.1866              3194.6005              3200.3730
 Red. masses --     1.0895                 1.0924                 1.0938
 Frc consts  --     6.5372                 6.5682                 6.6007
 IR Inten    --    17.0742                33.1327                14.0193

                    97                     98                     99
                     A                      A                      A
 Frequencies --  3207.3182              3215.0156              3217.0111
 Red. masses --     1.0975                 1.0895                 1.0937
 Frc consts  --     6.6518                 6.6352                 6.6691
 IR Inten    --    36.6729                15.4027                10.6913

 - Thermochemistry -
 -------------------
 Temperature   298.150 Kelvin.  Pressure   1.00000 Atm.
 Atom     1 has atomic number  6 and mass  12.00000

 Molecular mass:   248.12012 amu.
 Principal axes and moments of inertia in atomic units:
                           1         2         3
     Eigenvalues --  1436.42826********************
           X            0.99996   0.00846  -0.00118
           Y           -0.00845   0.99994   0.00721
           Z            0.00124  -0.00720   0.99997
 This molecule is an asymmetric top.
 Rotational symmetry number  1.
 Warning -- assumption of classical behavior for rotation
           may cause significant error
 Rotational temperatures (Kelvin)      0.06030     0.00778     0.00724
 Rotational constants (GHZ):           1.25641     0.16219     0.15077
 Zero-point vibrational energy     759602.5 (Joules/Mol)
                                  181.54936 (Kcal/Mol)
 Warning -- explicit consideration of  25 degrees of freedom as
           vibrations may cause significant error
 Vibrational temperatures:     53.59    59.41   105.24   131.64   202.37
          (Kelvin)            215.21   239.88   270.04   285.16   342.83
                              356.03   410.82   429.19   540.19   546.48
                              592.74   642.95   671.00   696.26   704.70
                              746.81   767.33   790.66   814.86   869.24
                              925.92   977.98   985.03  1068.92  1077.78
                             1104.71  1115.62  1162.00  1187.14  1193.97
                             1202.95  1254.38  1274.97  1319.66  1342.06
                             1366.52  1390.12  1393.81  1406.98  1415.85
                             1461.72  1510.59  1544.27  1545.96  1559.31
                             1653.06  1668.80  1705.00  1705.12  1722.09
                             1735.93  1759.65  1770.54  1789.24  1854.76
                             1876.20  1883.58  1887.91  1930.53  1980.20
                             2033.25  2067.63  2079.40  2088.83  2141.10
                             2151.33  2179.07  2185.57  2187.64  2205.27
                             2207.18  2223.78  2236.23  2333.80  2345.10
                             2387.88  2394.94  2425.63  4353.83  4379.65
                             4438.43  4461.30  4510.49  4544.58  4566.42
                             4570.75  4580.48  4581.94  4591.40  4596.31
                             4604.62  4614.61  4625.68  4628.56

 Zero-point correction=                           0.289317 (Hartree/Particle)
 Thermal correction to Energy=                    0.305097
 Thermal correction to Enthalpy=                  0.306041
 Thermal correction to Gibbs Free Energy=         0.245817
 Sum of electronic and zero-point Energies=           -770.498222
 Sum of electronic and thermal Energies=              -770.482443
 Sum of electronic and thermal Enthalpies=            -770.481499
 Sum of electronic and thermal Free Energies=         -770.541723

                     E (Thermal)             CV                S
                      KCal/Mol        Cal/Mol-Kelvin    Cal/Mol-Kelvin
 Total                  191.451             63.102            126.752
 Electronic               0.000              0.000              0.000
 Translational            0.889              2.981             42.427
 Rotational               0.889              2.981             33.614
 Vibrational            189.674             57.141             50.711
 Vibration     1          0.594              1.982              5.400
 Vibration     2          0.594              1.981              5.196
 Vibration     3          0.599              1.967              4.067
 Vibration     4          0.602              1.955              3.628
 Vibration     5          0.615              1.913              2.795
 Vibration     6          0.618              1.903              2.678
 Vibration     7          0.624              1.883              2.472
 Vibration     8          0.632              1.857              2.251
 Vibration     9          0.637              1.842              2.150
 Vibration    10          0.656              1.782              1.816
 Vibration    11          0.661              1.767              1.749
 Vibration    12          0.683              1.701              1.500
 Vibration    13          0.691              1.677              1.426
 Vibration    14          0.746              1.522              1.057
 Vibration    15          0.750              1.513              1.040
 Vibration    16          0.776              1.444              0.920
 Vibration    17          0.806              1.368              0.805
 Vibration    18          0.824              1.325              0.748
 Vibration    19          0.840              1.286              0.700
 Vibration    20          0.846              1.273              0.684
 Vibration    21          0.874              1.208              0.612
 Vibration    22          0.888              1.176              0.580
 Vibration    23          0.905              1.141              0.545
 Vibration    24          0.922              1.104              0.511
 Vibration    25          0.963              1.023              0.443

 Optimization completed.
    -- Stationary point found.
 Normal termination of Gaussian 09 at Tue Sep 28 18:56:33 2021.
 Gaussian 09:  AM64L-G09RevA.02 11-Jun-2009

 ----------------------------------------------------------------------
 #p TD(NStates=10, Root=1) b3lyp/6-31G* volume pop=NPA density=current
 Geom=AllCheck Guess=Read
 ----------------------------------------------------------------------

 COc1ccc2c(c1)ccc(c2)c1ccc(cc1)C_conf_0
 --------------------------------------
 Redundant internal coordinates taken from checkpoint file:
 C18H16O_eb3d_conf_0.chk
 Charge =  0 Multiplicity = 1

                         Standard orientation:
 ---------------------------------------------------------------------
 Center     Atomic      Atomic             Coordinates (Angstroms)
 Number     Number       Type             X           Y           Z
 ---------------------------------------------------------------------
      1          6           0       -5.943857   -0.833610    0.355872
      2          8           0       -5.281518    0.311474   -0.156021
      3          6           0       -3.917294    0.307310   -0.175408
      4          6           0       -3.331686    1.492084   -0.703619
      5          6           0       -1.968858    1.616975   -0.778204
      6          6           0       -1.107192    0.574742   -0.331570
      7          6           0       -1.700247   -0.616149    0.194134
      8          6           0       -3.116349   -0.727495    0.264874
      9          6           0       -0.836586   -1.655078    0.630399
     10          6           0        0.530835   -1.522707    0.551057
     11          6           0        1.135519   -0.340390    0.035558
     12          6           0        0.304044    0.679914   -0.396732
     13          6           0        2.620592   -0.254202   -0.065792
     14          6           0        3.303910   -1.308379   -0.696781
     15          6           0        4.689644   -1.304846   -0.833160
     16          6           0        5.424629   -0.234470   -0.324855
     17          6           0        4.760994    0.809875    0.316176
     18          6           0        3.366694    0.827310    0.459587
     19          6           0        2.725847    1.984530    1.195941
     20          1           0       -7.011978   -0.621679    0.281127
     21          1           0       -5.680698   -1.013915    1.406661
     22          1           0       -5.708329   -1.730613   -0.232199
     23          1           0       -3.995813    2.282010   -1.040253
     24          1           0       -1.528264    2.525071   -1.182866
     25          1           0       -3.542633   -1.638947    0.669629
     26          1           0       -1.272604   -2.564880    1.037031
     27          1           0        1.172251   -2.325922    0.903539
     28          1           0        0.733368    1.583769   -0.821123
     29          1           0        2.725726   -2.134302   -1.102954
     30          1           0        5.189036   -2.129984   -1.334017
     31          1           0        6.507306   -0.214697   -0.418216
     32          1           0        5.337546    1.634431    0.730182
     33          1           0        1.857658    1.666496    1.780400
     34          1           0        2.379208    2.768524    0.510149
     35          1           0        3.446522    2.450367    1.876208
 ---------------------------------------------------------------------

 SCF Done:  E(RB3LYP) =  -770.787539820     A.U. after    1 cycles

 Excitation energies and oscillator strengths:

 Excited State   1:      Singlet-A      4.0444 eV  306.55 nm  f=0.0739  <S**2>=0.000
      65 -> 67         0.16807
      65 -> 68        -0.15697
      66 -> 67         0.62482
      66 -> 68         0.20701
 This state for optimization and/or second-order correction.
 Total Energy, E(TD-HF/TD-KS) =  -770.638909334
 Copying the excited state density for this state as the 1-particle RhoCI density.

 Excited State   2:      Singlet-A      4.3384 eV  285.78 nm  f=0.0904  <S**2>=0.000
      65 -> 67         0.40097
      66 -> 67        -0.28043
      66 -> 68         0.49868

 Excited State   3:      Singlet-A      4.8346 eV  256.45 nm  f=0.0455  <S**2>=0.000
      63 -> 69        -0.11233
      64 -> 67         0.55174
      64 -> 68        -0.13520
      65 -> 67         0.18086
      66 -> 69         0.32220

 Excited State   4:      Singlet-A      4.9676 eV  249.59 nm  f=0.5593  <S**2>=0.000
      63 -> 67        -0.26309
      65 -> 67         0.41321
      66 -> 68        -0.33891
      66 -> 69        -0.30124
      66 -> 70        -0.15005

 Excited State   5:      Singlet-A      5.0175 eV  247.10 nm  f=0.1988  <S**2>=0.000
      63 -> 67         0.26605
      64 -> 67        -0.33386
      64 -> 68        -0.13363
      65 -> 67         0.19469
      65 -> 68        -0.11799
      66 -> 68        -0.24827
      66 -> 69         0.34382
      66 -> 70        -0.24044

 Excited State   6:      Singlet-A      5.1191 eV  242.20 nm  f=0.0045  <S**2>=0.000
      63 -> 67         0.56225
      64 -> 67         0.21294
      64 -> 68         0.10812
      66 -> 69        -0.30917
      66 -> 70        -0.12533

 Excited State   7:      Singlet-A      5.3314 eV  232.55 nm  f=0.0499  <S**2>=0.000
      64 -> 68         0.17973
      65 -> 68         0.54093
      66 -> 69         0.13436
      66 -> 70        -0.32714

 Excited State   8:      Singlet-A      5.4205 eV  228.73 nm  f=0.0086  <S**2>=0.000
      63 -> 68         0.17957
      63 -> 69         0.19508
      64 -> 68         0.47110
      64 -> 69        -0.12694
      65 -> 68        -0.20543
      65 -> 69        -0.21957
      66 -> 69         0.24370
      66 -> 70         0.11512

 Excited State   9:      Singlet-A      5.5722 eV  222.51 nm  f=0.1181  <S**2>=0.000
      63 -> 68         0.52597
      64 -> 68        -0.27438
      65 -> 68         0.14312
      65 -> 69        -0.13936
      65 -> 70         0.14816
      66 -> 70         0.21172

 Excited State  10:      Singlet-A      5.6898 eV  217.91 nm  f=0.0180  <S**2>=0.000
      62 -> 67         0.39242
      66 -> 70         0.12095
      66 -> 71         0.55162

 The electronic state is 1-A.
 Alpha  occ. eigenvalues --  -19.17988 -10.24793 -10.24208 -10.19652 -10.19355
 Alpha  occ. eigenvalues --  -10.19262 -10.19187 -10.19162 -10.19140 -10.18764
 Alpha  occ. eigenvalues --  -10.18642 -10.18603 -10.18569 -10.18440 -10.18345
 Alpha  occ. eigenvalues --  -10.18268 -10.18212 -10.18115 -10.17718  -1.06556
 Alpha  occ. eigenvalues --   -0.87114  -0.85173  -0.81717  -0.77385  -0.76295
 Alpha  occ. eigenvalues --   -0.75928  -0.73154  -0.71623  -0.69516  -0.67621
 Alpha  occ. eigenvalues --   -0.62091  -0.61392  -0.59673  -0.58422  -0.56914
 Alpha  occ. eigenvalues --   -0.52929  -0.51409  -0.50725  -0.48520  -0.46945
 Alpha  occ. eigenvalues --   -0.46348  -0.45718  -0.44885  -0.44261  -0.43252
 Alpha  occ. eigenvalues --   -0.42158  -0.41414  -0.40669  -0.40387  -0.40113
 Alpha  occ. eigenvalues --   -0.38868  -0.38023  -0.37509  -0.36187  -0.35405
 Alpha  occ. eigenvalues --   -0.34658  -0.34207  -0.33396  -0.32420  -0.32184
 Alpha  occ. eigenvalues --   -0.29762  -0.27882  -0.24272  -0.23609  -0.22509
 Alpha  occ. eigenvalues --   -0.20012
 Alpha virt. eigenvalues --   -0.03396  -0.01377   0.00610   0.02067   0.03785
 Alpha virt. eigenvalues --    0.09526   0.10006   0.10346   0.10929   0.11406
 Alpha virt. eigenvalues --    0.12170   0.13331   0.14261   0.15312   0.15471

 Mulliken atomic charges:
              1
     1  C   -0.223551
     2  O   -0.473057
     3  C    0.381355
     4  C   -0.195619
     5  C   -0.214815
     6  C    0.155593
     7  C    0.145605
     8  C   -0.278503
     9  C   -0.219226
    10  C   -0.190732
    11  C    0.079833
    12  C   -0.272145
    13  C    0.023654
    14  C   -0.161090
    15  C   -0.135805
    16  C   -0.116156
    17  C   -0.190111
    18  C    0.151588
    19  C   -0.532919
    20  H    0.176423
    21  H    0.164820
    22  H    0.164876
    23  H    0.124264
    24  H    0.119603
    25  H    0.129467
    26  H    0.114164
    27  H    0.118307
    28  H    0.122532
    29  H    0.141720
    30  H    0.132895
    31  H    0.133354
    32  H    0.126284
    33  H    0.177369
    34  H    0.166540
    35  H    0.153486
 Sum of Mulliken atomic charges =  -0.00000

 Dipole moment (field-independent basis, Debye):
    X=             -0.4149    Y=             -1.0530    Z=              0.7077  Tot=              1.3348
 Quadrupole moment (field-independent basis, Debye-Ang):
   XX=            -84.3732   YY=           -103.8705   ZZ=           -113.1458
   XY=              9.5903   XZ=             -4.4052   YZ=              0.0150

 Summary of Natural Population Analysis:

                                       Natural Population
                Natural  -----------------------------------------------
    Atom  No    Charge         Core      Valence    Rydberg      Total
 -----------------------------------------------------------------------
      C    1   -0.32324      1.99943     4.30969    0.01412     6.32324
      O    2   -0.46796      1.99975     6.45641    0.01180     8.46796
      C    3    0.36554      1.99880     3.61306    0.02260     5.63446
      C    4   -0.33185      1.99905     4.31585    0.01695     6.33185
      C    5   -0.23244      1.99907     4.21812    0.01525     6.23244
      C    6   -0.04143      1.99902     4.02720    0.01521     6.04143
      C    7   -0.03145      1.99903     4.01693    0.01548     6.03145
      C    8   -0.30390      1.99899     4.29198    0.01293     6.30390
      C    9   -0.24050      1.99906     4.22582    0.01562     6.24050
      C   10   -0.27251      1.99906     4.25819    0.01526     6.27251
      C   11   -0.00508      1.99902     3.98966    0.01640     6.00508
      C   12   -0.23873      1.99900     4.22490    0.01483     6.23873
      C   13   -0.03370      1.99895     4.01933    0.01542     6.03370
      C   14   -0.20592      1.99904     4.19373    0.01314     6.20592
      C   15   -0.23675      1.99909     4.22373    0.01393     6.23675
      C   16   -0.21149      1.99909     4.19852    0.01389     6.21149
      C   17   -0.23102      1.99904     4.21907    0.01292     6.23102
      C   18   -0.00057      1.99898     3.98832    0.01327     6.00057
      C   19   -0.69363      1.99939     4.68664    0.00760     6.69363
      H   20    0.23145      0.00000     0.76803    0.00052     0.76855
      H   21    0.21123      0.00000     0.78703    0.00174     0.78877
      H   22    0.21127      0.00000     0.78699    0.00174     0.78873
      H   23    0.24090      0.00000     0.75803    0.00107     0.75910
      H   24    0.23044      0.00000     0.76849    0.00107     0.76956
      H   25    0.23219      0.00000     0.76663    0.00118     0.76781
      H   26    0.22656      0.00000     0.77232    0.00113     0.77344
      H   27    0.23340      0.00000     0.76567    0.00092     0.76660
      H   28    0.22899      0.00000     0.76984    0.00117     0.77101
      H   29    0.24389      0.00000     0.75481    0.00130     0.75611
      H   30    0.23844      0.00000     0.76072    0.00084     0.76156
      H   31    0.23699      0.00000     0.76214    0.00087     0.76301
      H   32    0.23416      0.00000     0.76479    0.00105     0.76584
      H   33    0.25340      0.00000     0.74574    0.00086     0.74660
      H   34    0.24504      0.00000     0.75401    0.00095     0.75496
      H   35    0.23826      0.00000     0.76074    0.00100     0.76174
 =======================================================================
   * Total *   -0.00000     37.98284    93.72314    0.29402   132.00000

 Normal termination of Gaussian 09 at Wed Sep 29 00:52:10 2021.
