 Gaussian 09, Revision A.02,

 -----------------------------------
 #p opt b3lyp/6-31G* scf=(xqc,tight)
 -----------------------------------

 ---------------------------------------------
 c1ccc(cc1)b1ob(ob(o1)c1ccccc1)c1ccccc1_conf_0
 ---------------------------------------------
 Symbolic Z-matrix:
 Charge =  0 Multiplicity = 1

 SCF Done:  E(RB3LYP) =  -995.532854944     A.U. after   13 cycles
 SCF Done:  E(RB3LYP) =  -995.538314216     A.U. after   13 cycles
 SCF Done:  E(RB3LYP) =  -995.538466441     A.U. after   13 cycles
 SCF Done:  E(RB3LYP) =  -995.538475338     A.U. after   13 cycles
 SCF Done:  E(RB3LYP) =  -995.538519445     A.U. after   15 cycles
 SCF Done:  E(RB3LYP) =  -995.538485881     A.U. after   11 cycles
 Optimization completed.
    -- Stationary point found.
 Normal termination of Gaussian 09 at Mon Oct  4 01:06:13 2021.

 ----------------------------------------------------------------------
 #p freq b3lyp/6-31G* volume NMR pop=NPA density=current Geom=AllCheck
 Guess=Read
 ----------------------------------------------------------------------

 c1ccc(cc1)b1ob(ob(o1)c1ccccc1)c1ccccc1_conf_0
 ---------------------------------------------
 Redundant internal coordinates taken from checkpoint file:
 C18H15B3O3_1945_conf_0.chk
 Charge =  0 Multiplicity = 1

 SCF Done:  E(RB3LYP) =  -995.538485881     A.U. after    1 cycles

  1  C    Isotropic =    63.6830   Anisotropy =   171.7355

  2  C    Isotropic =    68.9960   Anisotropy =   164.7246

  3  C    Isotropic =    59.4195   Anisotropy =   180.7424

  4  C    Isotropic =    66.8586   Anisotropy =   190.1077

  5  C    Isotropic =    59.4652   Anisotropy =   180.7321

  6  C    Isotropic =    68.9859   Anisotropy =   164.8059

  7  B    Isotropic =    82.6635   Anisotropy =    13.8888

  8  O    Isotropic =   168.9252   Anisotropy =   278.3080

  9  B    Isotropic =    82.6709   Anisotropy =    13.9858

 10  O    Isotropic =   168.9586   Anisotropy =   278.1958

 11  B    Isotropic =    82.6545   Anisotropy =    13.9300

 12  O    Isotropic =   168.8617   Anisotropy =   278.2852

 13  C    Isotropic =    66.8916   Anisotropy =   190.1384

 14  C    Isotropic =    59.4287   Anisotropy =   180.7427

 15  C    Isotropic =    68.9919   Anisotropy =   164.8158

 16  C    Isotropic =    63.6823   Anisotropy =   171.6272

 17  C    Isotropic =    68.9780   Anisotropy =   164.7878

 18  C    Isotropic =    59.4403   Anisotropy =   180.7534

 19  C    Isotropic =    66.8139   Anisotropy =   190.0356

 20  C    Isotropic =    59.4505   Anisotropy =   180.8479

 21  C    Isotropic =    68.9777   Anisotropy =   164.6581

 22  C    Isotropic =    63.6886   Anisotropy =   171.7828

 23  C    Isotropic =    68.9640   Anisotropy =   164.7111

 24  C    Isotropic =    59.4922   Anisotropy =   180.7872

 25  H    Isotropic =    24.7369   Anisotropy =     4.7355

 26  H    Isotropic =    24.8037   Anisotropy =     5.3696

 27  H    Isotropic =    23.8761   Anisotropy =     9.0596

 28  H    Isotropic =    23.8837   Anisotropy =     9.0519

 29  H    Isotropic =    24.7951   Anisotropy =     5.3756

 30  H    Isotropic =    23.8755   Anisotropy =     9.0671

 31  H    Isotropic =    24.7992   Anisotropy =     5.3780

 32  H    Isotropic =    24.7442   Anisotropy =     4.7226

 33  H    Isotropic =    24.7960   Anisotropy =     5.3743

 34  H    Isotropic =    23.8736   Anisotropy =     9.0713

 35  H    Isotropic =    23.8829   Anisotropy =     9.0464

 36  H    Isotropic =    24.8045   Anisotropy =     5.3689

 37  H    Isotropic =    24.7380   Anisotropy =     4.7371

 38  H    Isotropic =    24.7974   Anisotropy =     5.3794

 39  H    Isotropic =    23.8877   Anisotropy =     9.0395

  Exact polarizability: 298.039   0.002 298.017   0.003   0.001  77.860
 Approx polarizability: 441.390  -0.000 441.378   0.006   0.003 125.451

                     1                      2                      3
                     A                      A                      A
 Frequencies --    29.7632                31.3824                34.6619
 Red. masses --     3.8779                 3.9631                 5.8811
 Frc consts  --     0.0020                 0.0023                 0.0042
 IR Inten    --     0.0016                 0.0230                 0.3742

                     4                      5                      6
                     A                      A                      A
 Frequencies --    36.0786                52.4870                52.8340
 Red. masses --     3.8043                 5.2277                 5.2270
 Frc consts  --     0.0029                 0.0085                 0.0086
 IR Inten    --     0.0361                 0.0604                 0.0600

                     7                      8                      9
                     A                      A                      A
 Frequencies --    88.5901                89.8457               140.0853
 Red. masses --     7.0634                 7.0323                 4.9809
 Frc consts  --     0.0327                 0.0334                 0.0576
 IR Inten    --     0.0000                 0.0000                 0.0001

                    10                     11                     12
                     A                      A                      A
 Frequencies --   167.8431               168.2344               192.0033
 Red. masses --     6.7808                 6.8065                 5.7709
 Frc consts  --     0.1125                 0.1135                 0.1253
 IR Inten    --     0.0000                 0.0000                 0.5655

                    13                     14                     15
                     A                      A                      A
 Frequencies --   219.2586               245.6366               245.8743
 Red. masses --     6.6115                 5.7082                 5.7100
 Frc consts  --     0.1873                 0.2029                 0.2034
 IR Inten    --     0.0000                 0.4807                 0.4856

                    16                     17                     18
                     A                      A                      A
 Frequencies --   364.8780               365.5386               412.2952
 Red. masses --     7.9402                 7.9400                 2.9117
 Frc consts  --     0.6228                 0.6251                 0.2916
 IR Inten    --     1.0623                 1.0242                 0.0001

                    19                     20                     21
                     A                      A                      A
 Frequencies --   413.0112               413.1881               432.8247
 Red. masses --     2.9227                 2.9231                 3.9653
 Frc consts  --     0.2937                 0.2940                 0.4377
 IR Inten    --     0.0000                 0.0000                 0.0000

                    22                     23                     24
                     A                      A                      A
 Frequencies --   433.1441               456.4780               515.4923
 Red. masses --     3.9665                 3.8135                 8.7356
 Frc consts  --     0.4384                 0.4682                 1.3677
 IR Inten    --     0.0000                 0.6570                 0.0005

                    25                     26                     27
                     A                      A                      A
 Frequencies --   589.5310               589.7329               633.3755
 Red. masses --     9.1964                 9.1939                 6.4434
 Frc consts  --     1.8831                 1.8839                 1.5230
 IR Inten    --    41.1381                41.0385                 0.0006

                    28                     29                     30
                     A                      A                      A
 Frequencies --   634.2391               634.2767               645.7987
 Red. masses --     6.4323                 6.4324                 5.5795
 Frc consts  --     1.5245                 1.5247                 1.3710
 IR Inten    --     1.0971                 1.1055                 0.0001

                    31                     32                     33
                     A                      A                      A
 Frequencies --   645.9079               674.4172               705.7409
 Red. masses --     5.5742                 6.6750                 5.0201
 Frc consts  --     1.3702                 1.7888                 1.4732
 IR Inten    --     0.0004                 0.0000                11.1834

                    34                     35                     36
                     A                      A                      A
 Frequencies --   713.3549               713.5843               719.9432
 Red. masses --     1.7219                 1.7230                 1.5987
 Frc consts  --     0.5163                 0.5169                 0.4882
 IR Inten    --     0.0656                 0.0477               229.5526

                    37                     38                     39
                     A                      A                      A
 Frequencies --   775.1634               775.3027               783.8995
 Red. masses --     7.2803                 7.2784                 2.0218
 Frc consts  --     2.5774                 2.5777                 0.7320
 IR Inten    --     5.3327                 5.4359                 0.0000

                    40                     41                     42
                     A                      A                      A
 Frequencies --   783.9419               792.8418               807.6403
 Red. masses --     2.0215                 2.4864                15.9270
 Frc consts  --     0.7320                 0.9209                 6.1210
 IR Inten    --     0.0004                 3.4286                 0.0001

                    43                     44                     45
                     A                      A                      A
 Frequencies --   875.2383               876.3058               876.5016
 Red. masses --     1.2473                 1.2465                 1.2465
 Frc consts  --     0.5629                 0.5640                 0.5642
 IR Inten    --     0.0001                 0.0000                 0.0001

                    46                     47                     48
                     A                      A                      A
 Frequencies --   953.1953               953.4667               954.6679
 Red. masses --     1.3671                 1.3668                 1.3664
 Frc consts  --     0.7319                 0.7321                 0.7337
 IR Inten    --     0.0103                 0.0211                 1.4143

                    49                     50                     51
                     A                      A                      A
 Frequencies --   985.8881               987.0691               987.2453
 Red. masses --     1.3666                 1.3645                 1.3641
 Frc consts  --     0.7826                 0.7833                 0.7833
 IR Inten    --     0.0002                 0.0000                 0.0000

                    52                     53                     54
                     A                      A                      A
 Frequencies --  1008.5961              1008.6672              1009.1252
 Red. masses --     1.2659                 1.2658                 1.2648
 Frc consts  --     0.7587                 0.7588                 0.7589
 IR Inten    --     0.0000                 0.0004                 0.0407

                    55                     56                     57
                     A                      A                      A
 Frequencies --  1017.0570              1017.0764              1018.6168
 Red. masses --     6.3395                 6.3411                 6.3581
 Frc consts  --     3.8636                 3.8648                 3.8869
 IR Inten    --     3.9956                 3.9968                 0.0003

                    58                     59                     60
                     A                      A                      A
 Frequencies --  1024.7283              1053.5242              1053.6171
 Red. masses --     8.0068                 2.8876                 2.8768
 Frc consts  --     4.9537                 1.8883                 1.8816
 IR Inten    --     0.0000                17.8106                17.5821

                    61                     62                     63
                     A                      A                      A
 Frequencies --  1068.2755              1095.4740              1095.9065
 Red. masses --     1.9044                 2.2311                 2.2261
 Frc consts  --     1.2805                 1.5775                 1.5753
 IR Inten    --     0.0003                 0.3633                 0.2935

                    64                     65                     66
                     A                      A                      A
 Frequencies --  1107.4399              1119.1801              1119.5359
 Red. masses --     1.6395                 2.2695                 2.2790
 Frc consts  --     1.1847                 1.6749                 1.6829
 IR Inten    --     0.0057                28.7298                28.2245

                    67                     68                     69
                     A                      A                      A
 Frequencies --  1181.5412              1194.3229              1194.4320
 Red. masses --    10.9987                 1.1087                 1.1058
 Frc consts  --     9.0467                 0.9317                 0.9295
 IR Inten    --     0.0005                 0.0274                 1.0250

                    70                     71                     72
                     A                      A                      A
 Frequencies --  1194.4508              1214.9161              1215.2512
 Red. masses --     1.1059                 1.1405                 1.1409
 Frc consts  --     0.9296                 0.9918                 0.9927
 IR Inten    --     1.0126                42.4358                42.1465

                    73                     74                     75
                     A                      A                      A
 Frequencies --  1218.3790              1302.2535              1302.4531
 Red. masses --     1.1454                 4.8104                 4.8037
 Frc consts  --     1.0018                 4.8064                 4.8012
 IR Inten    --     0.2467                16.2743                16.7543

                    76                     77                     78
                     A                      A                      A
 Frequencies --  1337.2711              1344.8352              1345.5398
 Red. masses --     2.8290                 3.1946                 3.2632
 Frc consts  --     2.9807                 3.4041                 3.4809
 IR Inten    --     0.0744               276.0647               283.2624

                    79                     80                     81
                     A                      A                      A
 Frequencies --  1367.3380              1368.5258              1368.7090
 Red. masses --     1.9108                 1.8951                 1.8738
 Frc consts  --     2.1049                 2.0912                 2.0682
 IR Inten    --     0.5711                33.8820                30.8263

                    82                     83                     84
                     A                      A                      A
 Frequencies --  1370.8396              1386.2218              1386.5252
 Red. masses --     4.8334                 8.5914                 8.5130
 Frc consts  --     5.3515                 9.7271                 9.6425
 IR Inten    --     0.0003              1871.1891              1870.5444

                    85                     86                     87
                     A                      A                      A
 Frequencies --  1483.1489              1486.5089              1486.8247
 Red. masses --     2.1350                 2.2054                 2.2099
 Frc consts  --     2.7671                 2.8712                 2.8783
 IR Inten    --     0.3254                88.2390                88.7772

                    88                     89                     90
                     A                      A                      A
 Frequencies --  1544.0743              1544.3160              1547.7302
 Red. masses --     2.2195                 2.2218                 2.3148
 Frc consts  --     3.1178                 3.1219                 3.2670
 IR Inten    --    16.4431                16.2685                 0.0422

                    91                     92                     93
                     A                      A                      A
 Frequencies --  1630.3609              1632.4444              1632.5538
 Red. masses --     5.0154                 5.0333                 5.0399
 Frc consts  --     7.8545                 7.9027                 7.9143
 IR Inten    --     0.0043                 5.5514                 5.4170

                    94                     95                     96
                     A                      A                      A
 Frequencies --  1661.7343              1661.8241              1663.2239
 Red. masses --     5.4028                 5.4062                 5.4531
 Frc consts  --     8.7901                 8.7966                 8.8879
 IR Inten    --    70.3256                70.3750                 0.1441

                    97                     98                     99
                     A                      A                      A
 Frequencies --  3179.0733              3179.0864              3179.1131
 Red. masses --     1.0848                 1.0848                 1.0848
 Frc consts  --     6.4597                 6.4598                 6.4598
 IR Inten    --     0.1261                 0.1113                 0.0184

                   100                    101                    102
                     A                      A                      A
 Frequencies --  3188.4407              3188.5093              3188.5855
 Red. masses --     1.0875                 1.0875                 1.0875
 Frc consts  --     6.5136                 6.5141                 6.5146
 IR Inten    --     1.4208                 4.2793                 4.4362

                   103                    104                    105
                     A                      A                      A
 Frequencies --  3197.4466              3197.5227              3197.5840
 Red. masses --     1.0912                 1.0912                 1.0912
 Frc consts  --     6.5729                 6.5733                 6.5735
 IR Inten    --    36.0812                35.8461                 2.2513

                   106                    107                    108
                     A                      A                      A
 Frequencies --  3204.9972              3205.2010              3205.3444
 Red. masses --     1.0936                 1.0936                 1.0936
 Frc consts  --     6.6185                 6.6194                 6.6200
 IR Inten    --     4.4698                56.7442                52.2995

                   109                    110                    111
                     A                      A                      A
 Frequencies --  3210.5025              3210.5656              3210.7736
 Red. masses --     1.0974                 1.0974                 1.0974
 Frc consts  --     6.6647                 6.6648                 6.6658
 IR Inten    --    22.7093                21.1670                 0.7682

 - Thermochemistry -
 -------------------
 Temperature   298.150 Kelvin.  Pressure   1.00000 Atm.
 Atom     1 has atomic number  6 and mass  12.00000

 Molecular mass:   312.13004 amu.
 Principal axes and moments of inertia in atomic units:
                           1         2         3
     Eigenvalues --  9163.700499165.68999**********
           X            1.00000  -0.00139   0.00000
           Y            0.00139   1.00000  -0.00000
           Z           -0.00000   0.00000   1.00000
 This molecule is an asymmetric top.
 Rotational symmetry number  1.
 Warning -- assumption of classical behavior for rotation
           may cause significant error
 Rotational temperatures (Kelvin)      0.00945     0.00945     0.00473
 Rotational constants (GHZ):           0.19694     0.19690     0.09846
 Zero-point vibrational energy     793709.2 (Joules/Mol)
                                  189.70105 (Kcal/Mol)
 Warning -- explicit consideration of  26 degrees of freedom as
           vibrations may cause significant error
 Vibrational temperatures:     42.82    45.15    49.87    51.91    75.52
          (Kelvin)             76.02   127.46   129.27   201.55   241.49
                              242.05   276.25   315.46   353.42   353.76
                              524.98   525.93   593.20   594.23   594.48
                              622.74   623.20   656.77   741.68   848.20
                              848.49   911.29   912.53   912.58   929.16
                              929.32   970.33  1015.40  1026.36  1026.69
                             1035.84  1115.29  1115.49  1127.86  1127.92
                             1140.72  1162.01  1259.27  1260.81  1261.09
                             1371.43  1371.82  1373.55  1418.47  1420.17
                             1420.42  1451.14  1451.25  1451.90  1463.32
                             1463.34  1465.56  1474.35  1515.78  1515.92
                             1537.01  1576.14  1576.76  1593.36  1610.25
                             1610.76  1699.97  1718.36  1718.52  1718.55
                             1747.99  1748.47  1752.97  1873.65  1873.94
                             1924.03  1934.92  1935.93  1967.29  1969.00
                             1969.26  1972.33  1994.46  1994.90  2133.92
                             2138.75  2139.21  2221.58  2221.92  2226.84
                             2345.72  2348.72  2348.88  2390.86  2390.99
                             2393.01  4573.97  4573.99  4574.03  4587.45
                             4587.55  4587.66  4600.41  4600.52  4600.60
                             4611.27  4611.56  4611.77  4619.19  4619.28
                             4619.58

 Zero-point correction=                           0.302308 (Hartree/Particle)
 Thermal correction to Energy=                    0.321597
 Thermal correction to Enthalpy=                  0.322541
 Thermal correction to Gibbs Free Energy=         0.251181
 Sum of electronic and zero-point Energies=           -995.236178
 Sum of electronic and thermal Energies=              -995.216889
 Sum of electronic and thermal Enthalpies=            -995.215945
 Sum of electronic and thermal Free Energies=         -995.287305

                     E (Thermal)             CV                S
                      KCal/Mol        Cal/Mol-Kelvin    Cal/Mol-Kelvin
 Total                  201.805             74.826            150.189
 Electronic               0.000              0.000              0.000
 Translational            0.889              2.981             43.111
 Rotational               0.889              2.981             35.686
 Vibrational            200.028             68.864             71.393
 Vibration     1          0.594              1.984              5.845
 Vibration     2          0.594              1.983              5.740
 Vibration     3          0.594              1.983              5.543
 Vibration     4          0.594              1.982              5.464
 Vibration     5          0.596              1.977              4.721
 Vibration     6          0.596              1.976              4.708
 Vibration     7          0.601              1.957              3.691
 Vibration     8          0.602              1.956              3.663
 Vibration     9          0.615              1.913              2.803
 Vibration    10          0.625              1.882              2.460
 Vibration    11          0.625              1.882              2.455
 Vibration    12          0.634              1.851              2.208
 Vibration    13          0.647              1.812              1.965
 Vibration    14          0.660              1.770              1.762
 Vibration    15          0.660              1.770              1.760
 Vibration    16          0.738              1.545              1.101
 Vibration    17          0.739              1.543              1.098
 Vibration    18          0.776              1.444              0.919
 Vibration    19          0.777              1.442              0.916
 Vibration    20          0.777              1.442              0.915
 Vibration    21          0.794              1.399              0.849
 Vibration    22          0.794              1.398              0.848
 Vibration    23          0.815              1.347              0.776
 Vibration    24          0.871              1.216              0.621
 Vibration    25          0.947              1.054              0.468
 Vibration    26          0.947              1.054              0.468

 Normal termination of Gaussian 09 at Mon Oct  4 05:54:04 2021.
 Gaussian 09:  AM64L-G09RevA.02 11-Jun-2009

 ----------------------------------------------------------------------
 #p TD(NStates=10, Root=1) b3lyp/6-31G* volume pop=NPA density=current
 Geom=AllCheck Guess=Read
 ----------------------------------------------------------------------

 c1ccc(cc1)b1ob(ob(o1)c1ccccc1)c1ccccc1_conf_0
 ---------------------------------------------
 Redundant internal coordinates taken from checkpoint file:
 C18H15B3O3_1945_conf_0.chk
 Charge =  0 Multiplicity = 1

                         Standard orientation:
 ---------------------------------------------------------------------
 Center     Atomic      Atomic             Coordinates (Angstroms)
 Number     Number       Type             X           Y           Z
 ---------------------------------------------------------------------
      1          6           0        4.457267   -3.649025    0.000017
      2          6           0        4.683822   -2.270233    0.000111
      3          6           0        3.603104   -1.390069    0.000089
      4          6           0        2.278687   -1.865660   -0.000022
      5          6           0        2.074060   -3.257881   -0.000113
      6          6           0        3.150344   -4.143461   -0.000096
      7          5           0        1.077251   -0.882119   -0.000047
      8          8           0        1.285765    0.485449    0.000082
      9          5           0        0.225198    1.373803    0.000152
     10          8           0       -1.063474    0.870542    0.000047
     11          5           0       -1.302555   -0.492085   -0.000110
     12          8           0       -0.222363   -1.356515   -0.000126
     13          6           0       -2.755175   -1.040418   -0.000041
     14          6           0       -3.858445   -0.166876    0.000065
     15          6           0       -5.163632   -0.655931    0.000128
     16          6           0       -5.389262   -2.034878    0.000087
     17          6           0       -4.308614   -2.920675   -0.000019
     18          6           0       -3.005901   -2.425078   -0.000080
     19          6           0        0.476514    2.905977    0.000050
     20          6           0        1.784612    3.424722    0.000108
     21          6           0        2.013583    4.799554    0.000041
     22          6           0        0.932052    5.684297   -0.000091
     23          6           0       -0.375384    5.191225   -0.000154
     24          6           0       -0.597448    3.815261   -0.000084
     25          1           0        5.298536   -4.337759    0.000031
     26          1           0        5.700624   -1.886052    0.000198
     27          1           0        3.779717   -0.317847    0.000158
     28          1           0        1.057777   -3.642575   -0.000199
     29          1           0        2.974561   -5.216117   -0.000170
     30          1           0       -3.683578    0.905630    0.000099
     31          1           0       -6.004481    0.032887    0.000209
     32          1           0       -6.406426   -2.418870    0.000136
     33          1           0       -4.484446   -3.993321   -0.000052
     34          1           0       -2.165837   -3.114388   -0.000161
     35          1           0        2.625864    2.736871    0.000217
     36          1           0        3.030486    5.183469    0.000091
     37          1           0        1.107949    6.757209   -0.000145
     38          1           0       -1.216408    5.879826   -0.000255
     39          1           0       -1.614337    3.432135   -0.000127
 ---------------------------------------------------------------------

 SCF Done:  E(RB3LYP) =  -995.538485881     A.U. after    1 cycles

 Excitation energies and oscillator strengths:

 Excited State   1:      Singlet-A      4.9343 eV  251.27 nm  f=0.0000  <S**2>=0.000
      76 -> 86         0.14788
      77 -> 87         0.14659
      78 -> 84        -0.12122
      79 -> 82         0.40668
      79 -> 83        -0.19465
      80 -> 82         0.20087
      80 -> 83         0.40819
      81 -> 85         0.16960
 This state for optimization and/or second-order correction.
 Total Energy, E(TD-HF/TD-KS) =  -995.357154988
 Copying the excited state density for this state as the 1-particle RhoCI density.

 Excited State   2:      Singlet-A      4.9448 eV  250.73 nm  f=0.0075  <S**2>=0.000
      76 -> 85         0.14270
      78 -> 82         0.34087
      78 -> 83         0.27541
      79 -> 83         0.31609
      80 -> 82         0.30687
      80 -> 84        -0.10878
      81 -> 86         0.14354

 Excited State   3:      Singlet-A      4.9450 eV  250.73 nm  f=0.0075  <S**2>=0.000
      77 -> 85        -0.13947
      78 -> 82        -0.29978
      78 -> 83         0.34395
      79 -> 82         0.29409
      79 -> 84         0.10874
      80 -> 83        -0.29987
      81 -> 87        -0.14413

 Excited State   4:      Singlet-A      5.1653 eV  240.03 nm  f=0.1188  <S**2>=0.000
      78 -> 83         0.15563
      79 -> 82        -0.15876
      79 -> 83        -0.10366
      80 -> 82        -0.11283
      80 -> 83         0.16254
      81 -> 82         0.58878
      81 -> 83         0.17955

 Excited State   5:      Singlet-A      5.1657 eV  240.02 nm  f=0.1182  <S**2>=0.000
      78 -> 82        -0.15572
      79 -> 82        -0.12267
      79 -> 83         0.16060
      80 -> 82         0.16291
      80 -> 83         0.10903
      81 -> 82        -0.17892
      81 -> 83         0.58462

 Excited State   6:      Singlet-A      5.1800 eV  239.35 nm  f=0.0001  <S**2>=0.000
      79 -> 82        -0.21446
      79 -> 83        -0.44087
      80 -> 82         0.45588
      80 -> 83        -0.22099

 Excited State   7:      Singlet-A      5.1874 eV  239.01 nm  f=0.0629  <S**2>=0.000
      78 -> 82         0.45487
      79 -> 82         0.28114
      79 -> 83        -0.13681
      80 -> 82        -0.12436
      80 -> 83        -0.26924
      81 -> 83         0.28835

 Excited State   8:      Singlet-A      5.1876 eV  239.00 nm  f=0.0607  <S**2>=0.000
      78 -> 82         0.10365
      78 -> 83         0.47346
      79 -> 82        -0.13869
      79 -> 83        -0.26281
      80 -> 82        -0.25145
      80 -> 83         0.13329
      81 -> 82        -0.28114

 Excited State   9:      Singlet-A      5.2447 eV  236.40 nm  f=0.0000  <S**2>=0.000
      76 -> 82        -0.14115
      76 -> 83         0.47470
      77 -> 82         0.47870
      77 -> 83         0.14044

 Excited State  10:      Singlet-A      5.2952 eV  234.14 nm  f=0.3197  <S**2>=0.000
      76 -> 82         0.47315
      77 -> 83         0.47300
      81 -> 83         0.14904

 The electronic state is 1-A.
 Alpha  occ. eigenvalues --  -19.16411 -19.16410 -19.16409 -10.19479 -10.19478
 Alpha  occ. eigenvalues --  -10.19478 -10.19040 -10.19040 -10.19040 -10.19040
 Alpha  occ. eigenvalues --  -10.19039 -10.19039 -10.18933 -10.18932 -10.18932
 Alpha  occ. eigenvalues --  -10.18931 -10.18930 -10.18930 -10.17113 -10.17112
 Alpha  occ. eigenvalues --  -10.17111  -6.80086  -6.80085  -6.80084  -1.06448
 Alpha  occ. eigenvalues --   -1.00617  -1.00615  -0.84818  -0.84818  -0.84780
 Alpha  occ. eigenvalues --   -0.74359  -0.74358  -0.74238  -0.74189  -0.74189
 Alpha  occ. eigenvalues --   -0.74078  -0.61561  -0.61560  -0.60308  -0.59894
 Alpha  occ. eigenvalues --   -0.59863  -0.59863  -0.56214  -0.56213  -0.52479
 Alpha  occ. eigenvalues --   -0.52333  -0.50779  -0.50779  -0.46902  -0.45588
 Alpha  occ. eigenvalues --   -0.45185  -0.45184  -0.44420  -0.44008  -0.44007
 Alpha  occ. eigenvalues --   -0.43420  -0.41913  -0.41912  -0.41705  -0.40243
 Alpha  occ. eigenvalues --   -0.40241  -0.40091  -0.37360  -0.37359  -0.35991
 Alpha  occ. eigenvalues --   -0.35283  -0.35282  -0.34726  -0.34725  -0.33865
 Alpha  occ. eigenvalues --   -0.33865  -0.33739  -0.33567  -0.31136  -0.31135
 Alpha  occ. eigenvalues --   -0.25391  -0.25390  -0.24940  -0.24923  -0.24923
 Alpha  occ. eigenvalues --   -0.24876
 Alpha virt. eigenvalues --   -0.04232  -0.04231  -0.01657   0.00181   0.00188
 Alpha virt. eigenvalues --    0.00188   0.06906   0.06907   0.08215   0.09891
 Alpha virt. eigenvalues --    0.09892   0.10631   0.12766   0.12767   0.12799

 Mulliken atomic charges:
              1
     1  C   -0.138939
     2  C   -0.112256
     3  C   -0.191027
     4  C    0.086494
     5  C   -0.191033
     6  C   -0.112282
     7  B    0.353302
     8  O   -0.395076
     9  B    0.353410
    10  O   -0.394973
    11  B    0.352127
    12  O   -0.395069
    13  C    0.086735
    14  C   -0.190774
    15  C   -0.111757
    16  C   -0.139251
    17  C   -0.111864
    18  C   -0.190715
    19  C    0.086217
    20  C   -0.190830
    21  C   -0.112276
    22  C   -0.139056
    23  C   -0.112192
    24  C   -0.190956
    25  H    0.132076
    26  H    0.136361
    27  H    0.147631
    28  H    0.147442
    29  H    0.136305
    30  H    0.148222
    31  H    0.136931
    32  H    0.132415
    33  H    0.136935
    34  H    0.148164
    35  H    0.147518
    36  H    0.136338
    37  H    0.132060
    38  H    0.136278
    39  H    0.147363
 Sum of Mulliken atomic charges =  -0.00000

 Dipole moment (field-independent basis, Debye):
    X=             -0.0778    Y=             -0.0325    Z=              0.0000  Tot=              0.0844
 Quadrupole moment (field-independent basis, Debye-Ang):
   XX=           -112.4523   YY=           -112.7520   ZZ=           -140.9424
   XY=              0.1198   XZ=              0.0004   YZ=              0.0001

 Summary of Natural Population Analysis:

                                       Natural Population
                Natural  -----------------------------------------------
    Atom  No    Charge         Core      Valence    Rydberg      Total
 -----------------------------------------------------------------------
      C    1   -0.25022      1.99912     4.23636    0.01474     6.25022
      C    2   -0.20890      1.99910     4.19539    0.01441     6.20890
      C    3   -0.16289      1.99911     4.14967    0.01411     6.16289
      C    4   -0.42000      1.99897     4.40416    0.01687     6.42000
      C    5   -0.16282      1.99911     4.14960    0.01411     6.16282
      C    6   -0.20899      1.99910     4.19548    0.01441     6.20899
      B    7    1.11842      1.99887     1.85653    0.02618     3.88158
      O    8   -0.89335      1.99974     6.88722    0.00639     8.89335
      B    9    1.11840      1.99887     1.85656    0.02617     3.88160
      O   10   -0.89314      1.99974     6.88701    0.00638     8.89314
      B   11    1.11643      1.99887     1.85852    0.02618     3.88357
      O   12   -0.89316      1.99974     6.88704    0.00638     8.89316
      C   13   -0.41969      1.99897     4.40382    0.01690     6.41969
      C   14   -0.16184      1.99911     4.14859    0.01414     6.16184
      C   15   -0.20743      1.99911     4.19390    0.01443     6.20743
      C   16   -0.25134      1.99912     4.23744    0.01478     6.25134
      C   17   -0.20742      1.99911     4.19388    0.01443     6.20742
      C   18   -0.16186      1.99911     4.14861    0.01414     6.16186
      C   19   -0.42007      1.99897     4.40423    0.01687     6.42007
      C   20   -0.16292      1.99911     4.14970    0.01411     6.16292
      C   21   -0.20891      1.99910     4.19540    0.01440     6.20891
      C   22   -0.25025      1.99912     4.23639    0.01474     6.25025
      C   23   -0.20901      1.99910     4.19550    0.01441     6.20901
      C   24   -0.16283      1.99911     4.14962    0.01410     6.16283
      H   25    0.23532      0.00000     0.76384    0.00084     0.76468
      H   26    0.23533      0.00000     0.76377    0.00090     0.76467
      H   27    0.24091      0.00000     0.75761    0.00148     0.75909
      H   28    0.24083      0.00000     0.75769    0.00148     0.75917
      H   29    0.23531      0.00000     0.76379    0.00090     0.76469
      H   30    0.24106      0.00000     0.75746    0.00148     0.75894
      H   31    0.23544      0.00000     0.76366    0.00090     0.76456
      H   32    0.23548      0.00000     0.76368    0.00084     0.76452
      H   33    0.23544      0.00000     0.76366    0.00090     0.76456
      H   34    0.24104      0.00000     0.75748    0.00148     0.75896
      H   35    0.24088      0.00000     0.75764    0.00148     0.75912
      H   36    0.23532      0.00000     0.76378    0.00090     0.76468
      H   37    0.23532      0.00000     0.76384    0.00084     0.76468
      H   38    0.23529      0.00000     0.76380    0.00090     0.76471
      H   39    0.24080      0.00000     0.75772    0.00148     0.75920
 =======================================================================
   * Total *   -0.00000     47.97938   113.64003    0.38059   162.00000

 Normal termination of Gaussian 09 at Mon Oct  4 17:28:20 2021.
