 Gaussian 09, Revision A.02,

 -----------------------------------
 #p opt b3lyp/6-31G* scf=(xqc,tight)
 -----------------------------------

 --------------------------------------
 COc1ccc2c(c1)cc(cc2)c1ccc(cc1)C_conf_0
 --------------------------------------
 Symbolic Z-matrix:
 Charge =  0 Multiplicity = 1

 SCF Done:  E(RB3LYP) =  -770.784227647     A.U. after   14 cycles
 SCF Done:  E(RB3LYP) =  -770.789255265     A.U. after   12 cycles
 SCF Done:  E(RB3LYP) =  -770.789622805     A.U. after   12 cycles
 SCF Done:  E(RB3LYP) =  -770.789650441     A.U. after   10 cycles
 SCF Done:  E(RB3LYP) =  -770.789654264     A.U. after    8 cycles
 SCF Done:  E(RB3LYP) =  -770.789654858     A.U. after    8 cycles
 SCF Done:  E(RB3LYP) =  -770.789655167     A.U. after    7 cycles
 SCF Done:  E(RB3LYP) =  -770.789655894     A.U. after    9 cycles
 SCF Done:  E(RB3LYP) =  -770.789657589     A.U. after    9 cycles
 SCF Done:  E(RB3LYP) =  -770.789658805     A.U. after   10 cycles
 SCF Done:  E(RB3LYP) =  -770.789660627     A.U. after    9 cycles
 SCF Done:  E(RB3LYP) =  -770.789661186     A.U. after    9 cycles
 SCF Done:  E(RB3LYP) =  -770.789661358     A.U. after    9 cycles
 SCF Done:  E(RB3LYP) =  -770.789661282     A.U. after    9 cycles
 SCF Done:  E(RB3LYP) =  -770.789661301     A.U. after    7 cycles
 Optimization completed.
    -- Stationary point found.
 Normal termination of Gaussian 09 at Tue Sep 28 18:37:56 2021.

 ----------------------------------------------------------------------
 #p freq b3lyp/6-31G* volume NMR pop=NPA density=current Geom=AllCheck
 Guess=Read
 ----------------------------------------------------------------------

 COc1ccc2c(c1)cc(cc2)c1ccc(cc1)C_conf_0
 --------------------------------------
 Redundant internal coordinates taken from checkpoint file:
 C18H16O_c748_conf_0.chk
 Charge =  0 Multiplicity = 1

 SCF Done:  E(RB3LYP) =  -770.789661301     A.U. after    1 cycles

  1  C    Isotropic =   137.3454   Anisotropy =    65.2831

  2  O    Isotropic =   240.2947   Anisotropy =    70.4626

  3  C    Isotropic =    40.8284   Anisotropy =   122.2278

  4  C    Isotropic =    84.9740   Anisotropy =   144.2100

  5  C    Isotropic =    66.4515   Anisotropy =   144.1316

  6  C    Isotropic =    68.9524   Anisotropy =   189.6865

  7  C    Isotropic =    61.6743   Anisotropy =   193.0482

  8  C    Isotropic =    81.8450   Anisotropy =   112.3433

  9  C    Isotropic =    70.2730   Anisotropy =   130.2813

 10  C    Isotropic =    55.4821   Anisotropy =   171.1094

 11  C    Isotropic =    72.3498   Anisotropy =   145.0282

 12  C    Isotropic =    67.1759   Anisotropy =   143.1076

 13  C    Isotropic =    55.9949   Anisotropy =   173.6927

 14  C    Isotropic =    68.3721   Anisotropy =   152.7919

 15  C    Isotropic =    66.7574   Anisotropy =   147.0019

 16  C    Isotropic =    59.6878   Anisotropy =   177.6213

 17  C    Isotropic =    66.8190   Anisotropy =   149.4970

 18  C    Isotropic =    68.2852   Anisotropy =   151.1726

 19  C    Isotropic =   167.7793   Anisotropy =    34.5286

 20  H    Isotropic =    28.2077   Anisotropy =     8.3355

 21  H    Isotropic =    28.4984   Anisotropy =     8.4312

 22  H    Isotropic =    28.4891   Anisotropy =     8.4064

 23  H    Isotropic =    25.3671   Anisotropy =     7.8354

 24  H    Isotropic =    24.6014   Anisotropy =     7.1298

 25  H    Isotropic =    25.1482   Anisotropy =     8.8762

 26  H    Isotropic =    24.6146   Anisotropy =    11.0260

 27  H    Isotropic =    24.8573   Anisotropy =     8.7200

 28  H    Isotropic =    24.6309   Anisotropy =     7.1066

 29  H    Isotropic =    24.8441   Anisotropy =     8.9268

 30  H    Isotropic =    25.0498   Anisotropy =     6.8183

 31  H    Isotropic =    25.0090   Anisotropy =     7.0562

 32  H    Isotropic =    24.7169   Anisotropy =     9.0328

 33  H    Isotropic =    30.1223   Anisotropy =     7.4028

 34  H    Isotropic =    29.6700   Anisotropy =     8.3292

 35  H    Isotropic =    30.0006   Anisotropy =     7.4192

  Exact polarizability: 364.484  -0.004 183.894  -4.405   7.695  86.284
 Approx polarizability: 495.648 -10.448 333.733  -8.587  16.993 138.300

                     1                      2                      3
                     A                      A                      A
 Frequencies --    39.4836                49.2943                56.3653
 Red. masses --     3.6871                 1.0402                 3.7216
 Frc consts  --     0.0034                 0.0015                 0.0070
 IR Inten    --     1.5335                 0.1853                 0.4115

                     4                      5                      6
                     A                      A                      A
 Frequencies --    64.2574                74.4789               134.8073
 Red. masses --     3.7483                 3.8292                 4.7991
 Frc consts  --     0.0091                 0.0125                 0.0514
 IR Inten    --     1.5430                 1.0599                 0.9901

                     7                      8                      9
                     A                      A                      A
 Frequencies --   141.6016               192.6399               223.8178
 Red. masses --     3.8209                 4.0831                 3.7738
 Frc consts  --     0.0451                 0.0893                 0.1114
 IR Inten    --     0.0936                 0.3766                 1.3359

                    10                     11                     12
                     A                      A                      A
 Frequencies --   241.6559               250.0796               306.5895
 Red. masses --     3.5942                 1.3874                 3.5318
 Frc consts  --     0.1237                 0.0511                 0.1956
 IR Inten    --     0.1056                 0.1222                 0.4703

                    13                     14                     15
                     A                      A                      A
 Frequencies --   315.0012               335.7037               366.3010
 Red. masses --     3.6257                 3.6651                 3.8000
 Frc consts  --     0.2120                 0.2434                 0.3004
 IR Inten    --     1.5234                 0.1414                 0.8766

                    16                     17                     18
                     A                      A                      A
 Frequencies --   399.1359               421.1263               434.0715
 Red. masses --     4.7344                 3.0837                 3.6663
 Frc consts  --     0.4444                 0.3222                 0.4070
 IR Inten    --     0.1458                 0.2922                 2.5138

                    19                     20                     21
                     A                      A                      A
 Frequencies --   463.1077               487.3162               522.5113
 Red. masses --     3.6832                 2.6604                 4.1429
 Frc consts  --     0.4654                 0.3722                 0.6664
 IR Inten    --     2.2002                 8.0826                 6.0110

                    22                     23                     24
                     A                      A                      A
 Frequencies --   544.7694               556.7357               619.3354
 Red. masses --     3.8615                 4.4409                 4.2335
 Frc consts  --     0.6752                 0.8110                 0.9567
 IR Inten    --     4.1171                 8.6465                 0.6697

                    25                     26                     27
                     A                      A                      A
 Frequencies --   642.8248               655.0542               663.4999
 Red. masses --     6.9173                 5.1164                 4.4086
 Frc consts  --     1.6841                 1.2935                 1.1435
 IR Inten    --     2.7274                 0.0529                 2.4858

                    28                     29                     30
                     A                      A                      A
 Frequencies --   669.8305               730.9153               740.2025
 Red. masses --     3.5429                 4.3712                 3.8677
 Frc consts  --     0.9366                 1.3759                 1.2485
 IR Inten    --     1.6847                 5.7426                 8.1514

                    31                     32                     33
                     A                      A                      A
 Frequencies --   765.9624               789.9537               802.5075
 Red. masses --     3.0718                 4.8867                 1.4712
 Frc consts  --     1.0618                 1.7967                 0.5582
 IR Inten    --     3.0208                 1.1865                 0.7520

                    34                     35                     36
                     A                      A                      A
 Frequencies --   816.1107               834.6207               855.4804
 Red. masses --     4.9776                 1.4934                 1.6029
 Frc consts  --     1.9533                 0.6129                 0.6911
 IR Inten    --     1.8334                53.6499                11.6477

                    37                     38                     39
                     A                      A                      A
 Frequencies --   857.9591               867.7892               916.3914
 Red. masses --     1.2736                 1.4211                 1.5422
 Frc consts  --     0.5523                 0.6305                 0.7630
 IR Inten    --     0.9825                16.3315                20.9459

                    40                     41                     42
                     A                      A                      A
 Frequencies --   937.2852               945.3825               963.6351
 Red. masses --     4.8534                 1.2779                 1.3086
 Frc consts  --     2.5121                 0.6729                 0.7159
 IR Inten    --    11.6836                 0.7369                 1.7173

                    43                     44                     45
                     A                      A                      A
 Frequencies --   966.7988               969.3343               972.4372
 Red. masses --     1.4864                 1.6815                 2.0083
 Frc consts  --     0.8186                 0.9309                 1.1189
 IR Inten    --     0.8773                 2.0441                 3.3164

                    46                     47                     48
                     A                      A                      A
 Frequencies --  1019.3579              1036.2764              1061.0992
 Red. masses --     1.4246                 3.3106                 2.4135
 Frc consts  --     0.8722                 2.0946                 1.6011
 IR Inten    --     0.1401                 2.3017                 0.1864

                    49                     50                     51
                     A                      A                      A
 Frequencies --  1075.5741              1082.5634              1152.9493
 Red. masses --     1.5180                 3.7347                 1.3200
 Frc consts  --     1.0346                 2.5788                 1.0338
 IR Inten    --    16.1129                46.7143                 4.7817

                    52                     53                     54
                     A                      A                      A
 Frequencies --  1172.3180              1184.0161              1191.3885
 Red. masses --     1.5313                 1.2677                 1.3136
 Frc consts  --     1.2399                 1.0471                 1.0986
 IR Inten    --    31.2713                 0.7195                 1.2450

                    55                     56                     57
                     A                      A                      A
 Frequencies --  1206.8579              1215.8698              1222.9897
 Red. masses --     1.4401                 1.5590                 1.1408
 Frc consts  --     1.2358                 1.3579                 1.0053
 IR Inten    --    93.2948                 4.2732                 9.2948

                    58                     59                     60
                     A                      A                      A
 Frequencies --  1243.7286              1266.8096              1286.1911
 Red. masses --     3.1739                 2.1631                 2.6593
 Frc consts  --     2.8926                 2.0453                 2.5919
 IR Inten    --     1.1537                 8.1105               139.0674

                    61                     62                     63
                     A                      A                      A
 Frequencies --  1305.0985              1310.2282              1329.9588
 Red. masses --     1.8907                 2.5923                 3.6150
 Frc consts  --     1.8974                 2.6219                 3.7674
 IR Inten    --    84.5480                87.3814                72.8872

                    64                     65                     66
                     A                      A                      A
 Frequencies --  1352.6147              1378.0156              1408.9775
 Red. masses --     1.6022                 2.1179                 4.2347
 Frc consts  --     1.7270                 2.3695                 4.9531
 IR Inten    --     0.8686                 8.2753                26.3612

                    67                     68                     69
                     A                      A                      A
 Frequencies --  1423.7812              1443.1443              1450.7891
 Red. masses --     5.7589                 1.2451                 2.7929
 Frc consts  --     6.8782                 1.5279                 3.4635
 IR Inten    --     2.6689                 1.5877                 1.6467

                    70                     71                     72
                     A                      A                      A
 Frequencies --  1477.4406              1499.5427              1514.6775
 Red. masses --     3.6454                 1.4061                 1.7307
 Frc consts  --     4.6883                 1.8629                 2.3394
 IR Inten    --    15.0667                21.4108                 3.7732

                    73                     74                     75
                     A                      A                      A
 Frequencies --  1518.1516              1522.9683              1523.2000
 Red. masses --     1.0525                 1.0826                 1.1240
 Frc consts  --     1.4292                 1.4795                 1.5365
 IR Inten    --     4.6275                 6.2564                13.8271

                    76                     77                     78
                     A                      A                      A
 Frequencies --  1535.4964              1561.4314              1571.4715
 Red. masses --     1.0601                 2.6792                 3.0014
 Frc consts  --     1.4726                 3.8485                 4.3671
 IR Inten    --    51.0303                89.3926                24.1696

                    79                     80                     81
                     A                      A                      A
 Frequencies --  1610.8617              1623.8363              1663.3239
 Red. masses --     5.9873                 6.1500                 5.6558
 Frc consts  --     9.1538                 9.5545                 9.2193
 IR Inten    --     5.6762                 1.6478                32.1815

                    82                     83                     84
                     A                      A                      A
 Frequencies --  1672.2445              1687.3464              3024.3481
 Red. masses --     5.7492                 6.3429                 1.0349
 Frc consts  --     9.4724                10.6400                 5.5772
 IR Inten    --    11.5133               152.0456                81.6256

                    85                     86                     87
                     A                      A                      A
 Frequencies --  3039.1514              3083.0750              3095.7603
 Red. masses --     1.0410                 1.1068                 1.0951
 Frc consts  --     5.6651                 6.1983                 6.1837
 IR Inten    --    44.5718                45.4444                23.6524

                    88                     89                     90
                     A                      A                      A
 Frequencies --  3123.3176              3155.3289              3174.9709
 Red. masses --     1.1026                 1.0995                 1.0879
 Frc consts  --     6.3373                 6.4494                 6.4615
 IR Inten    --    16.6599                31.1872                16.6241

                    91                     92                     93
                     A                      A                      A
 Frequencies --  3175.4208              3177.6433              3183.3316
 Red. masses --     1.0875                 1.0879                 1.0889
 Frc consts  --     6.4609                 6.4722                 6.5012
 IR Inten    --    35.1217                 5.8698                21.0986

                    94                     95                     96
                     A                      A                      A
 Frequencies --  3188.2533              3198.1811              3201.7614
 Red. masses --     1.0899                 1.0932                 1.0926
 Frc consts  --     6.5274                 6.5881                 6.5992
 IR Inten    --     5.2053                10.5402                11.8012

                    97                     98                     99
                     A                      A                      A
 Frequencies --  3205.1007              3205.8972              3226.5503
 Red. masses --     1.0907                 1.0928                 1.0914
 Frc consts  --     6.6013                 6.6174                 6.6944
 IR Inten    --    17.5890                10.4601                15.8218

 - Thermochemistry -
 -------------------
 Temperature   298.150 Kelvin.  Pressure   1.00000 Atm.
 Atom     1 has atomic number  6 and mass  12.00000

 Molecular mass:   248.12012 amu.
 Principal axes and moments of inertia in atomic units:
                           1         2         3
     Eigenvalues --  1477.87875********************
           X            1.00000   0.00282  -0.00067
           Y           -0.00281   0.99997   0.00725
           Z            0.00069  -0.00725   0.99997
 This molecule is an asymmetric top.
 Rotational symmetry number  1.
 Warning -- assumption of classical behavior for rotation
           may cause significant error
 Rotational temperatures (Kelvin)      0.05861     0.00699     0.00635
 Rotational constants (GHZ):           1.22117     0.14566     0.13229
 Zero-point vibrational energy     758820.3 (Joules/Mol)
                                  181.36240 (Kcal/Mol)
 Warning -- explicit consideration of  24 degrees of freedom as
           vibrations may cause significant error
 Vibrational temperatures:     56.81    70.92    81.10    92.45   107.16
          (Kelvin)            193.96   203.73   277.17   322.02   347.69
                              359.81   441.11   453.22   483.00   527.02
                              574.27   605.91   624.53   666.31   701.14
                              751.78   783.80   801.02   891.08   924.88
                              942.48   954.63   963.74  1051.62  1064.99
                             1102.05  1136.57  1154.63  1174.20  1200.83
                             1230.84  1234.41  1248.55  1318.48  1348.54
                             1360.19  1386.45  1391.01  1394.65  1399.12
                             1466.63  1490.97  1526.68  1547.51  1557.57
                             1658.83  1686.70  1703.53  1714.14  1736.40
                             1749.36  1759.61  1789.45  1822.65  1850.54
                             1877.74  1885.12  1913.51  1946.11  1982.65
                             2027.20  2048.50  2076.36  2087.36  2125.70
                             2157.50  2179.28  2184.28  2191.21  2191.54
                             2209.23  2246.55  2260.99  2317.67  2336.34
                             2393.15  2405.98  2427.71  4351.36  4372.66
                             4435.85  4454.10  4493.75  4539.81  4568.07
                             4568.72  4571.91  4580.10  4587.18  4601.46
                             4606.61  4611.42  4612.57  4642.28

 Zero-point correction=                           0.289019 (Hartree/Particle)
 Thermal correction to Energy=                    0.305049
 Thermal correction to Enthalpy=                  0.305993
 Thermal correction to Gibbs Free Energy=         0.244535
 Sum of electronic and zero-point Energies=           -770.500642
 Sum of electronic and thermal Energies=              -770.484612
 Sum of electronic and thermal Enthalpies=            -770.483668
 Sum of electronic and thermal Free Energies=         -770.545126

                     E (Thermal)             CV                S
                      KCal/Mol        Cal/Mol-Kelvin    Cal/Mol-Kelvin
 Total                  191.421             63.251            129.350
 Electronic               0.000              0.000              0.000
 Translational            0.889              2.981             42.427
 Rotational               0.889              2.981             33.879
 Vibrational            189.644             57.289             53.044
 Vibration     1          0.594              1.981              5.285
 Vibration     2          0.595              1.978              4.846
 Vibration     3          0.596              1.975              4.581
 Vibration     4          0.597              1.971              4.322
 Vibration     5          0.599              1.966              4.031
 Vibration     6          0.613              1.919              2.876
 Vibration     7          0.615              1.912              2.782
 Vibration     8          0.635              1.850              2.202
 Vibration     9          0.649              1.805              1.928
 Vibration    10          0.658              1.777              1.791
 Vibration    11          0.663              1.763              1.730
 Vibration    12          0.697              1.661              1.381
 Vibration    13          0.702              1.645              1.336
 Vibration    14          0.717              1.604              1.232
 Vibration    15          0.739              1.542              1.095
 Vibration    16          0.765              1.472              0.966
 Vibration    17          0.784              1.424              0.888
 Vibration    18          0.795              1.396              0.845
 Vibration    19          0.821              1.332              0.757
 Vibration    20          0.843              1.278              0.691
 Vibration    21          0.877              1.200              0.604
 Vibration    22          0.900              1.151              0.555
 Vibration    23          0.912              1.125              0.530
 Vibration    24          0.979              0.991              0.418

 Optimization completed.
    -- Stationary point found.
 Normal termination of Gaussian 09 at Tue Sep 28 20:07:29 2021.
 Gaussian 09:  AM64L-G09RevA.02 11-Jun-2009

 ----------------------------------------------------------------------
 #p TD(NStates=10, Root=1) b3lyp/6-31G* volume pop=NPA density=current
 Geom=AllCheck Guess=Read
 ----------------------------------------------------------------------

 COc1ccc2c(c1)cc(cc2)c1ccc(cc1)C_conf_0
 --------------------------------------
 Redundant internal coordinates taken from checkpoint file:
 C18H16O_c748_conf_0.chk
 Charge =  0 Multiplicity = 1

                         Standard orientation:
 ---------------------------------------------------------------------
 Center     Atomic      Atomic             Coordinates (Angstroms)
 Number     Number       Type             X           Y           Z
 ---------------------------------------------------------------------
      1          6           0        6.159592   -1.359818    0.208256
      2          8           0        4.777968   -1.678096    0.228192
      3          6           0        3.867962   -0.666074    0.096755
      4          6           0        4.226004    0.698478   -0.063887
      5          6           0        3.241274    1.655705   -0.186892
      6          6           0        1.867920    1.313618   -0.157521
      7          6           0        1.510431   -0.065851   -0.000097
      8          6           0        2.534535   -1.033453    0.127038
      9          6           0        0.133195   -0.415301    0.033411
     10          6           0       -0.866242    0.535220   -0.082572
     11          6           0       -0.490717    1.904102   -0.240097
     12          6           0        0.830378    2.276662   -0.276919
     13          6           0       -2.299916    0.152476   -0.039083
     14          6           0       -3.250266    0.966522    0.598550
     15          6           0       -4.594601    0.603298    0.644701
     16          6           0       -5.047203   -0.584800    0.057863
     17          6           0       -4.101231   -1.394291   -0.585286
     18          6           0       -2.756629   -1.035644   -0.633992
     19          6           0       -6.499957   -0.991970    0.134427
     20          1           0        6.685048   -2.308862    0.331004
     21          1           0        6.434926   -0.687413    1.031715
     22          1           0        6.459242   -0.903821   -0.744832
     23          1           0        5.267959    0.996173   -0.090000
     24          1           0        3.520176    2.699821   -0.309019
     25          1           0        2.283765   -2.082938    0.251081
     26          1           0       -0.129503   -1.459243    0.184573
     27          1           0       -1.267561    2.653511   -0.359913
     28          1           0        1.099538    3.322413   -0.408668
     29          1           0       -2.929750    1.884132    1.084291
     30          1           0       -5.304880    1.252959    1.151812
     31          1           0       -4.424556   -2.315244   -1.066157
     32          1           0       -2.053055   -1.669941   -1.166068
     33          1           0       -7.154600   -0.122292    0.254994
     34          1           0       -6.683205   -1.658070    0.988533
     35          1           0       -6.814472   -1.529687   -0.766813
 ---------------------------------------------------------------------

 SCF Done:  E(RB3LYP) =  -770.789661301     A.U. after    1 cycles

 Excitation energies and oscillator strengths:

 Excited State   1:      Singlet-A      3.8746 eV  319.99 nm  f=0.0201  <S**2>=0.000
      65 -> 67        -0.24901
      65 -> 68         0.11510
      66 -> 67         0.61847
      66 -> 68         0.16359
 This state for optimization and/or second-order correction.
 Total Energy, E(TD-HF/TD-KS) =  -770.647271719
 Copying the excited state density for this state as the 1-particle RhoCI density.

 Excited State   2:      Singlet-A      4.1331 eV  299.98 nm  f=0.1291  <S**2>=0.000
      65 -> 67         0.54095
      66 -> 67         0.30848
      66 -> 68        -0.31578

 Excited State   3:      Singlet-A      4.7752 eV  259.64 nm  f=0.8255  <S**2>=0.000
      63 -> 67         0.16132
      64 -> 67         0.20565
      65 -> 67         0.30512
      65 -> 68         0.10253
      65 -> 69        -0.11298
      66 -> 68         0.49335
      66 -> 69        -0.22907

 Excited State   4:      Singlet-A      4.8076 eV  257.89 nm  f=0.2749  <S**2>=0.000
      63 -> 67         0.11789
      64 -> 67        -0.36689
      64 -> 68        -0.12167
      65 -> 67         0.16712
      65 -> 69         0.23875
      66 -> 68         0.26999
      66 -> 69         0.40558

 Excited State   5:      Singlet-A      5.0179 eV  247.08 nm  f=0.0178  <S**2>=0.000
      64 -> 67         0.36806
      65 -> 68         0.18775
      65 -> 69        -0.22650
      66 -> 69         0.51082

 Excited State   6:      Singlet-A      5.0710 eV  244.50 nm  f=0.0746  <S**2>=0.000
      63 -> 67        -0.37877
      64 -> 67        -0.16686
      65 -> 68         0.54446
      66 -> 69        -0.10542

 Excited State   7:      Singlet-A      5.1404 eV  241.19 nm  f=0.0098  <S**2>=0.000
      63 -> 67         0.37962
      65 -> 68         0.23900
      66 -> 68        -0.15695
      66 -> 70         0.49808

 Excited State   8:      Singlet-A      5.3377 eV  232.28 nm  f=0.0112  <S**2>=0.000
      64 -> 67         0.37999
      64 -> 68        -0.27647
      65 -> 69         0.50426

 Excited State   9:      Singlet-A      5.5172 eV  224.72 nm  f=0.0404  <S**2>=0.000
      62 -> 67         0.48062
      63 -> 67         0.22289
      65 -> 68         0.16805
      66 -> 70        -0.20503
      66 -> 71         0.35429

 Excited State  10:      Singlet-A      5.7107 eV  217.11 nm  f=0.0883  <S**2>=0.000
      62 -> 67        -0.12204
      62 -> 68        -0.15562
      63 -> 67         0.13604
      63 -> 68         0.26605
      65 -> 70         0.55344
      65 -> 71        -0.10845
      66 -> 70        -0.14129

 The electronic state is 1-A.
 Alpha  occ. eigenvalues --  -19.17589 -10.24597 -10.24134 -10.19425 -10.19408
 Alpha  occ. eigenvalues --  -10.19311 -10.19187 -10.19183 -10.19031 -10.18942
 Alpha  occ. eigenvalues --  -10.18619 -10.18412 -10.18386 -10.18285 -10.18277
 Alpha  occ. eigenvalues --  -10.18260 -10.18203 -10.18201 -10.17855  -1.06149
 Alpha  occ. eigenvalues --   -0.86951  -0.85226  -0.81792  -0.77797  -0.76567
 Alpha  occ. eigenvalues --   -0.74152  -0.73688  -0.72622  -0.68723  -0.67750
 Alpha  occ. eigenvalues --   -0.62390  -0.60823  -0.59771  -0.58651  -0.57050
 Alpha  occ. eigenvalues --   -0.52922  -0.51297  -0.51017  -0.47894  -0.46750
 Alpha  occ. eigenvalues --   -0.46203  -0.45448  -0.44549  -0.43961  -0.43347
 Alpha  occ. eigenvalues --   -0.41724  -0.41598  -0.41412  -0.40522  -0.40066
 Alpha  occ. eigenvalues --   -0.38949  -0.38530  -0.37993  -0.35680  -0.35358
 Alpha  occ. eigenvalues --   -0.34333  -0.34066  -0.33361  -0.32778  -0.31901
 Alpha  occ. eigenvalues --   -0.29982  -0.27287  -0.24972  -0.24484  -0.21238
 Alpha  occ. eigenvalues --   -0.19762
 Alpha virt. eigenvalues --   -0.03898  -0.01008   0.00352   0.02175   0.04220
 Alpha virt. eigenvalues --    0.09444   0.10272   0.10953   0.11043   0.11950
 Alpha virt. eigenvalues --    0.12308   0.13497   0.13883   0.14436   0.15234

 Mulliken atomic charges:
              1
     1  C   -0.227925
     2  O   -0.466808
     3  C    0.389266
     4  C   -0.215606
     5  C   -0.202780
     6  C    0.151555
     7  C    0.146411
     8  C   -0.242506
     9  C   -0.271640
    10  C    0.074404
    11  C   -0.150808
    12  C   -0.214553
    13  C    0.081688
    14  C   -0.183972
    15  C   -0.188222
    16  C    0.171358
    17  C   -0.186309
    18  C   -0.181894
    19  C   -0.527567
    20  H    0.182919
    21  H    0.173274
    22  H    0.173185
    23  H    0.127053
    24  H    0.138085
    25  H    0.154408
    26  H    0.128791
    27  H    0.144323
    28  H    0.129583
    29  H    0.111552
    30  H    0.108664
    31  H    0.108599
    32  H    0.113583
    33  H    0.147989
    34  H    0.154882
    35  H    0.149018
 Sum of Mulliken atomic charges =  -0.00000

 Dipole moment (field-independent basis, Debye):
    X=              6.0814    Y=              0.0826    Z=              0.0553  Tot=              6.0822
 Quadrupole moment (field-independent basis, Debye-Ang):
   XX=            -80.8301   YY=           -102.2255   ZZ=           -114.6444
   XY=             -3.1206   XZ=             -0.1215   YZ=              0.9178

 Summary of Natural Population Analysis:

                                       Natural Population
                Natural  -----------------------------------------------
    Atom  No    Charge         Core      Valence    Rydberg      Total
 -----------------------------------------------------------------------
      C    1   -0.32386      1.99942     4.31046    0.01399     6.32386
      O    2   -0.45459      1.99975     6.44327    0.01158     8.45459
      C    3    0.36422      1.99880     3.61473    0.02225     5.63578
      C    4   -0.38106      1.99905     4.36766    0.01436     6.38106
      C    5   -0.16807      1.99907     4.15380    0.01520     6.16807
      C    6   -0.06754      1.99902     4.05382    0.01470     6.06754
      C    7   -0.05514      1.99904     4.04068    0.01542     6.05514
      C    8   -0.20490      1.99900     4.19056    0.01535     6.20490
      C    9   -0.21735      1.99902     4.20410    0.01423     6.21735
      C   10   -0.08118      1.99903     4.06564    0.01651     6.08118
      C   11   -0.14404      1.99907     4.13166    0.01332     6.14404
      C   12   -0.22551      1.99907     4.21133    0.01512     6.22551
      C   13   -0.08381      1.99901     4.06905    0.01575     6.08381
      C   14   -0.22851      1.99905     4.21643    0.01302     6.22851
      C   15   -0.22904      1.99903     4.21694    0.01307     6.22904
      C   16   -0.06341      1.99903     4.05001    0.01437     6.06341
      C   17   -0.22656      1.99903     4.21455    0.01298     6.22656
      C   18   -0.23119      1.99905     4.21890    0.01324     6.23119
      C   19   -0.68294      1.99940     4.67638    0.00716     6.68294
      H   20    0.23515      0.00000     0.76436    0.00049     0.76485
      H   21    0.21742      0.00000     0.78092    0.00166     0.78258
      H   22    0.21735      0.00000     0.78100    0.00165     0.78265
      H   23    0.23644      0.00000     0.76273    0.00084     0.76356
      H   24    0.23669      0.00000     0.76222    0.00109     0.76331
      H   25    0.24817      0.00000     0.75030    0.00153     0.75183
      H   26    0.23232      0.00000     0.76636    0.00132     0.76768
      H   27    0.24005      0.00000     0.75892    0.00103     0.75995
      H   28    0.23258      0.00000     0.76630    0.00112     0.76742
      H   29    0.22599      0.00000     0.77285    0.00115     0.77401
      H   30    0.22622      0.00000     0.77270    0.00108     0.77378
      H   31    0.22609      0.00000     0.77280    0.00111     0.77391
      H   32    0.22777      0.00000     0.77101    0.00122     0.77223
      H   33    0.23286      0.00000     0.76618    0.00096     0.76714
      H   34    0.23569      0.00000     0.76297    0.00134     0.76431
      H   35    0.23366      0.00000     0.76532    0.00102     0.76634
 =======================================================================
   * Total *   -0.00000     37.98290    93.72688    0.29022   132.00000

 Normal termination of Gaussian 09 at Wed Sep 29 01:37:50 2021.
