 Gaussian 09, Revision A.02,

 -----------------------------------
 #p opt b3lyp/6-31G* scf=(xqc,tight)
 -----------------------------------

 ----------------------------------------
 CC(=O)Oc1ccc2c(c1)ccc(c2)c1ccccc1_conf_0
 ----------------------------------------
 Symbolic Z-matrix:
 Charge =  0 Multiplicity = 1

 SCF Done:  E(RB3LYP) =  -844.819559182     A.U. after   15 cycles
 SCF Done:  E(RB3LYP) =  -844.825879194     A.U. after   12 cycles
 SCF Done:  E(RB3LYP) =  -844.826300515     A.U. after   12 cycles
 SCF Done:  E(RB3LYP) =  -844.825739190     A.U. after   12 cycles
 SCF Done:  E(RB3LYP) =  -844.826475962     A.U. after   12 cycles
 SCF Done:  E(RB3LYP) =  -844.826562877     A.U. after   11 cycles
 SCF Done:  E(RB3LYP) =  -844.826635522     A.U. after   11 cycles
 SCF Done:  E(RB3LYP) =  -844.826698685     A.U. after   11 cycles
 SCF Done:  E(RB3LYP) =  -844.826744082     A.U. after   11 cycles
 SCF Done:  E(RB3LYP) =  -844.826756989     A.U. after   10 cycles
 SCF Done:  E(RB3LYP) =  -844.826767195     A.U. after    9 cycles
 SCF Done:  E(RB3LYP) =  -844.826780991     A.U. after   10 cycles
 SCF Done:  E(RB3LYP) =  -844.826794656     A.U. after   10 cycles
 SCF Done:  E(RB3LYP) =  -844.826795610     A.U. after    9 cycles
 SCF Done:  E(RB3LYP) =  -844.826795631     A.U. after    7 cycles
 Optimization completed.
    -- Stationary point found.
 Normal termination of Gaussian 09 at Wed Sep 29 04:18:50 2021.

 ----------------------------------------------------------------------
 #p freq b3lyp/6-31G* volume NMR pop=NPA density=current Geom=AllCheck
 Guess=Read
 ----------------------------------------------------------------------

 CC(=O)Oc1ccc2c(c1)ccc(c2)c1ccccc1_conf_0
 ----------------------------------------
 Redundant internal coordinates taken from checkpoint file:
 C18H14O2_4fe1_conf_0.chk
 Charge =  0 Multiplicity = 1

 SCF Done:  E(RB3LYP) =  -844.826795631     A.U. after    1 cycles

  1  C    Isotropic =   169.0402   Anisotropy =    39.7480

  2  C    Isotropic =    30.6096   Anisotropy =    74.8432

  3  O    Isotropic =   -79.8393   Anisotropy =   565.7391

  4  O    Isotropic =   102.6883   Anisotropy =   157.5927

  5  C    Isotropic =    46.5088   Anisotropy =   106.3315

  6  C    Isotropic =    73.1493   Anisotropy =   149.1422

  7  C    Isotropic =    66.5775   Anisotropy =   142.6291

  8  C    Isotropic =    65.1406   Anisotropy =   193.9597

  9  C    Isotropic =    63.7881   Anisotropy =   193.0068

 10  C    Isotropic =    78.0297   Anisotropy =   120.2274

 11  C    Isotropic =    67.3760   Anisotropy =   143.2861

 12  C    Isotropic =    69.3466   Anisotropy =   150.7042

 13  C    Isotropic =    56.1951   Anisotropy =   170.2265

 14  C    Isotropic =    68.7425   Anisotropy =   134.5384

 15  C    Isotropic =    54.0658   Anisotropy =   175.7766

 16  C    Isotropic =    68.3551   Anisotropy =   154.0586

 17  C    Isotropic =    67.5635   Anisotropy =   164.8621

 18  C    Isotropic =    69.3576   Anisotropy =   165.2468

 19  C    Isotropic =    67.6646   Anisotropy =   164.7604

 20  C    Isotropic =    68.5116   Anisotropy =   155.2025

 21  H    Isotropic =    30.4841   Anisotropy =     7.6394

 22  H    Isotropic =    29.9275   Anisotropy =     5.5145

 23  H    Isotropic =    29.9330   Anisotropy =     6.1810

 24  H    Isotropic =    24.7284   Anisotropy =     8.1645

 25  H    Isotropic =    24.5279   Anisotropy =     7.5563

 26  H    Isotropic =    25.0623   Anisotropy =     8.2275

 27  H    Isotropic =    24.5437   Anisotropy =     7.6012

 28  H    Isotropic =    24.6178   Anisotropy =     8.8157

 29  H    Isotropic =    24.4632   Anisotropy =    10.4881

 30  H    Isotropic =    24.6453   Anisotropy =     9.0773

 31  H    Isotropic =    24.8304   Anisotropy =     5.1075

 32  H    Isotropic =    24.9820   Anisotropy =     4.1795

 33  H    Isotropic =    24.8405   Anisotropy =     4.9880

 34  H    Isotropic =    24.7478   Anisotropy =     8.9494

  Exact polarizability: 361.052   3.256 180.046   4.683   0.562  84.690
 Approx polarizability: 485.086  13.804 337.296  11.054   0.644 139.722

                     1                      2                      3
                     A                      A                      A
 Frequencies --    26.1255                37.1599                56.8763
 Red. masses --     6.2490                 4.1968                 3.9509
 Frc consts  --     0.0025                 0.0034                 0.0075
 IR Inten    --     0.4051                 2.4599                 0.1071

                     4                      5                      6
                     A                      A                      A
 Frequencies --    59.7395                76.5559                89.9673
 Red. masses --     3.2575                 2.5247                 1.5898
 Frc consts  --     0.0068                 0.0087                 0.0076
 IR Inten    --     1.0915                 0.3057                 0.1440

                     7                      8                      9
                     A                      A                      A
 Frequencies --   118.1502               159.8551               194.9223
 Red. masses --     4.8962                 6.3440                 3.7285
 Frc consts  --     0.0403                 0.0955                 0.0835
 IR Inten    --     1.6929                 1.5042                 1.2490

                    10                     11                     12
                     A                      A                      A
 Frequencies --   218.9073               248.5832               285.6888
 Red. masses --     6.4645                 5.0781                 5.7819
 Frc consts  --     0.1825                 0.1849                 0.2780
 IR Inten    --     0.5517                 2.4922                 0.1933

                    13                     14                     15
                     A                      A                      A
 Frequencies --   340.4700               350.6933               409.8534
 Red. masses --     3.8314                 5.6700                 3.3443
 Frc consts  --     0.2617                 0.4109                 0.3310
 IR Inten    --     1.0637                 3.9611                 0.6456

                    16                     17                     18
                     A                      A                      A
 Frequencies --   418.7172               420.0035               457.1203
 Red. masses --     3.7229                 4.0125                 4.1040
 Frc consts  --     0.3846                 0.4170                 0.5053
 IR Inten    --     0.7574                 0.3496                 0.6333

                    19                     20                     21
                     A                      A                      A
 Frequencies --   491.5788               518.1195               529.7573
 Red. masses --     2.7079                 4.7691                 4.4969
 Frc consts  --     0.3855                 0.7543                 0.7436
 IR Inten    --     7.8318                 1.5500                 5.5813

                    22                     23                     24
                     A                      A                      A
 Frequencies --   533.6123               580.3276               598.2947
 Red. masses --     5.3073                 3.1324                 3.0150
 Frc consts  --     0.8904                 0.6215                 0.6359
 IR Inten    --     3.0263                 7.0705                 1.7021

                    25                     26                     27
                     A                      A                      A
 Frequencies --   628.3433               635.3843               653.6069
 Red. masses --     6.3929                 6.2305                 5.2376
 Frc consts  --     1.4871                 1.4820                 1.3183
 IR Inten    --     9.7423                 1.5917                 9.5851

                    28                     29                     30
                     A                      A                      A
 Frequencies --   679.8040               714.4611               719.9407
 Red. masses --     4.3067                 1.8156                 5.5436
 Frc consts  --     1.1726                 0.5461                 1.6929
 IR Inten    --     4.5739                22.6326                 0.9668

                    31                     32                     33
                     A                      A                      A
 Frequencies --   764.2992               774.8081               778.4916
 Red. masses --     2.8353                 4.8928                 1.9954
 Frc consts  --     0.9758                 1.7306                 0.7125
 IR Inten    --     3.5835                 5.5912                32.6767

                    34                     35                     36
                     A                      A                      A
 Frequencies --   808.7782               826.5854               836.9484
 Red. masses --     2.7098                 1.6666                 1.7051
 Frc consts  --     1.0443                 0.6709                 0.7037
 IR Inten    --     2.9467                20.6113                 2.1660

                    37                     38                     39
                     A                      A                      A
 Frequencies --   860.5269               885.4496               905.4906
 Red. masses --     1.2513                 2.9499                 1.9274
 Frc consts  --     0.5459                 1.3626                 0.9311
 IR Inten    --     0.3144                 4.0639                12.9958

                    40                     41                     42
                     A                      A                      A
 Frequencies --   911.7880               933.2995               951.7153
 Red. masses --     1.5092                 1.4814                 4.7596
 Frc consts  --     0.7392                 0.7602                 2.5400
 IR Inten    --    27.6530                 1.8851                22.1390

                    43                     44                     45
                     A                      A                      A
 Frequencies --   958.8900               968.9711               973.3980
 Red. masses --     1.3540                 1.3424                 1.3143
 Frc consts  --     0.7335                 0.7426                 0.7337
 IR Inten    --     1.2374                 0.9930                 0.2518

                    46                     47                     48
                     A                      A                      A
 Frequencies --   990.6974               995.8164              1017.0950
 Red. masses --     3.4350                 1.2607                 5.9828
 Frc consts  --     1.9864                 0.7366                 3.6465
 IR Inten    --    10.9453                 0.2529                 0.9193

                    49                     50                     51
                     A                      A                      A
 Frequencies --  1032.0346              1046.4312              1071.3044
 Red. masses --     1.8038                 3.4197                 1.9016
 Frc consts  --     1.1320                 2.2063                 1.2858
 IR Inten    --   112.7893                 5.5580                 0.9464

                    52                     53                     54
                     A                      A                      A
 Frequencies --  1074.5629              1114.1163              1163.4318
 Red. masses --     1.7320                 1.5931                 1.6415
 Frc consts  --     1.1783                 1.1651                 1.3091
 IR Inten    --     8.2466                 3.0947                26.7504

                    55                     56                     57
                     A                      A                      A
 Frequencies --  1185.8691              1192.4031              1194.1302
 Red. masses --     1.6141                 1.1759                 1.1427
 Frc consts  --     1.3374                 0.9851                 0.9600
 IR Inten    --    57.5022                15.8165                 9.2737

                    58                     59                     60
                     A                      A                      A
 Frequencies --  1217.5499              1230.8515              1246.0881
 Red. masses --     1.1548                 2.1436                 4.1480
 Frc consts  --     1.0086                 1.9134                 3.7948
 IR Inten    --     5.0092                24.5853               907.3010

                    61                     62                     63
                     A                      A                      A
 Frequencies --  1273.1279              1299.5002              1309.5905
 Red. masses --     2.4372                 1.7881                 2.5737
 Frc consts  --     2.3274                 1.7790                 2.6006
 IR Inten    --    73.4805                 5.9101                 0.5452

                    64                     65                     66
                     A                      A                      A
 Frequencies --  1330.2551              1367.0765              1381.1507
 Red. masses --     3.0207                 1.9010                 1.9941
 Frc consts  --     3.1494                 2.0932                 2.2412
 IR Inten    --     2.2515                 0.7707                 4.8196

                    67                     68                     69
                     A                      A                      A
 Frequencies --  1415.1960              1421.2751              1425.9523
 Red. masses --     3.7347                 1.7753                 2.5395
 Frc consts  --     4.4069                 2.1129                 3.0423
 IR Inten    --     7.5865                56.8678                12.0563

                    70                     71                     72
                     A                      A                      A
 Frequencies --  1449.8315              1494.9274              1499.6448
 Red. masses --     3.9827                 2.3447                 1.0490
 Frc consts  --     4.9324                 3.0873                 1.3900
 IR Inten    --     4.3036                 4.6083                13.2712

                    73                     74                     75
                     A                      A                      A
 Frequencies --  1504.3090              1523.2946              1546.7268
 Red. masses --     1.0467                 2.2910                 2.6030
 Frc consts  --     1.3955                 3.1322                 3.6690
 IR Inten    --     8.4198                 7.6923                59.9946

                    76                     77                     78
                     A                      A                      A
 Frequencies --  1556.1432              1619.7261              1636.4672
 Red. masses --     3.2384                 6.2965                 5.6626
 Frc consts  --     4.6204                 9.7328                 8.9347
 IR Inten    --     3.8040                 5.4730                 2.6738

                    79                     80                     81
                     A                      A                      A
 Frequencies --  1661.7882              1664.2888              1687.7197
 Red. masses --     5.5195                 5.8991                 6.4357
 Frc consts  --     8.9805                 9.6271                10.8005
 IR Inten    --     8.9130                45.8277                 7.7576

                    82                     83                     84
                     A                      A                      A
 Frequencies --  1851.1736              3072.8819              3135.2658
 Red. masses --    11.5372                 1.0371                 1.1006
 Frc consts  --    23.2940                 5.7696                 6.3742
 IR Inten    --   213.7177                 1.8484                 4.8148

                    85                     86                     87
                     A                      A                      A
 Frequencies --  3180.3862              3182.7428              3185.5863
 Red. masses --     1.0848                 1.0873                 1.1033
 Frc consts  --     6.4646                 6.4896                 6.5967
 IR Inten    --     9.4233                 6.6854                 8.7374

                    88                     89                     90
                     A                      A                      A
 Frequencies --  3185.6644              3188.3556              3191.6407
 Red. masses --     1.0886                 1.0888                 1.0896
 Frc consts  --     6.5088                 6.5216                 6.5395
 IR Inten    --     4.7376                 4.5360                14.9733

                    91                     92                     93
                     A                      A                      A
 Frequencies --  3197.0133              3202.4649              3206.4326
 Red. masses --     1.0909                 1.0941                 1.0925
 Frc consts  --     6.5696                 6.6110                 6.6180
 IR Inten    --    14.8678                24.8865                11.7282

                    94                     95                     96
                     A                      A                      A
 Frequencies --  3207.8367              3211.4725              3245.1484
 Red. masses --     1.0922                 1.0977                 1.0932
 Frc consts  --     6.6216                 6.6701                 6.7831
 IR Inten    --    21.6219                24.7205                 4.5983

 - Thermochemistry -
 -------------------
 Temperature   298.150 Kelvin.  Pressure   1.00000 Atm.
 Atom     1 has atomic number  6 and mass  12.00000

 Molecular mass:   262.09938 amu.
 Principal axes and moments of inertia in atomic units:
                           1         2         3
     Eigenvalues --  1224.94050********************
           X            0.99999  -0.00309   0.00101
           Y            0.00308   0.99994   0.01080
           Z           -0.00104  -0.01079   0.99994
 This molecule is an asymmetric top.
 Rotational symmetry number  1.
 Warning -- assumption of classical behavior for rotation
           may cause significant error
 Rotational temperatures (Kelvin)      0.07071     0.00587     0.00554
 Rotational constants (GHZ):           1.47333     0.12224     0.11540
 Zero-point vibrational energy     709843.1 (Joules/Mol)
                                  169.65657 (Kcal/Mol)
 Warning -- explicit consideration of  24 degrees of freedom as
           vibrations may cause significant error
 Vibrational temperatures:     37.59    53.46    81.83    85.95   110.15
          (Kelvin)            129.44   169.99   230.00   280.45   314.96
                              357.66   411.04   489.86   504.57   589.69
                              602.44   604.29   657.69   707.27   745.46
                              762.20   767.75   834.96   860.81   904.04
                              914.18   940.39   978.09  1027.95  1035.83
                             1099.65  1114.77  1120.07  1163.65  1189.27
                             1204.18  1238.10  1273.96  1302.80  1311.86
                             1342.81  1369.30  1379.63  1394.13  1400.50
                             1425.39  1432.76  1463.37  1484.87  1505.58
                             1541.37  1546.05  1602.96  1673.92  1706.20
                             1715.60  1718.08  1751.78  1770.92  1792.84
                             1831.74  1869.69  1884.21  1913.94  1966.92
                             1987.17  2036.15  2044.90  2051.62  2085.98
                             2150.86  2157.65  2164.36  2191.68  2225.39
                             2238.94  2330.42  2354.51  2390.94  2394.54
                             2428.25  2663.42  4421.19  4510.94  4575.86
                             4579.25  4583.34  4583.45  4587.33  4592.05
                             4599.78  4607.63  4613.34  4615.36  4620.59
                             4669.04

 Zero-point correction=                           0.270365 (Hartree/Particle)
 Thermal correction to Energy=                    0.286685
 Thermal correction to Enthalpy=                  0.287629
 Thermal correction to Gibbs Free Energy=         0.224533
 Sum of electronic and zero-point Energies=           -844.556431
 Sum of electronic and thermal Energies=              -844.540111
 Sum of electronic and thermal Enthalpies=            -844.539167
 Sum of electronic and thermal Free Energies=         -844.602262

                     E (Thermal)             CV                S
                      KCal/Mol        Cal/Mol-Kelvin    Cal/Mol-Kelvin
 Total                  179.897             63.898            132.796
 Electronic               0.000              0.000              0.000
 Translational            0.889              2.981             42.590
 Rotational               0.889              2.981             34.002
 Vibrational            178.120             57.936             56.203
 Vibration     1          0.593              1.985              6.104
 Vibration     2          0.594              1.982              5.405
 Vibration     3          0.596              1.975              4.563
 Vibration     4          0.597              1.974              4.466
 Vibration     5          0.599              1.965              3.977
 Vibration     6          0.602              1.956              3.661
 Vibration     7          0.608              1.934              3.130
 Vibration     8          0.622              1.892              2.552
 Vibration     9          0.636              1.847              2.181
 Vibration    10          0.647              1.812              1.968
 Vibration    11          0.662              1.765              1.741
 Vibration    12          0.683              1.700              1.499
 Vibration    13          0.720              1.595              1.210
 Vibration    14          0.728              1.574              1.163
 Vibration    15          0.774              1.449              0.927
 Vibration    16          0.782              1.430              0.896
 Vibration    17          0.783              1.427              0.892
 Vibration    18          0.815              1.345              0.775
 Vibration    19          0.847              1.269              0.680
 Vibration    20          0.873              1.210              0.614
 Vibration    21          0.885              1.184              0.588
 Vibration    22          0.889              1.176              0.579
 Vibration    23          0.937              1.074              0.485
 Vibration    24          0.956              1.035              0.453

 Optimization completed.
    -- Stationary point found.
 Normal termination of Gaussian 09 at Wed Sep 29 06:26:34 2021.
 Gaussian 09:  AM64L-G09RevA.02 11-Jun-2009

 ----------------------------------------------------------------------
 #p TD(NStates=10, Root=1) b3lyp/6-31G* volume pop=NPA density=current
 Geom=AllCheck Guess=Read
 ----------------------------------------------------------------------

 CC(=O)Oc1ccc2c(c1)ccc(c2)c1ccccc1_conf_0
 ----------------------------------------
 Redundant internal coordinates taken from checkpoint file:
 C18H14O2_4fe1_conf_0.chk
 Charge =  0 Multiplicity = 1

                         Standard orientation:
 ---------------------------------------------------------------------
 Center     Atomic      Atomic             Coordinates (Angstroms)
 Number     Number       Type             X           Y           Z
 ---------------------------------------------------------------------
      1          6           0       -6.696139    0.308650    0.028518
      2          6           0       -5.327889   -0.284006    0.261801
      3          8           0       -5.083725   -1.280954    0.894343
      4          8           0       -4.380506    0.491119   -0.357284
      5          6           0       -3.028929    0.143280   -0.287880
      6          6           0       -2.579427   -1.150855   -0.644352
      7          6           0       -1.230193   -1.415931   -0.641314
      8          6           0       -0.279187   -0.418492   -0.291640
      9          6           0       -0.752083    0.888272    0.053665
     10          6           0       -2.147501    1.141640    0.049683
     11          6           0        0.203318    1.883830    0.390842
     12          6           0        1.548602    1.603362    0.387663
     13          6           0        2.036361    0.307007    0.047860
     14          6           0        1.115362   -0.672825   -0.284932
     15          6           0        3.494421    0.026029    0.052161
     16          6           0        3.990946   -1.211922    0.495400
     17          6           0        5.359018   -1.478562    0.492508
     18          6           0        6.263428   -0.511497    0.049589
     19          6           0        5.786017    0.724329   -0.390416
     20          6           0        4.417451    0.989961   -0.388413
     21          1           0       -7.447855   -0.315710    0.512114
     22          1           0       -6.899186    0.376415   -1.045235
     23          1           0       -6.739126    1.325266    0.432943
     24          1           0       -3.297834   -1.917767   -0.905965
     25          1           0       -0.874730   -2.407373   -0.910589
     26          1           0       -2.525854    2.126624    0.306749
     27          1           0       -0.146683    2.876266    0.664748
     28          1           0        2.258329    2.373628    0.675371
     29          1           0        1.460504   -1.661745   -0.576111
     30          1           0        3.297953   -1.960225    0.869811
     31          1           0        5.719856   -2.440443    0.847467
     32          1           0        7.330191   -0.718332    0.049353
     33          1           0        6.480107    1.482400   -0.743937
     34          1           0        4.056704    1.946057   -0.757643
 ---------------------------------------------------------------------

 SCF Done:  E(RB3LYP) =  -844.826795631     A.U. after    1 cycles

 Excitation energies and oscillator strengths:

 Excited State   1:      Singlet-A      4.0895 eV  303.18 nm  f=0.1398  <S**2>=0.000
      68 -> 70         0.21188
      68 -> 71         0.12720
      69 -> 70         0.60751
      69 -> 71        -0.24355
 This state for optimization and/or second-order correction.
 Total Energy, E(TD-HF/TD-KS) =  -844.676510474
 Copying the excited state density for this state as the 1-particle RhoCI density.

 Excited State   2:      Singlet-A      4.1987 eV  295.29 nm  f=0.0725  <S**2>=0.000
      68 -> 70        -0.42836
      69 -> 70         0.32423
      69 -> 71         0.44238

 Excited State   3:      Singlet-A      4.8526 eV  255.50 nm  f=0.0103  <S**2>=0.000
      66 -> 72         0.10301
      67 -> 70         0.50281
      67 -> 71         0.13998
      68 -> 72        -0.12353
      69 -> 72        -0.42739

 Excited State   4:      Singlet-A      4.9238 eV  251.80 nm  f=1.0244  <S**2>=0.000
      66 -> 70        -0.18579
      68 -> 70         0.49052
      69 -> 71         0.44269

 Excited State   5:      Singlet-A      5.0955 eV  243.32 nm  f=0.0544  <S**2>=0.000
      66 -> 70         0.38487
      68 -> 71         0.14207
      69 -> 71         0.14625
      69 -> 73         0.52371

 Excited State   6:      Singlet-A      5.1659 eV  240.00 nm  f=0.0124  <S**2>=0.000
      66 -> 70        -0.14880
      67 -> 70         0.44139
      67 -> 71        -0.16411
      68 -> 71        -0.14316
      69 -> 72         0.46134

 Excited State   7:      Singlet-A      5.2023 eV  238.32 nm  f=0.0109  <S**2>=0.000
      66 -> 70        -0.37420
      67 -> 70        -0.14438
      68 -> 71        -0.31326
      69 -> 72        -0.15699
      69 -> 73         0.40693
      69 -> 74         0.10903

 Excited State   8:      Singlet-A      5.3858 eV  230.21 nm  f=0.0695  <S**2>=0.000
      65 -> 70        -0.20065
      65 -> 73         0.19184
      66 -> 70        -0.18864
      68 -> 71         0.45171
      69 -> 74         0.38732

 Excited State   9:      Singlet-A      5.5134 eV  224.88 nm  f=0.0020  <S**2>=0.000
      66 -> 72         0.13867
      67 -> 71         0.49278
      68 -> 72        -0.40440
      69 -> 72         0.22218

 Excited State  10:      Singlet-A      5.5492 eV  223.43 nm  f=0.0165  <S**2>=0.000
      65 -> 70         0.48262
      65 -> 71         0.10340
      65 -> 73        -0.29844
      68 -> 71         0.18094
      68 -> 73         0.17497
      69 -> 73         0.14401
      69 -> 74         0.18120
      69 -> 75         0.12868

 The electronic state is 1-A.
 Alpha  occ. eigenvalues --  -19.20234 -19.14360 -10.32631 -10.25411 -10.20240
 Alpha  occ. eigenvalues --  -10.20196 -10.20104 -10.19994 -10.19956 -10.19642
 Alpha  occ. eigenvalues --  -10.19571 -10.19410 -10.19329 -10.19248 -10.19162
 Alpha  occ. eigenvalues --  -10.19080 -10.19056 -10.18983 -10.18966 -10.18932
 Alpha  occ. eigenvalues --   -1.10945  -1.02731  -0.87850  -0.85645  -0.82576
 Alpha  occ. eigenvalues --   -0.77991  -0.77699  -0.75036  -0.74465  -0.73182
 Alpha  occ. eigenvalues --   -0.71268  -0.64686  -0.63280  -0.60887  -0.60276
 Alpha  occ. eigenvalues --   -0.59262  -0.56705  -0.52757  -0.51299  -0.49848
 Alpha  occ. eigenvalues --   -0.49200  -0.48550  -0.47091  -0.46588  -0.45567
 Alpha  occ. eigenvalues --   -0.44643  -0.44265  -0.42945  -0.42205  -0.42007
 Alpha  occ. eigenvalues --   -0.41712  -0.41460  -0.40231  -0.39173  -0.38720
 Alpha  occ. eigenvalues --   -0.37462  -0.36488  -0.36358  -0.34731  -0.33972
 Alpha  occ. eigenvalues --   -0.33599  -0.32743  -0.31128  -0.28919  -0.27775
 Alpha  occ. eigenvalues --   -0.25812  -0.25026  -0.23220  -0.20958
 Alpha virt. eigenvalues --   -0.04523  -0.02330  -0.00116   0.00048   0.02119
 Alpha virt. eigenvalues --    0.03303   0.09599   0.09620   0.10116   0.10761
 Alpha virt. eigenvalues --    0.11446   0.12559   0.13988   0.14911   0.15973

 Mulliken atomic charges:
              1
     1  C   -0.525729
     2  C    0.590113
     3  O   -0.438139
     4  O   -0.509360
     5  C    0.367042
     6  C   -0.154228
     7  C   -0.229460
     8  C    0.163452
     9  C    0.149941
    10  C   -0.268810
    11  C   -0.214952
    12  C   -0.191195
    13  C    0.103406
    14  C   -0.275604
    15  C    0.088622
    16  C   -0.161707
    17  C   -0.132393
    18  C   -0.117047
    19  C   -0.133084
    20  C   -0.159468
    21  H    0.184982
    22  H    0.184857
    23  H    0.184994
    24  H    0.138805
    25  H    0.123600
    26  H    0.131943
    27  H    0.124273
    28  H    0.120745
    29  H    0.128417
    30  H    0.148523
    31  H    0.142624
    32  H    0.143870
    33  H    0.142124
    34  H    0.148843
 Sum of Mulliken atomic charges =  -0.00000

 Dipole moment (field-independent basis, Debye):
    X=              2.8023    Y=              1.0629    Z=             -0.8515  Tot=              3.1157
 Quadrupole moment (field-independent basis, Debye-Ang):
   XX=            -81.1261   YY=           -108.1241   ZZ=           -119.2182
   XY=             -9.6536   XZ=              4.5320   YZ=              2.5849

 Summary of Natural Population Analysis:

                                       Natural Population
                Natural  -----------------------------------------------
    Atom  No    Charge         Core      Valence    Rydberg      Total
 -----------------------------------------------------------------------
      C    1   -0.77518      1.99933     4.76916    0.00669     6.77518
      C    2    0.82258      1.99945     3.13474    0.04323     5.17742
      O    3   -0.56834      1.99978     6.54847    0.02009     8.56834
      O    4   -0.53587      1.99970     6.52477    0.01140     8.53587
      C    5    0.34251      1.99871     3.63651    0.02227     5.65749
      C    6   -0.30008      1.99902     4.28605    0.01501     6.30008
      C    7   -0.23334      1.99907     4.21888    0.01539     6.23334
      C    8   -0.04309      1.99903     4.02902    0.01505     6.04309
      C    9   -0.02281      1.99903     4.00887    0.01491     6.02281
      C   10   -0.28352      1.99896     4.26899    0.01557     6.28352
      C   11   -0.23403      1.99906     4.21930    0.01567     6.23403
      C   12   -0.26059      1.99907     4.24695    0.01457     6.26059
      C   13   -0.01620      1.99901     4.00118    0.01600     6.01620
      C   14   -0.21422      1.99901     4.20076    0.01444     6.21422
      C   15   -0.01965      1.99901     4.00497    0.01567     6.01965
      C   16   -0.20442      1.99905     4.19230    0.01308     6.20442
      C   17   -0.22964      1.99911     4.21647    0.01406     6.22964
      C   18   -0.20098      1.99909     4.18810    0.01378     6.20098
      C   19   -0.23136      1.99911     4.21815    0.01410     6.23136
      C   20   -0.19888      1.99905     4.18706    0.01278     6.19888
      H   21    0.25786      0.00000     0.74121    0.00093     0.74214
      H   22    0.25871      0.00000     0.74043    0.00086     0.74129
      H   23    0.25867      0.00000     0.74044    0.00088     0.74133
      H   24    0.24948      0.00000     0.74959    0.00093     0.75052
      H   25    0.23115      0.00000     0.76775    0.00110     0.76885
      H   26    0.24149      0.00000     0.75708    0.00143     0.75851
      H   27    0.23189      0.00000     0.76704    0.00107     0.76811
      H   28    0.23207      0.00000     0.76699    0.00094     0.76793
      H   29    0.23005      0.00000     0.76854    0.00141     0.76995
      H   30    0.24464      0.00000     0.75404    0.00132     0.75536
      H   31    0.24275      0.00000     0.75642    0.00083     0.75725
      H   32    0.24052      0.00000     0.75864    0.00083     0.75948
      H   33    0.24251      0.00000     0.75667    0.00082     0.75749
      H   34    0.24531      0.00000     0.75336    0.00133     0.75469
 =======================================================================
   * Total *    0.00000     39.98264    97.67890    0.33846   138.00000

 Normal termination of Gaussian 09 at Wed Sep 29 13:05:47 2021.
