 Gaussian 09, Revision A.02,

 -----------------------------------
 #p opt b3lyp/6-31G* scf=(xqc,tight)
 -----------------------------------

 --------------------------------------
 O=C(C(C)C)Oc1c2ccccc2cc2c1cccc2_conf_0
 --------------------------------------
 Symbolic Z-matrix:
 Charge =  0 Multiplicity = 1

 SCF Done:  E(RB3LYP) =  -846.020428866     A.U. after   17 cycles
 SCF Done:  E(RB3LYP) =  -846.030907769     A.U. after   15 cycles
 SCF Done:  E(RB3LYP) =  -846.030553837     A.U. after   12 cycles
 SCF Done:  E(RB3LYP) =  -846.031554173     A.U. after   12 cycles
 SCF Done:  E(RB3LYP) =  -846.032176995     A.U. after   12 cycles
 SCF Done:  E(RB3LYP) =  -846.032412415     A.U. after   12 cycles
 SCF Done:  E(RB3LYP) =  -846.032507838     A.U. after   11 cycles
 SCF Done:  E(RB3LYP) =  -846.032543111     A.U. after   12 cycles
 SCF Done:  E(RB3LYP) =  -846.032557040     A.U. after   11 cycles
 SCF Done:  E(RB3LYP) =  -846.032557685     A.U. after    8 cycles
 SCF Done:  E(RB3LYP) =  -846.032558322     A.U. after    8 cycles
 SCF Done:  E(RB3LYP) =  -846.032558286     A.U. after    8 cycles
 SCF Done:  E(RB3LYP) =  -846.032558271     A.U. after    8 cycles
 SCF Done:  E(RB3LYP) =  -846.032558131     A.U. after    8 cycles
 Optimization completed.
    -- Stationary point found.
 Normal termination of Gaussian 09 at Wed Sep 29 20:09:51 2021.

 ----------------------------------------------------------------------
 #p freq b3lyp/6-31G* volume NMR pop=NPA density=current Geom=AllCheck
 Guess=Read
 ----------------------------------------------------------------------

 O=C(C(C)C)Oc1c2ccccc2cc2c1cccc2_conf_0
 --------------------------------------
 Redundant internal coordinates taken from checkpoint file:
 C18H16O2_a129_conf_0.chk
 Charge =  0 Multiplicity = 1

 SCF Done:  E(RB3LYP) =  -846.032558131     A.U. after    1 cycles

  1  O    Isotropic =   -76.5385   Anisotropy =   579.3249

  2  C    Isotropic =    22.6650   Anisotropy =    78.3932

  3  C    Isotropic =   153.5947   Anisotropy =    28.1576

  4  C    Isotropic =   170.5689   Anisotropy =    23.5738

  5  C    Isotropic =   168.2947   Anisotropy =    30.2228

  6  O    Isotropic =   112.0850   Anisotropy =   190.3732

  7  C    Isotropic =    50.0762   Anisotropy =    86.3512

  8  C    Isotropic =    71.0306   Anisotropy =   180.0516

  9  C    Isotropic =    72.3012   Anisotropy =   156.9110

 10  C    Isotropic =    70.2909   Anisotropy =   160.5154

 11  C    Isotropic =    70.4955   Anisotropy =   160.0959

 12  C    Isotropic =    67.0203   Anisotropy =   143.1910

 13  C    Isotropic =    64.6984   Anisotropy =   192.5731

 14  C    Isotropic =    70.0430   Anisotropy =   124.4930

 15  C    Isotropic =    64.6724   Anisotropy =   192.5755

 16  C    Isotropic =    71.0269   Anisotropy =   180.1640

 17  C    Isotropic =    72.3495   Anisotropy =   157.5892

 18  C    Isotropic =    70.3565   Anisotropy =   160.4332

 19  C    Isotropic =    70.4970   Anisotropy =   160.0258

 20  C    Isotropic =    66.9873   Anisotropy =   143.1257

 21  H    Isotropic =    29.0480   Anisotropy =     5.3534

 22  H    Isotropic =    30.7265   Anisotropy =     6.9418

 23  H    Isotropic =    30.7382   Anisotropy =     8.9571

 24  H    Isotropic =    31.3051   Anisotropy =     9.1663

 25  H    Isotropic =    30.6805   Anisotropy =     7.3883

 26  H    Isotropic =    30.7273   Anisotropy =     8.9315

 27  H    Isotropic =    29.9905   Anisotropy =     5.9661

 28  H    Isotropic =    24.2428   Anisotropy =    10.9852

 29  H    Isotropic =    24.7340   Anisotropy =     6.4335

 30  H    Isotropic =    24.7594   Anisotropy =     5.0923

 31  H    Isotropic =    24.3431   Anisotropy =     7.3224

 32  H    Isotropic =    24.1238   Anisotropy =     8.6409

 33  H    Isotropic =    24.2252   Anisotropy =    10.5913

 34  H    Isotropic =    24.7430   Anisotropy =     6.6342

 35  H    Isotropic =    24.7641   Anisotropy =     5.0827

 36  H    Isotropic =    24.3395   Anisotropy =     7.2967

  Exact polarizability: 224.772 -13.266 294.144  17.213   5.489  91.909
 Approx polarizability: 355.947 -25.216 503.533  42.109  15.416 156.431

                     1                      2                      3
                     A                      A                      A
 Frequencies --    16.7108                39.4039                44.5199
 Red. masses --     3.0313                 5.6397                 4.7134
 Frc consts  --     0.0005                 0.0052                 0.0055
 IR Inten    --     0.2258                 0.0441                 1.0478

                     4                      5                      6
                     A                      A                      A
 Frequencies --    62.7414                85.3645               124.8674
 Red. masses --     4.2546                 5.0413                 3.6824
 Frc consts  --     0.0099                 0.0216                 0.0338
 IR Inten    --     0.7566                 1.2652                 0.0049

                     7                      8                      9
                     A                      A                      A
 Frequencies --   174.1185               181.2529               212.0780
 Red. masses --     4.0794                 4.8220                 1.0518
 Frc consts  --     0.0729                 0.0933                 0.0279
 IR Inten    --     0.3847                 0.5573                 0.2113

                    10                     11                     12
                     A                      A                      A
 Frequencies --   230.0256               238.5378               254.3580
 Red. masses --     1.6756                 4.7274                 2.3604
 Frc consts  --     0.0522                 0.1585                 0.0900
 IR Inten    --     0.6109                 0.0050                 0.3868

                    13                     14                     15
                     A                      A                      A
 Frequencies --   291.4493               308.6124               328.5041
 Red. masses --     2.7658                 3.0705                 4.0535
 Frc consts  --     0.1384                 0.1723                 0.2577
 IR Inten    --     0.1380                 5.6287                 3.4380

                    16                     17                     18
                     A                      A                      A
 Frequencies --   345.7081               396.6817               411.9624
 Red. masses --     4.7923                 4.7781                 3.2909
 Frc consts  --     0.3375                 0.4430                 0.3291
 IR Inten    --     2.8499                 1.8970                 2.7190

                    19                     20                     21
                     A                      A                      A
 Frequencies --   419.0956               432.3265               485.8078
 Red. masses --     3.5715                 6.3826                 2.9074
 Frc consts  --     0.3696                 0.7029                 0.4043
 IR Inten    --     2.5295                 0.1819                 0.0041

                    22                     23                     24
                     A                      A                      A
 Frequencies --   506.4289               558.5252               581.4875
 Red. masses --     3.6527                 3.3323                 5.9186
 Frc consts  --     0.5520                 0.6125                 1.1791
 IR Inten    --     0.0079                 5.4872                 0.2996

                    25                     26                     27
                     A                      A                      A
 Frequencies --   595.9300               602.5476               626.7948
 Red. masses --     5.7229                 4.6735                 6.8512
 Frc consts  --     1.1975                 0.9997                 1.5859
 IR Inten    --     0.1154                 4.0850                 7.1684

                    28                     29                     30
                     A                      A                      A
 Frequencies --   654.5791               663.7786               713.6769
 Red. masses --     5.9363                 4.4149                 5.8404
 Frc consts  --     1.4986                 1.1461                 1.7527
 IR Inten    --     1.4274                 7.0730                 1.7297

                    31                     32                     33
                     A                      A                      A
 Frequencies --   745.7064               752.3940               755.0024
 Red. masses --     3.2627                 1.4127                 4.0387
 Frc consts  --     1.0690                 0.4712                 1.3564
 IR Inten    --     9.0469                47.0004                 0.0898

                    34                     35                     36
                     A                      A                      A
 Frequencies --   774.2114               789.4927               851.2104
 Red. masses --     1.3404                 3.1742                 1.7183
 Frc consts  --     0.4734                 1.1657                 0.7336
 IR Inten    --     0.0400                17.9823                11.9823

                    37                     38                     39
                     A                      A                      A
 Frequencies --   870.2442               871.4566               875.5771
 Red. masses --     1.6748                 2.3976                 4.6649
 Frc consts  --     0.7473                 1.0728                 2.1071
 IR Inten    --     0.4133                 2.3429                 0.5475

                    40                     41                     42
                     A                      A                      A
 Frequencies --   879.1794               898.2638               924.9528
 Red. masses --     5.4702                 1.6392                 3.1421
 Frc consts  --     2.4912                 0.7793                 1.5838
 IR Inten    --     1.9476                22.3693                 5.5346

                    43                     44                     45
                     A                      A                      A
 Frequencies --   944.4482               946.4791               959.2704
 Red. masses --     6.1326                 1.1741                 1.3140
 Frc consts  --     3.2229                 0.6197                 0.7124
 IR Inten    --     0.7534                 0.9880                 0.0296

                    46                     47                     48
                     A                      A                      A
 Frequencies --   962.2925               981.9168               989.8626
 Red. masses --     1.3390                 1.4543                 1.2705
 Frc consts  --     0.7305                 0.8261                 0.7335
 IR Inten    --     1.2855                 5.7101                 0.0105

                    49                     50                     51
                     A                      A                      A
 Frequencies --   991.1609              1043.7646              1045.1406
 Red. masses --     1.2809                 2.3557                 2.1472
 Frc consts  --     0.7414                 1.5121                 1.3819
 IR Inten    --     0.2752                 2.6554                 4.4181

                    52                     53                     54
                     A                      A                      A
 Frequencies --  1069.6926              1124.7860              1134.6956
 Red. masses --     5.4881                 1.9961                 2.7541
 Frc consts  --     3.6999                 1.4879                 2.0892
 IR Inten    --     2.0907               222.6646               316.0102

                    55                     56                     57
                     A                      A                      A
 Frequencies --  1137.5037              1155.3868              1181.6050
 Red. masses --     2.2049                 2.6126                 1.2326
 Frc consts  --     1.6809                 2.0548                 1.0140
 IR Inten    --     0.4689               219.0864                 0.5154

                    58                     59                     60
                     A                      A                      A
 Frequencies --  1192.5408              1203.1359              1214.5945
 Red. masses --     1.3213                 1.1245                 1.3502
 Frc consts  --     1.1071                 0.9590                 1.1736
 IR Inten    --     5.0835                 2.3573                 4.2660

                    61                     62                     63
                     A                      A                      A
 Frequencies --  1216.0442              1260.0312              1299.3585
 Red. masses --     1.6917                 1.6876                 2.0790
 Frc consts  --     1.4739                 1.5786                 2.0681
 IR Inten    --    26.4536                 0.9260                 4.8631

                    64                     65                     66
                     A                      A                      A
 Frequencies --  1316.3449              1344.0390              1374.5080
 Red. masses --     2.4406                 1.3857                 2.7837
 Frc consts  --     2.4916                 1.4749                 3.0986
 IR Inten    --    13.7002                10.1008               109.3292

                    67                     68                     69
                     A                      A                      A
 Frequencies --  1376.0885              1387.7829              1423.5468
 Red. masses --     2.8975                 2.2047                 4.8683
 Frc consts  --     3.2327                 2.5017                 5.8126
 IR Inten    --    10.3771                 1.6928                 2.7509

                    70                     71                     72
                     A                      A                      A
 Frequencies --  1426.4444              1427.2610              1448.6256
 Red. masses --     1.3271                 1.5270                 1.4076
 Frc consts  --     1.5909                 1.8327                 1.7403
 IR Inten    --     3.8666                 1.8542                17.8712

                    73                     74                     75
                     A                      A                      A
 Frequencies --  1450.6367              1495.0489              1501.1498
 Red. masses --     4.5436                 2.0468                 2.7772
 Frc consts  --     5.6334                 2.6954                 3.6873
 IR Inten    --     9.8423                 6.0629                 0.0138

                    76                     77                     78
                     A                      A                      A
 Frequencies --  1518.0087              1518.8298              1530.8902
 Red. masses --     1.0460                 1.0453                 1.0480
 Frc consts  --     1.4201                 1.4208                 1.4471
 IR Inten    --     3.5064                 0.3069                 7.9579

                    79                     80                     81
                     A                      A                      A
 Frequencies --  1535.0689              1541.7653              1590.2531
 Red. masses --     2.6120                 1.0577                 5.9802
 Frc consts  --     3.6264                 1.4813                 8.9105
 IR Inten    --     2.1694                21.9147                 1.4333

                    82                     83                     84
                     A                      A                      A
 Frequencies --  1609.4653              1636.2385              1682.9294
 Red. masses --     7.3034                 5.5423                 6.1133
 Frc consts  --    11.1465                 8.7424                10.2013
 IR Inten    --     4.3649                 2.2751                 0.4502

                    85                     86                     87
                     A                      A                      A
 Frequencies --  1687.6704              1848.7360              3044.2403
 Red. masses --     5.6169                12.3756                 1.0814
 Frc consts  --     9.4259                24.9210                 5.9044
 IR Inten    --     8.5522               170.5436                 8.6363

                    88                     89                     90
                     A                      A                      A
 Frequencies --  3053.3559              3062.3844              3119.2943
 Red. masses --     1.0376                 1.0357                 1.1023
 Frc consts  --     5.6993                 5.7228                 6.3193
 IR Inten    --    19.2083                24.2260                17.3160

                    91                     92                     93
                     A                      A                      A
 Frequencies --  3131.3805              3138.5330              3139.6995
 Red. masses --     1.1026                 1.1028                 1.1024
 Frc consts  --     6.3703                 6.4002                 6.4025
 IR Inten    --    31.9675                18.1852                28.3791

                    94                     95                     96
                     A                      A                      A
 Frequencies --  3178.9809              3181.8660              3183.7245
 Red. masses --     1.0887                 1.0860                 1.0873
 Frc consts  --     6.4821                 6.4780                 6.4936
 IR Inten    --     1.6224                 0.0436                 5.9189

                    97                     98                     99
                     A                      A                      A
 Frequencies --  3192.7996              3193.1493              3207.2316
 Red. masses --     1.0894                 1.0896                 1.0948
 Frc consts  --     6.5428                 6.5454                 6.6348
 IR Inten    --     4.1391                28.3458                45.5654

                   100                    101                    102
                     A                      A                      A
 Frequencies --  3207.6392              3223.6606              3227.1294
 Red. masses --     1.0950                 1.0939                 1.0933
 Frc consts  --     6.6378                 6.6976                 6.7083
 IR Inten    --    24.7029                19.9497                14.9422

 - Thermochemistry -
 -------------------
 Temperature   298.150 Kelvin.  Pressure   1.00000 Atm.
 Atom     1 has atomic number  8 and mass  15.99491

 Molecular mass:   264.11503 amu.
 Principal axes and moments of inertia in atomic units:
                           1         2         3
     Eigenvalues --  4400.594825626.393839399.02934
           X            0.99996   0.00677   0.00573
           Y           -0.00676   0.99998  -0.00135
           Z           -0.00574   0.00131   0.99998
 This molecule is an asymmetric top.
 Rotational symmetry number  1.
 Warning -- assumption of classical behavior for rotation
           may cause significant error
 Rotational temperatures (Kelvin)      0.01968     0.01539     0.00922
 Rotational constants (GHZ):           0.41011     0.32076     0.19201
 Zero-point vibrational energy     770309.4 (Joules/Mol)
                                  184.10837 (Kcal/Mol)
 Warning -- explicit consideration of  26 degrees of freedom as
           vibrations may cause significant error
 Vibrational temperatures:     24.04    56.69    64.05    90.27   122.82
          (Kelvin)            179.66   250.52   260.78   305.13   330.96
                              343.20   365.96   419.33   444.02   472.64
                              497.40   570.74   592.72   602.98   622.02
                              698.97   728.64   803.59   836.63   857.41
                              866.93   901.82   941.79   955.03  1026.82
                             1072.90  1082.53  1086.28  1113.92  1135.90
                             1224.70  1252.09  1253.83  1259.76  1264.94
                             1292.40  1330.80  1358.85  1361.77  1380.17
                             1384.52  1412.76  1424.19  1426.06  1501.74
                             1503.72  1539.05  1618.31  1632.57  1636.61
                             1662.34  1700.06  1715.80  1731.04  1747.53
                             1749.61  1812.90  1869.48  1893.92  1933.77
                             1977.61  1979.88  1996.71  2048.16  2052.33
                             2053.51  2084.25  2087.14  2151.04  2159.82
                             2184.07  2185.25  2202.61  2208.62  2218.25
                             2288.02  2315.66  2354.18  2421.36  2428.18
                             2659.92  4379.98  4393.09  4406.08  4487.96
                             4505.35  4515.64  4517.32  4573.84  4577.99
                             4580.66  4593.72  4594.22  4614.49  4615.07
                             4638.12  4643.11

 Zero-point correction=                           0.293395 (Hartree/Particle)
 Thermal correction to Energy=                    0.310302
 Thermal correction to Enthalpy=                  0.311246
 Thermal correction to Gibbs Free Energy=         0.247283
 Sum of electronic and zero-point Energies=           -845.739163
 Sum of electronic and thermal Energies=              -845.722256
 Sum of electronic and thermal Enthalpies=            -845.721312
 Sum of electronic and thermal Free Energies=         -845.785275

                     E (Thermal)             CV                S
                      KCal/Mol        Cal/Mol-Kelvin    Cal/Mol-Kelvin
 Total                  194.718             66.608            134.622
 Electronic               0.000              0.000              0.000
 Translational            0.889              2.981             42.613
 Rotational               0.889              2.981             33.809
 Vibrational            192.940             60.646             58.201
 Vibration     1          0.593              1.986              6.991
 Vibration     2          0.594              1.981              5.289
 Vibration     3          0.595              1.980              5.047
 Vibration     4          0.597              1.972              4.369
 Vibration     5          0.601              1.959              3.764
 Vibration     6          0.610              1.928              3.024
 Vibration     7          0.627              1.874              2.391
 Vibration     8          0.630              1.865              2.315
 Vibration     9          0.643              1.822              2.026
 Vibration    10          0.652              1.795              1.879
 Vibration    11          0.657              1.782              1.814
 Vibration    12          0.665              1.755              1.700
 Vibration    13          0.687              1.690              1.466
 Vibration    14          0.698              1.657              1.370
 Vibration    15          0.712              1.619              1.267
 Vibration    16          0.724              1.584              1.186
 Vibration    17          0.763              1.477              0.975
 Vibration    18          0.776              1.444              0.920
 Vibration    19          0.782              1.429              0.895
 Vibration    20          0.793              1.400              0.851
 Vibration    21          0.842              1.282              0.695
 Vibration    22          0.862              1.236              0.642
 Vibration    23          0.914              1.121              0.527
 Vibration    24          0.938              1.071              0.483
 Vibration    25          0.954              1.040              0.457
 Vibration    26          0.961              1.026              0.445

 Optimization completed.
    -- Stationary point found.
 Normal termination of Gaussian 09 at Wed Sep 29 22:13:45 2021.
 Gaussian 09:  AM64L-G09RevA.02 11-Jun-2009

 ----------------------------------------------------------------------
 #p TD(NStates=10, Root=1) b3lyp/6-31G* volume pop=NPA density=current
 Geom=AllCheck Guess=Read
 ----------------------------------------------------------------------

 O=C(C(C)C)Oc1c2ccccc2cc2c1cccc2_conf_0
 --------------------------------------
 Redundant internal coordinates taken from checkpoint file:
 C18H16O2_a129_conf_0.chk
 Charge =  0 Multiplicity = 1

                         Standard orientation:
 ---------------------------------------------------------------------
 Center     Atomic      Atomic             Coordinates (Angstroms)
 Number     Number       Type             X           Y           Z
 ---------------------------------------------------------------------
      1          8           0       -1.842876   -0.336345    1.515704
      2          6           0       -2.136884   -0.400557    0.349502
      3          6           0       -3.527002   -0.641478   -0.222061
      4          6           0       -4.486037   -1.106324    0.877259
      5          6           0       -4.035850    0.625732   -0.940048
      6          8           0       -1.223418   -0.250975   -0.673645
      7          6           0        0.118500   -0.038677   -0.336481
      8          6           0        0.962009   -1.154818   -0.240292
      9          6           0        0.502643   -2.494991   -0.427350
     10          6           0        1.367025   -3.552309   -0.318545
     11          6           0        2.743386   -3.338136   -0.017307
     12          6           0        3.221339   -2.067359    0.160548
     13          6           0        2.358445   -0.932299    0.053787
     14          6           0        2.827005    0.374847    0.225379
     15          6           0        1.977561    1.480700    0.110325
     16          6           0        0.577489    1.277253   -0.182188
     17          6           0       -0.272104    2.419256   -0.308654
     18          6           0        0.227666    3.684554   -0.146747
     19          6           0        1.606055    3.889451    0.151281
     20          6           0        2.451751    2.819661    0.273952
     21          1           0       -3.420996   -1.430635   -0.978708
     22          1           0       -4.592429   -0.339130    1.650558
     23          1           0       -4.123732   -2.016695    1.364344
     24          1           0       -5.474684   -1.310955    0.452452
     25          1           0       -4.128945    1.461198   -0.235971
     26          1           0       -5.025784    0.438653   -1.369787
     27          1           0       -3.362344    0.924199   -1.748512
     28          1           0       -0.541503   -2.661904   -0.668471
     29          1           0        1.004092   -4.566007   -0.464620
     30          1           0        3.411714   -4.190628    0.067043
     31          1           0        4.271197   -1.896697    0.386232
     32          1           0        3.879181    0.535963    0.449407
     33          1           0       -1.320074    2.270387   -0.543839
     34          1           0       -0.430156    4.543570   -0.246881
     35          1           0        1.981620    4.901062    0.278265
     36          1           0        3.505217    2.969149    0.497865
 ---------------------------------------------------------------------

 SCF Done:  E(RB3LYP) =  -846.032558131     A.U. after    1 cycles

 Excitation energies and oscillator strengths:

 Excited State   1:      Singlet-A      3.2090 eV  386.36 nm  f=0.0843  <S**2>=0.000
      70 -> 71         0.70076
 This state for optimization and/or second-order correction.
 Total Energy, E(TD-HF/TD-KS) =  -845.914628279
 Copying the excited state density for this state as the 1-particle RhoCI density.

 Excited State   2:      Singlet-A      3.8834 eV  319.26 nm  f=0.0002  <S**2>=0.000
      69 -> 71         0.50195
      70 -> 72        -0.49553

 Excited State   3:      Singlet-A      4.5411 eV  273.03 nm  f=0.0001  <S**2>=0.000
      68 -> 71         0.52659
      70 -> 73        -0.44325
      70 -> 74         0.15178

 Excited State   4:      Singlet-A      4.6674 eV  265.64 nm  f=0.0030  <S**2>=0.000
      68 -> 71         0.27611
      70 -> 73         0.47421
      70 -> 74         0.43511

 Excited State   5:      Singlet-A      4.9544 eV  250.25 nm  f=0.0006  <S**2>=0.000
      68 -> 71        -0.36889
      70 -> 73        -0.26284
      70 -> 74         0.52334

 Excited State   6:      Singlet-A      4.9984 eV  248.05 nm  f=0.0047  <S**2>=0.000
      67 -> 71         0.70214

 Excited State   7:      Singlet-A      5.2584 eV  235.78 nm  f=1.7418  <S**2>=0.000
      69 -> 71         0.49501
      70 -> 72         0.49985

 Excited State   8:      Singlet-A      5.4437 eV  227.76 nm  f=0.0003  <S**2>=0.000
      66 -> 71         0.58628
      70 -> 75        -0.37676

 Excited State   9:      Singlet-A      5.5793 eV  222.22 nm  f=0.0003  <S**2>=0.000
      65 -> 71        -0.35292
      68 -> 72         0.46637
      69 -> 73        -0.25583
      69 -> 74         0.21572
      70 -> 75         0.11526
      70 -> 76         0.16661

 Excited State  10:      Singlet-A      5.7004 eV  217.50 nm  f=0.0002  <S**2>=0.000
      67 -> 72        -0.11389
      67 -> 73         0.54208
      67 -> 74         0.41356

 The electronic state is 1-A.
 Alpha  occ. eigenvalues --  -19.19830 -19.14139 -10.31769 -10.25013 -10.21064
 Alpha  occ. eigenvalues --  -10.20241 -10.20233 -10.20182 -10.20180 -10.19321
 Alpha  occ. eigenvalues --  -10.19309 -10.19292 -10.19281 -10.19235 -10.19224
 Alpha  occ. eigenvalues --  -10.19215 -10.19199 -10.19166 -10.18950 -10.17955
 Alpha  occ. eigenvalues --   -1.10581  -1.02415  -0.88062  -0.85004  -0.81406
 Alpha  occ. eigenvalues --   -0.79988  -0.78012  -0.75293  -0.74049  -0.71074
 Alpha  occ. eigenvalues --   -0.69216  -0.66484  -0.64109  -0.62147  -0.59714
 Alpha  occ. eigenvalues --   -0.59223  -0.55828  -0.53509  -0.53123  -0.50584
 Alpha  occ. eigenvalues --   -0.49457  -0.47308  -0.47143  -0.46277  -0.46249
 Alpha  occ. eigenvalues --   -0.44958  -0.43678  -0.43242  -0.42131  -0.41880
 Alpha  occ. eigenvalues --   -0.41163  -0.39694  -0.39526  -0.39077  -0.38823
 Alpha  occ. eigenvalues --   -0.37945  -0.36577  -0.36099  -0.35215  -0.34922
 Alpha  occ. eigenvalues --   -0.34600  -0.34153  -0.33261  -0.30905  -0.30232
 Alpha  occ. eigenvalues --   -0.29215  -0.27322  -0.25622  -0.24105  -0.19337
 Alpha virt. eigenvalues --   -0.06356  -0.01430   0.00287   0.00831   0.04574
 Alpha virt. eigenvalues --    0.06438   0.07811   0.09854   0.10050   0.12112
 Alpha virt. eigenvalues --    0.12270   0.13016   0.14708   0.14957   0.15427

 Mulliken atomic charges:
              1
     1  O   -0.443193
     2  C    0.618578
     3  C   -0.172562
     4  C   -0.437364
     5  C   -0.457131
     6  O   -0.546322
     7  C    0.159183
     8  C    0.146621
     9  C   -0.191340
    10  C   -0.136686
    11  C   -0.131893
    12  C   -0.200312
    13  C    0.142575
    14  C   -0.282913
    15  C    0.143196
    16  C    0.150122
    17  C   -0.193751
    18  C   -0.139413
    19  C   -0.131082
    20  C   -0.200525
    21  H    0.159814
    22  H    0.163947
    23  H    0.158419
    24  H    0.141866
    25  H    0.157417
    26  H    0.155958
    27  H    0.169671
    28  H    0.133682
    29  H    0.131182
    30  H    0.131944
    31  H    0.131915
    32  H    0.133699
    33  H    0.139431
    34  H    0.131246
    35  H    0.132015
    36  H    0.132005
 Sum of Mulliken atomic charges =  -0.00000

 Dipole moment (field-independent basis, Debye):
    X=             -0.4220    Y=              0.0044    Z=             -1.4683  Tot=              1.5277
 Quadrupole moment (field-independent basis, Debye-Ang):
   XX=            -97.9790   YY=           -103.2437   ZZ=           -124.1491
   XY=              0.5650   XZ=              6.0532   YZ=              1.3626

 Summary of Natural Population Analysis:

                                       Natural Population
                Natural  -----------------------------------------------
    Atom  No    Charge         Core      Valence    Rydberg      Total
 -----------------------------------------------------------------------
      O    1   -0.56447      1.99977     6.54454    0.02016     8.56447
      C    2    0.83304      1.99935     3.11982    0.04779     5.16696
      C    3   -0.35027      1.99913     4.33951    0.01163     6.35027
      C    4   -0.67483      1.99944     4.66547    0.00991     6.67483
      C    5   -0.67304      1.99942     4.66515    0.00846     6.67304
      O    6   -0.55361      1.99971     6.54294    0.01097     8.55361
      C    7    0.35499      1.99861     3.62233    0.02406     5.64501
      C    8   -0.07917      1.99894     4.06546    0.01478     6.07917
      C    9   -0.21251      1.99906     4.19835    0.01510     6.21251
      C   10   -0.22744      1.99910     4.21345    0.01488     6.22744
      C   11   -0.22807      1.99910     4.21424    0.01473     6.22807
      C   12   -0.21116      1.99906     4.19752    0.01458     6.21116
      C   13   -0.05081      1.99903     4.03684    0.01495     6.05081
      C   14   -0.17130      1.99901     4.15869    0.01361     6.17130
      C   15   -0.05084      1.99903     4.03687    0.01494     6.05084
      C   16   -0.07926      1.99894     4.06553    0.01479     6.07926
      C   17   -0.21089      1.99906     4.19660    0.01523     6.21089
      C   18   -0.22720      1.99910     4.21322    0.01487     6.22720
      C   19   -0.22798      1.99910     4.21415    0.01473     6.22798
      C   20   -0.21040      1.99906     4.19677    0.01457     6.21040
      H   21    0.26185      0.00000     0.73606    0.00209     0.73815
      H   22    0.24091      0.00000     0.75779    0.00130     0.75909
      H   23    0.24268      0.00000     0.75644    0.00088     0.75732
      H   24    0.23215      0.00000     0.76699    0.00087     0.76785
      H   25    0.23205      0.00000     0.76677    0.00118     0.76795
      H   26    0.23900      0.00000     0.76009    0.00091     0.76100
      H   27    0.24359      0.00000     0.75527    0.00114     0.75641
      H   28    0.23763      0.00000     0.76109    0.00128     0.76237
      H   29    0.23673      0.00000     0.76247    0.00081     0.76327
      H   30    0.23714      0.00000     0.76205    0.00081     0.76286
      H   31    0.23347      0.00000     0.76543    0.00110     0.76653
      H   32    0.23338      0.00000     0.76529    0.00133     0.76662
      H   33    0.23727      0.00000     0.76151    0.00122     0.76273
      H   34    0.23669      0.00000     0.76250    0.00081     0.76331
      H   35    0.23717      0.00000     0.76201    0.00081     0.76283
      H   36    0.23351      0.00000     0.76539    0.00110     0.76649
 =======================================================================
   * Total *   -0.00000     39.98301    99.67459    0.34240   140.00000

 Normal termination of Gaussian 09 at Thu Sep 30 05:35:09 2021.
