 Gaussian 09, Revision A.02,

 -----------------------------------
 #p opt b3lyp/6-31G* scf=(xqc,tight)
 -----------------------------------

 --------------------------------------------
 Clc1ccc(cc1)c1ccc(cc1)c1ccc(cc1)B(O)O_conf_0
 --------------------------------------------
 Symbolic Z-matrix:
 Charge =  0 Multiplicity = 1

 SCF Done:  E(RB3LYP) =  -1329.92234239     A.U. after   15 cycles
 SCF Done:  E(RB3LYP) =  -1329.93424535     A.U. after   16 cycles
 SCF Done:  E(RB3LYP) =  -1329.93717051     A.U. after   15 cycles
 SCF Done:  E(RB3LYP) =  -1329.94351110     A.U. after   15 cycles
 SCF Done:  E(RB3LYP) =  -1329.94796627     A.U. after   15 cycles
 SCF Done:  E(RB3LYP) =  -1329.95321478     A.U. after   11 cycles
 SCF Done:  E(RB3LYP) =  -1329.95936219     A.U. after   12 cycles
 SCF Done:  E(RB3LYP) =  -1329.96381504     A.U. after   12 cycles
 SCF Done:  E(RB3LYP) =  -1329.96506732     A.U. after   15 cycles
 SCF Done:  E(RB3LYP) =  -1329.96540094     A.U. after   15 cycles
 SCF Done:  E(RB3LYP) =  -1329.96935799     A.U. after   12 cycles
 SCF Done:  E(RB3LYP) =  -1329.96952327     A.U. after   15 cycles
 SCF Done:  E(RB3LYP) =  -1329.97055075     A.U. after   15 cycles
 SCF Done:  E(RB3LYP) =  -1329.97066116     A.U. after   15 cycles
 SCF Done:  E(RB3LYP) =  -1329.97068920     A.U. after    9 cycles
 SCF Done:  E(RB3LYP) =  -1329.97071010     A.U. after   10 cycles
 SCF Done:  E(RB3LYP) =  -1329.97071252     A.U. after   15 cycles
 SCF Done:  E(RB3LYP) =  -1329.97071266     A.U. after   14 cycles
 Optimization completed.
    -- Stationary point found.
 Normal termination of Gaussian 09 at Mon Oct  4 00:12:23 2021.

 ----------------------------------------------------------------------
 #p freq b3lyp/6-31G* volume NMR pop=NPA density=current Geom=AllCheck
 Guess=Read
 ----------------------------------------------------------------------

 Clc1ccc(cc1)c1ccc(cc1)c1ccc(cc1)B(O)O_conf_0
 --------------------------------------------
 Redundant internal coordinates taken from checkpoint file:
 C18H14BClO2_c231_conf_0.chk
 Charge =  0 Multiplicity = 1

 SCF Done:  E(RB3LYP) =  -1329.97071266     A.U. after    1 cycles

  1  Cl   Isotropic =   729.4912   Anisotropy =   450.2660

  2  C    Isotropic =    53.9555   Anisotropy =   103.7935

  3  C    Isotropic =    66.9726   Anisotropy =   139.9464

  4  C    Isotropic =    68.0099   Anisotropy =   150.4121

  5  C    Isotropic =    55.8550   Anisotropy =   175.5857

  6  C    Isotropic =    68.0099   Anisotropy =   150.4121

  7  C    Isotropic =    66.9726   Anisotropy =   139.9464

  8  C    Isotropic =    56.4508   Anisotropy =   171.5285

  9  C    Isotropic =    68.4059   Anisotropy =   152.4990

 10  C    Isotropic =    67.8346   Anisotropy =   154.0245

 11  C    Isotropic =    54.0829   Anisotropy =   175.3206

 12  C    Isotropic =    67.8348   Anisotropy =   154.0248

 13  C    Isotropic =    68.4060   Anisotropy =   152.4993

 14  C    Isotropic =    52.6005   Anisotropy =   178.0521

 15  C    Isotropic =    69.9875   Anisotropy =   151.4690

 16  C    Isotropic =    59.7545   Anisotropy =   176.4366

 17  C    Isotropic =    66.3326   Anisotropy =   191.7447

 18  C    Isotropic =    59.7540   Anisotropy =   176.4369

 19  C    Isotropic =    69.9873   Anisotropy =   151.4691

 20  B    Isotropic =    85.3619   Anisotropy =    17.1074

 21  O    Isotropic =   226.7464   Anisotropy =    59.4804

 22  O    Isotropic =   226.7472   Anisotropy =    59.4790

 23  H    Isotropic =    25.0633   Anisotropy =     7.3124

 24  H    Isotropic =    24.8695   Anisotropy =     8.5460

 25  H    Isotropic =    24.8696   Anisotropy =     8.5460

 26  H    Isotropic =    25.0633   Anisotropy =     7.3124

 27  H    Isotropic =    24.8225   Anisotropy =     8.6934

 28  H    Isotropic =    24.7165   Anisotropy =     8.7857

 29  H    Isotropic =    24.7165   Anisotropy =     8.7855

 30  H    Isotropic =    24.8225   Anisotropy =     8.6933

 31  H    Isotropic =    24.7968   Anisotropy =     8.9299

 32  H    Isotropic =    24.1323   Anisotropy =     8.8597

 33  H    Isotropic =    24.1323   Anisotropy =     8.8599

 34  H    Isotropic =    24.7968   Anisotropy =     8.9299

 35  H    Isotropic =    29.4026   Anisotropy =    13.2469

 36  H    Isotropic =    29.4026   Anisotropy =    13.2470

  Exact polarizability: 451.525   0.000 192.182   0.000   0.866  84.750
 Approx polarizability: 557.646   0.000 360.161  -0.000   4.568 137.886

                     1                      2                      3
                     A                      A                      A
 Frequencies --    21.0114                35.2116                38.2393
 Red. masses --     8.6664                 5.5383                 7.9117
 Frc consts  --     0.0023                 0.0040                 0.0068
 IR Inten    --     0.1507                 0.0027                 0.1321

                     4                      5                      6
                     A                      A                      A
 Frequencies --    58.2012                59.2972                87.3181
 Red. masses --     7.6545                 4.4961                 3.8040
 Frc consts  --     0.0153                 0.0093                 0.0171
 IR Inten    --     1.6061                 0.0034                 0.0002

                     7                      8                      9
                     A                      A                      A
 Frequencies --   102.6125               123.7504               160.6984
 Red. masses --     6.6305                 6.8190                 9.4579
 Frc consts  --     0.0411                 0.0615                 0.1439
 IR Inten    --     1.7857                 1.2255                 0.0000

                    10                     11                     12
                     A                      A                      A
 Frequencies --   169.4442               194.7884               262.6080
 Red. masses --     5.7938                 6.0034                 6.4750
 Frc consts  --     0.0980                 0.1342                 0.2631
 IR Inten    --     1.8900                 2.8818                 0.9593

                    13                     14                     15
                     A                      A                      A
 Frequencies --   295.2471               298.2376               362.5255
 Red. masses --     5.8541                 8.6833                 4.6586
 Frc consts  --     0.3007                 0.4551                 0.3607
 IR Inten    --     1.9484                11.5589                 5.5456

                    16                     17                     18
                     A                      A                      A
 Frequencies --   380.4720               389.6016               409.0647
 Red. masses --     5.7687                 1.1984                 6.1160
 Frc consts  --     0.4920                 0.1072                 0.6030
 IR Inten    --     1.5096                 0.1147                 1.8055

                    19                     20                     21
                     A                      A                      A
 Frequencies --   417.9645               422.4023               426.9766
 Red. masses --     2.7228                 2.6156                 2.9705
 Frc consts  --     0.2803                 0.2750                 0.3191
 IR Inten    --     2.5238                 0.0757                 0.0786

                    22                     23                     24
                     A                      A                      A
 Frequencies --   428.3922               473.2722               493.9845
 Red. masses --     5.6160                 3.8993                 2.6324
 Frc consts  --     0.6072                 0.5146                 0.3785
 IR Inten    --     4.8104                11.7480                72.9429

                    25                     26                     27
                     A                      A                      A
 Frequencies --   506.7004               526.7320               556.8684
 Red. masses --     6.0865                 2.1708                 1.9462
 Frc consts  --     0.9207                 0.3549                 0.3556
 IR Inten    --    47.8379                24.0873                83.1604

                    28                     29                     30
                     A                      A                      A
 Frequencies --   585.1469               588.5574               641.8895
 Red. masses --     2.3844                 4.0807                 7.0425
 Frc consts  --     0.4810                 0.8328                 1.7096
 IR Inten    --    24.7228                17.6648                 5.3589

                    31                     32                     33
                     A                      A                      A
 Frequencies --   650.0505               650.5140               660.7930
 Red. masses --     4.7479                 6.7755                 6.6438
 Frc consts  --     1.1821                 1.6893                 1.7092
 IR Inten    --    61.0944                 4.8330                 1.8455

                    34                     35                     36
                     A                      A                      A
 Frequencies --   697.6432               722.2763               747.6201
 Red. masses --     6.3545                 4.1466                 3.9764
 Frc consts  --     1.8222                 1.2745                 1.3095
 IR Inten    --    26.4362                 0.2533                 1.3829

                    37                     38                     39
                     A                      A                      A
 Frequencies --   762.4121               770.0026               804.1659
 Red. masses --     6.2637                 3.9286                 6.3044
 Frc consts  --     2.1452                 1.3724                 2.4021
 IR Inten    --     0.0129                 5.6993                 6.9638

                    40                     41                     42
                     A                      A                      A
 Frequencies --   831.9491               840.6697               855.9474
 Red. masses --     1.4459                 1.2468                 1.6076
 Frc consts  --     0.5896                 0.5192                 0.6939
 IR Inten    --    94.8983                 0.1382                 2.9944

                    43                     44                     45
                     A                      A                      A
 Frequencies --   856.8058               870.2670               879.6018
 Red. masses --     1.2464                 1.2462                 1.7609
 Frc consts  --     0.5391                 0.5561                 0.8027
 IR Inten    --     0.0325                 0.2708                 9.2521

                    46                     47                     48
                     A                      A                      A
 Frequencies --   946.7927               963.9767               964.4414
 Red. masses --     1.1016                 1.2810                 1.3329
 Frc consts  --     0.5818                 0.7014                 0.7305
 IR Inten    --   178.5715                 0.0234                 1.5092

                    49                     50                     51
                     A                      A                      A
 Frequencies --   970.3465               975.9742               987.5083
 Red. masses --     1.3358                 1.2980                 1.3530
 Frc consts  --     0.7410                 0.7285                 0.7774
 IR Inten    --     1.1190                 0.0079                 1.1330

                    52                     53                     54
                     A                      A                      A
 Frequencies --   992.0788              1010.6400              1018.7772
 Red. masses --     1.2958                 3.4921                 5.4995
 Frc consts  --     0.7514                 2.1015                 3.3631
 IR Inten    --     0.0967               309.7402                 1.2535

                    55                     56                     57
                     A                      A                      A
 Frequencies --  1024.9826              1036.8631              1048.5758
 Red. masses --     6.0263                 3.6275                 2.6964
 Frc consts  --     3.7302                 2.2977                 1.7468
 IR Inten    --    13.9707                 3.8923                25.5401

                    58                     59                     60
                     A                      A                      A
 Frequencies --  1067.7186              1112.7790              1139.4038
 Red. masses --     2.2374                 2.7745                 2.1010
 Frc consts  --     1.5028                 2.0242                 1.6071
 IR Inten    --     3.0130                74.5115                20.6698

                    61                     62                     63
                     A                      A                      A
 Frequencies --  1141.5947              1144.6491              1151.9211
 Red. masses --     1.3758                 1.4496                 1.3819
 Frc consts  --     1.0564                 1.1190                 1.0803
 IR Inten    --     5.2852                 4.5481                 2.6878

                    64                     65                     66
                     A                      A                      A
 Frequencies --  1215.3423              1224.1413              1229.8034
 Red. masses --     1.1388                 1.1370                 1.1374
 Frc consts  --     0.9910                 1.0039                 1.0135
 IR Inten    --     0.2706                 0.4774                 0.6538

                    67                     68                     69
                     A                      A                      A
 Frequencies --  1304.2241              1314.9004              1315.4387
 Red. masses --     4.0807                 4.9675                 3.2855
 Frc consts  --     4.0897                 5.0603                 3.3496
 IR Inten    --     0.5974                 0.5773                 6.7977

                    70                     71                     72
                     A                      A                      A
 Frequencies --  1316.5005              1331.0389              1337.2274
 Red. masses --     2.6610                 3.2152                 1.4220
 Frc consts  --     2.7173                 3.3561                 1.4982
 IR Inten    --     1.3190                10.6936                 2.5626

                    73                     74                     75
                     A                      A                      A
 Frequencies --  1349.9143              1355.4937              1392.6452
 Red. masses --     2.0825                 1.6271                 3.3768
 Frc consts  --     2.2359                 1.7615                 3.8586
 IR Inten    --     1.7411                 0.6174               485.4383

                    76                     77                     78
                     A                      A                      A
 Frequencies --  1399.6498              1436.6051              1444.2260
 Red. masses --     6.8015                 2.8441                 2.8894
 Frc consts  --     7.8504                 3.4584                 3.5508
 IR Inten    --   222.5507                21.5568                46.9151

                    79                     80                     81
                     A                      A                      A
 Frequencies --  1465.6768              1533.6616              1553.7720
 Red. masses --     3.0855                 2.1839                 2.4261
 Frc consts  --     3.9053                 3.0266                 3.4510
 IR Inten    --    17.9426               104.2253                 8.9653

                    82                     83                     84
                     A                      A                      A
 Frequencies --  1572.9437              1589.0412              1611.5940
 Red. masses --     2.7614                 5.5734                 6.4750
 Frc consts  --     4.0253                 8.2916                 9.9083
 IR Inten    --     7.7787                 7.7123                 5.3126

                    85                     86                     87
                     A                      A                      A
 Frequencies --  1626.8355              1651.0054              1664.3842
 Red. masses --     7.1861                 5.6315                 5.5719
 Frc consts  --    11.2055                 9.0441                 9.0941
 IR Inten    --     0.9624                 3.8595                49.6075

                    88                     89                     90
                     A                      A                      A
 Frequencies --  1670.1095              3186.0681              3186.1726
 Red. masses --     5.7360                 1.0871                 1.0872
 Frc consts  --     9.4264                 6.5018                 6.5026
 IR Inten    --    52.2591                45.5584                 1.1313

                    91                     92                     93
                     A                      A                      A
 Frequencies --  3189.5764              3190.1081              3200.8549
 Red. masses --     1.0872                 1.0872                 1.0886
 Frc consts  --     6.5165                 6.5187                 6.5712
 IR Inten    --     3.0468                 1.0724                 5.1777

                    94                     95                     96
                     A                      A                      A
 Frequencies --  3200.9991              3204.5575              3206.3953
 Red. masses --     1.0892                 1.0925                 1.0938
 Frc consts  --     6.5752                 6.6100                 6.6257
 IR Inten    --     3.8353                 4.7382                 0.0541

                    97                     98                     99
                     A                      A                      A
 Frequencies --  3206.8346              3209.4087              3223.1056
 Red. masses --     1.0927                 1.0941                 1.0937
 Frc consts  --     6.6206                 6.6399                 6.6945
 IR Inten    --    48.6920                 1.3325                 8.8188

                   100                    101                    102
                     A                      A                      A
 Frequencies --  3224.4235              3782.7254              3786.7818
 Red. masses --     1.0945                 1.0671                 1.0650
 Frc consts  --     6.7043                 8.9964                 8.9978
 IR Inten    --     2.4949                 6.3104                53.2809

 - Thermochemistry -
 -------------------
 Temperature   298.150 Kelvin.  Pressure   1.00000 Atm.
 Atom     1 has atomic number 17 and mass  34.96885

 Molecular mass:   308.07754 amu.
 Principal axes and moments of inertia in atomic units:
                           1         2         3
     Eigenvalues --  1122.82429********************
           X            1.00000  -0.00000   0.00000
           Y            0.00000   0.99999   0.00349
           Z           -0.00000  -0.00349   0.99999
 This molecule is an asymmetric top.
 Rotational symmetry number  1.
 Warning -- assumption of classical behavior for rotation
           may cause significant error
 Rotational temperatures (Kelvin)      0.07714     0.00311     0.00300
 Rotational constants (GHZ):           1.60732     0.06473     0.06259
 Zero-point vibrational energy     728054.1 (Joules/Mol)
                                  174.00911 (Kcal/Mol)
 Warning -- explicit consideration of  29 degrees of freedom as
           vibrations may cause significant error
 Vibrational temperatures:     30.23    50.66    55.02    83.74    85.32
          (Kelvin)            125.63   147.64   178.05   231.21   243.79
                              280.26   377.83   424.79   429.10   521.59
                              547.41   560.55   588.55   601.36   607.74
                              614.32   616.36   680.93   710.73   729.03
                              757.85   801.21   841.89   846.80   923.53
                              935.28   935.94   950.73  1003.75  1039.19
                             1075.66  1096.94  1107.86  1157.01  1196.99
                             1209.53  1231.52  1232.75  1252.12  1265.55
                             1362.22  1386.95  1387.61  1396.11  1404.21
                             1420.80  1427.38  1454.08  1465.79  1474.72
                             1491.81  1508.66  1536.21  1601.04  1639.35
                             1642.50  1646.89  1657.36  1748.60  1761.26
                             1769.41  1876.49  1891.85  1892.62  1894.15
                             1915.07  1923.97  1942.22  1950.25  2003.70
                             2013.78  2066.95  2077.92  2108.78  2206.59
                             2235.53  2263.11  2286.27  2318.72  2340.65
                             2375.43  2394.67  2402.91  4584.04  4584.19
                             4589.08  4589.85  4605.31  4605.52  4610.64
                             4613.28  4613.91  4617.62  4637.32  4639.22
                             5442.49  5448.33

 Zero-point correction=                           0.277301 (Hartree/Particle)
 Thermal correction to Energy=                    0.295816
 Thermal correction to Enthalpy=                  0.296760
 Thermal correction to Gibbs Free Energy=         0.228282
 Sum of electronic and zero-point Energies=          -1329.693411
 Sum of electronic and thermal Energies=             -1329.674896
 Sum of electronic and thermal Enthalpies=           -1329.673952
 Sum of electronic and thermal Free Energies=        -1329.742431

                     E (Thermal)             CV                S
                      KCal/Mol        Cal/Mol-Kelvin    Cal/Mol-Kelvin
 Total                  185.627             72.602            144.125
 Electronic               0.000              0.000              0.000
 Translational            0.889              2.981             43.072
 Rotational               0.889              2.981             35.155
 Vibrational            183.850             66.640             65.897
 Vibration     1          0.593              1.986              6.536
 Vibration     2          0.594              1.982              5.512
 Vibration     3          0.594              1.982              5.348
 Vibration     4          0.596              1.974              4.517
 Vibration     5          0.597              1.974              4.480
 Vibration     6          0.601              1.958              3.719
 Vibration     7          0.605              1.947              3.404
 Vibration     8          0.610              1.929              3.041
 Vibration     9          0.622              1.891              2.542
 Vibration    10          0.625              1.880              2.442
 Vibration    11          0.635              1.847              2.182
 Vibration    12          0.670              1.741              1.644
 Vibration    13          0.689              1.683              1.444
 Vibration    14          0.691              1.677              1.427
 Vibration    15          0.736              1.549              1.111
 Vibration    16          0.750              1.512              1.037
 Vibration    17          0.758              1.492              1.002
 Vibration    18          0.773              1.451              0.930
 Vibration    19          0.781              1.431              0.899
 Vibration    20          0.785              1.422              0.884
 Vibration    21          0.789              1.412              0.869
 Vibration    22          0.790              1.408              0.864
 Vibration    23          0.830              1.309              0.728
 Vibration    24          0.850              1.263              0.673
 Vibration    25          0.862              1.235              0.642
 Vibration    26          0.882              1.191              0.595
 Vibration    27          0.912              1.125              0.530
 Vibration    28          0.942              1.063              0.476
 Vibration    29          0.946              1.056              0.470

 Optimization completed.
    -- Stationary point found.
 Normal termination of Gaussian 09 at Mon Oct  4 03:53:18 2021.
 Gaussian 09:  AM64L-G09RevA.02 11-Jun-2009

 ----------------------------------------------------------------------
 #p TD(NStates=10, Root=1) b3lyp/6-31G* volume pop=NPA density=current
 Geom=AllCheck Guess=Read
 ----------------------------------------------------------------------

 Clc1ccc(cc1)c1ccc(cc1)c1ccc(cc1)B(O)O_conf_0
 --------------------------------------------
 Redundant internal coordinates taken from checkpoint file:
 C18H14BClO2_c231_conf_0.chk
 Charge =  0 Multiplicity = 1

                         Standard orientation:
 ---------------------------------------------------------------------
 Center     Atomic      Atomic             Coordinates (Angstroms)
 Number     Number       Type             X           Y           Z
 ---------------------------------------------------------------------
      1         17           0       -7.817313   -0.000022   -0.000030
      2          6           0       -6.057934   -0.000008   -0.000007
      3          6           0       -5.369852   -1.194913    0.204241
      4          6           0       -3.976769   -1.185832    0.203798
      5          6           0       -3.250810    0.000013    0.000024
      6          6           0       -3.976782    1.185844   -0.203785
      7          6           0       -5.369865    1.194906   -0.204250
      8          6           0       -1.767611    0.000017    0.000020
      9          6           0       -1.039449   -1.072318   -0.542221
     10          6           0        0.351581   -1.072290   -0.541739
     11          6           0        1.080837    0.000018    0.000020
     12          6           0        0.351580    1.072325    0.541788
     13          6           0       -1.039448    1.072352    0.542269
     14          6           0        2.564040    0.000012    0.000025
     15          6           0        3.288868   -1.189502    0.191577
     16          6           0        4.680533   -1.186124    0.190405
     17          6           0        5.410704   -0.000017   -0.000021
     18          6           0        4.680548    1.186106   -0.190439
     19          6           0        3.288885    1.189510   -0.191577
     20          5           0        6.972122   -0.000018   -0.000047
     21          8           0        7.620333   -1.198543    0.188374
     22          8           0        7.620326    1.198521   -0.188387
     23          1           0       -5.917044   -2.116694    0.371618
     24          1           0       -3.444957   -2.114075    0.391144
     25          1           0       -3.444981    2.114092   -0.391138
     26          1           0       -5.917067    2.116678   -0.371646
     27          1           0       -1.569895   -1.901037   -1.003189
     28          1           0        0.882629   -1.901211   -1.000975
     29          1           0        0.882629    1.901237    1.001035
     30          1           0       -1.569895    1.901063    1.003248
     31          1           0        2.753824   -2.118324    0.370265
     32          1           0        5.216395   -2.118115    0.348395
     33          1           0        5.216425    2.118083   -0.348455
     34          1           0        2.753852    2.118337   -0.370274
     35          1           0        8.586093   -1.142760    0.180137
     36          1           0        8.586087    1.142770   -0.180091
 ---------------------------------------------------------------------

 SCF Done:  E(RB3LYP) =  -1329.97071266     A.U. after    1 cycles

 Excitation energies and oscillator strengths:

 Excited State   1:      Singlet-A      4.1536 eV  298.50 nm  f=1.1944  <S**2>=0.000
      80 -> 81         0.70410
 This state for optimization and/or second-order correction.
 Total Energy, E(TD-HF/TD-KS) =  -1329.81807224
 Copying the excited state density for this state as the 1-particle RhoCI density.

 Excited State   2:      Singlet-A      4.6621 eV  265.94 nm  f=0.0004  <S**2>=0.000
      77 -> 81        -0.35117
      79 -> 81         0.35282
      80 -> 83         0.31777
      80 -> 84         0.33878
      80 -> 85        -0.10082

 Excited State   3:      Singlet-A      4.7095 eV  263.26 nm  f=0.0091  <S**2>=0.000
      77 -> 81         0.25001
      78 -> 85        -0.11805
      79 -> 81         0.50526
      80 -> 83        -0.26425
      80 -> 84        -0.10392
      80 -> 85        -0.24814

 Excited State   4:      Singlet-A      4.7903 eV  258.82 nm  f=0.0006  <S**2>=0.000
      76 -> 81         0.27513
      76 -> 82         0.13927
      77 -> 81         0.25864
      78 -> 83        -0.12372
      80 -> 83         0.44815
      80 -> 84        -0.32648

 Excited State   5:      Singlet-A      4.8663 eV  254.78 nm  f=0.0024  <S**2>=0.000
      78 -> 81         0.51797
      80 -> 82         0.47330

 Excited State   6:      Singlet-A      5.1734 eV  239.66 nm  f=0.0000  <S**2>=0.000
      76 -> 83        -0.10518
      78 -> 81        -0.46137
      79 -> 85        -0.11151
      80 -> 82         0.50406

 Excited State   7:      Singlet-A      5.3316 eV  232.55 nm  f=0.0099  <S**2>=0.000
      76 -> 81         0.44199
      77 -> 81        -0.25016
      78 -> 83        -0.25132
      79 -> 81         0.11409
      80 -> 83        -0.31503
      80 -> 84        -0.14835
      80 -> 85         0.13054

 Excited State   8:      Singlet-A      5.3795 eV  230.48 nm  f=0.0057  <S**2>=0.000
      76 -> 81        -0.25385
      77 -> 81        -0.18668
      78 -> 83         0.16162
      79 -> 81         0.24529
      79 -> 82         0.24357
      80 -> 83         0.11022
      80 -> 84        -0.32452
      80 -> 85         0.34498

 Excited State   9:      Singlet-A      5.4972 eV  225.54 nm  f=0.0540  <S**2>=0.000
      77 -> 81         0.35225
      78 -> 83        -0.10236
      79 -> 81         0.14623
      79 -> 82         0.27269
      80 -> 84         0.33897
      80 -> 85         0.34288

 Excited State  10:      Singlet-A      5.7309 eV  216.34 nm  f=0.0004  <S**2>=0.000
      75 -> 81         0.61496
      80 -> 86        -0.31006

 The electronic state is 1-A.
 Alpha  occ. eigenvalues -- -101.54631 -19.16520 -19.16519 -10.25183 -10.20736
 Alpha  occ. eigenvalues --  -10.20371 -10.20371 -10.20261 -10.20095 -10.20093
 Alpha  occ. eigenvalues --  -10.20028 -10.19808 -10.19282 -10.19280 -10.19156
 Alpha  occ. eigenvalues --  -10.19155 -10.18377 -10.18376 -10.18305 -10.18305
 Alpha  occ. eigenvalues --  -10.16486  -9.46259  -7.22651  -7.21689  -7.21657
 Alpha  occ. eigenvalues --   -6.78665  -1.04088  -1.00694  -0.89010  -0.86781
 Alpha  occ. eigenvalues --   -0.84749  -0.83124  -0.78109  -0.75950  -0.74785
 Alpha  occ. eigenvalues --   -0.74162  -0.73597  -0.70303  -0.63065  -0.63011
 Alpha  occ. eigenvalues --   -0.60967  -0.59735  -0.58747  -0.57630  -0.55873
 Alpha  occ. eigenvalues --   -0.54306  -0.53348  -0.50749  -0.47754  -0.47715
 Alpha  occ. eigenvalues --   -0.46201  -0.45148  -0.45131  -0.43812  -0.43393
 Alpha  occ. eigenvalues --   -0.42859  -0.42797  -0.42194  -0.41011  -0.40801
 Alpha  occ. eigenvalues --   -0.39380  -0.39105  -0.37514  -0.37360  -0.36330
 Alpha  occ. eigenvalues --   -0.35467  -0.34782  -0.34630  -0.34047  -0.33108
 Alpha  occ. eigenvalues --   -0.32444  -0.32297  -0.32053  -0.31029  -0.27889
 Alpha  occ. eigenvalues --   -0.26230  -0.25350  -0.24454  -0.24423  -0.21317
 Alpha virt. eigenvalues --   -0.04689  -0.01341  -0.01329  -0.00502   0.00650
 Alpha virt. eigenvalues --    0.03067   0.03228   0.03748   0.09488   0.10136
 Alpha virt. eigenvalues --    0.10623   0.11928   0.12123   0.12406   0.13143

 Mulliken atomic charges:
              1
     1  Cl  -0.007423
     2  C   -0.074038
     3  C   -0.132437
     4  C   -0.168592
     5  C    0.085535
     6  C   -0.168591
     7  C   -0.132436
     8  C    0.087266
     9  C   -0.177356
    10  C   -0.174890
    11  C    0.089924
    12  C   -0.174890
    13  C   -0.177355
    14  C    0.077212
    15  C   -0.162133
    16  C   -0.198654
    17  C    0.084561
    18  C   -0.198653
    19  C   -0.162131
    20  B    0.338965
    21  O   -0.563117
    22  O   -0.563117
    23  H    0.156483
    24  H    0.143281
    25  H    0.143281
    26  H    0.156483
    27  H    0.137433
    28  H    0.141379
    29  H    0.141379
    30  H    0.137433
    31  H    0.126991
    32  H    0.142407
    33  H    0.142407
    34  H    0.126992
    35  H    0.388199
    36  H    0.388200
 Sum of Mulliken atomic charges =  -0.00000

 Dipole moment (field-independent basis, Debye):
    X=              2.9460    Y=              0.0001    Z=              0.0000  Tot=              2.9460
 Quadrupole moment (field-independent basis, Debye-Ang):
   XX=           -103.5077   YY=           -123.3580   ZZ=           -136.8362
   XY=              0.0004   XZ=              0.0003   YZ=              0.8246

 Summary of Natural Population Analysis:

                                       Natural Population
                Natural  -----------------------------------------------
    Atom  No    Charge         Core      Valence    Rydberg      Total
 -----------------------------------------------------------------------
     Cl    1    0.01358      9.99967     6.96682    0.01994    16.98642
      C    2   -0.05055      1.99853     4.03011    0.02191     6.05055
      C    3   -0.24392      1.99894     4.22938    0.01560     6.24392
      C    4   -0.20567      1.99905     4.19340    0.01322     6.20567
      C    5   -0.05673      1.99901     4.04190    0.01582     6.05673
      C    6   -0.20567      1.99905     4.19340    0.01322     6.20567
      C    7   -0.24392      1.99894     4.22938    0.01560     6.24392
      C    8   -0.03985      1.99901     4.02468    0.01616     6.03985
      C    9   -0.21386      1.99906     4.20102    0.01378     6.21386
      C   10   -0.20932      1.99906     4.19639    0.01387     6.20932
      C   11   -0.02794      1.99901     4.01270    0.01623     6.02794
      C   12   -0.20932      1.99906     4.19639    0.01387     6.20932
      C   13   -0.21386      1.99906     4.20102    0.01378     6.21386
      C   14   -0.05269      1.99902     4.03772    0.01595     6.05269
      C   15   -0.22051      1.99905     4.20796    0.01350     6.22051
      C   16   -0.19348      1.99911     4.17990    0.01446     6.19348
      C   17   -0.39586      1.99894     4.37893    0.01798     6.39586
      C   18   -0.19348      1.99911     4.17990    0.01446     6.19348
      C   19   -0.22051      1.99905     4.20796    0.01350     6.22051
      B   20    1.09868      1.99922     1.87599    0.02611     3.90132
      O   21   -0.89075      1.99975     6.88134    0.00965     8.89075
      O   22   -0.89075      1.99975     6.88135    0.00965     8.89075
      H   23    0.25423      0.00000     0.74472    0.00105     0.74577
      H   24    0.24259      0.00000     0.75632    0.00109     0.75741
      H   25    0.24259      0.00000     0.75632    0.00109     0.75741
      H   26    0.25423      0.00000     0.74472    0.00105     0.74577
      H   27    0.23851      0.00000     0.76038    0.00110     0.76149
      H   28    0.24109      0.00000     0.75779    0.00112     0.75891
      H   29    0.24109      0.00000     0.75779    0.00112     0.75891
      H   30    0.23852      0.00000     0.76038    0.00110     0.76148
      H   31    0.23234      0.00000     0.76647    0.00119     0.76766
      H   32    0.24381      0.00000     0.75497    0.00122     0.75619
      H   33    0.24381      0.00000     0.75497    0.00122     0.75619
      H   34    0.23234      0.00000     0.76647    0.00119     0.76766
      H   35    0.48061      0.00000     0.51716    0.00223     0.51939
      H   36    0.48061      0.00000     0.51716    0.00223     0.51939
 =======================================================================
   * Total *   -0.00000     51.98044   107.66329    0.35628   160.00000

 Normal termination of Gaussian 09 at Mon Oct  4 14:49:37 2021.
