 Gaussian 09, Revision A.02,

 -----------------------------------
 #p opt b3lyp/6-31G* scf=(xqc,tight)
 -----------------------------------

 ---------------------------------------
 COc1ccc(cc1)c1ccc2c(c1)ccc(c2)OC_conf_0
 ---------------------------------------
 Symbolic Z-matrix:
 Charge =  0 Multiplicity = 1

 SCF Done:  E(RB3LYP) =  -845.988441728     A.U. after   14 cycles
 SCF Done:  E(RB3LYP) =  -845.993783690     A.U. after   15 cycles
 SCF Done:  E(RB3LYP) =  -845.994187754     A.U. after   11 cycles
 SCF Done:  E(RB3LYP) =  -845.994219398     A.U. after   10 cycles
 SCF Done:  E(RB3LYP) =  -845.994225821     A.U. after    9 cycles
 SCF Done:  E(RB3LYP) =  -845.994227848     A.U. after    8 cycles
 SCF Done:  E(RB3LYP) =  -845.994228953     A.U. after    8 cycles
 SCF Done:  E(RB3LYP) =  -845.994229545     A.U. after    8 cycles
 SCF Done:  E(RB3LYP) =  -845.994229638     A.U. after    7 cycles
 Optimization completed.
    -- Stationary point found.
 Normal termination of Gaussian 09 at Thu Sep 30 22:55:01 2021.

 ----------------------------------------------------------------------
 #p freq b3lyp/6-31G* volume NMR pop=NPA density=current Geom=AllCheck
 Guess=Read
 ----------------------------------------------------------------------

 COc1ccc(cc1)c1ccc2c(c1)ccc(c2)OC_conf_0
 ---------------------------------------
 Redundant internal coordinates taken from checkpoint file:
 C18H16O2_a165_conf_0.chk
 Charge =  0 Multiplicity = 1

 SCF Done:  E(RB3LYP) =  -845.994229638     A.U. after    1 cycles

  1  C    Isotropic =   137.3888   Anisotropy =    65.1502

  2  O    Isotropic =   238.1125   Anisotropy =    79.3267

  3  C    Isotropic =    39.5506   Anisotropy =   126.1549

  4  C    Isotropic =    85.8819   Anisotropy =   142.0385

  5  C    Isotropic =    67.4142   Anisotropy =   151.3028

  6  C    Isotropic =    61.1556   Anisotropy =   165.3826

  7  C    Isotropic =    67.2852   Anisotropy =   153.2888

  8  C    Isotropic =    77.7746   Anisotropy =   134.5007

  9  C    Isotropic =    58.6504   Anisotropy =   166.5945

 10  C    Isotropic =    69.2902   Anisotropy =   149.8475

 11  C    Isotropic =    68.2154   Anisotropy =   140.4889

 12  C    Isotropic =    63.2802   Anisotropy =   193.2618

 13  C    Isotropic =    67.5087   Anisotropy =   189.2622

 14  C    Isotropic =    69.8095   Anisotropy =   131.9653

 15  C    Isotropic =    65.9939   Anisotropy =   143.5833

 16  C    Isotropic =    84.5815   Anisotropy =   144.4710

 17  C    Isotropic =    41.2652   Anisotropy =   121.7023

 18  C    Isotropic =    82.3502   Anisotropy =   112.6906

 19  O    Isotropic =   240.4460   Anisotropy =    70.5166

 20  C    Isotropic =   137.3748   Anisotropy =    65.0998

 21  H    Isotropic =    28.2683   Anisotropy =     8.1496

 22  H    Isotropic =    28.5849   Anisotropy =     8.0452

 23  H    Isotropic =    28.5818   Anisotropy =     7.9049

 24  H    Isotropic =    25.7198   Anisotropy =     7.6652

 25  H    Isotropic =    24.7784   Anisotropy =     9.2441

 26  H    Isotropic =    24.8238   Anisotropy =     8.6795

 27  H    Isotropic =    25.3881   Anisotropy =     5.9840

 28  H    Isotropic =    24.7322   Anisotropy =     9.0059

 29  H    Isotropic =    24.6627   Anisotropy =     7.5330

 30  H    Isotropic =    24.6420   Anisotropy =    10.6465

 31  H    Isotropic =    24.5717   Anisotropy =     7.9832

 32  H    Isotropic =    25.3661   Anisotropy =     8.0692

 33  H    Isotropic =    25.2110   Anisotropy =     8.0340

 34  H    Isotropic =    28.2140   Anisotropy =     8.3216

 35  H    Isotropic =    28.4970   Anisotropy =     8.3426

 36  H    Isotropic =    28.5001   Anisotropy =     8.2941

  Exact polarizability: 387.882  -9.230 184.263  -0.314   1.295  86.971
 Approx polarizability: 521.959 -22.438 337.842  -5.128   2.289 138.699

                     1                      2                      3
                     A                      A                      A
 Frequencies --    33.2591                47.6276                58.1171
 Red. masses --     4.8551                 3.6271                 4.2578
 Frc consts  --     0.0032                 0.0048                 0.0085
 IR Inten    --     0.3759                 0.5047                 0.0727

                     4                      5                      6
                     A                      A                      A
 Frequencies --    73.0860                94.0609               128.6671
 Red. masses --     3.6464                 3.6934                 4.9854
 Frc consts  --     0.0115                 0.0193                 0.0486
 IR Inten    --     2.1427                 4.1499                 0.5973

                     7                      8                      9
                     A                      A                      A
 Frequencies --   174.8730               189.7332               200.7483
 Red. masses --     3.8409                 3.2355                 4.0675
 Frc consts  --     0.0692                 0.0686                 0.0966
 IR Inten    --     2.6530                 0.3122                 1.3175

                    10                     11                     12
                     A                      A                      A
 Frequencies --   219.3010               237.0971               256.5251
 Red. masses --     3.9148                 1.6551                 1.9426
 Frc consts  --     0.1109                 0.0548                 0.0753
 IR Inten    --     0.8823                 0.1816                 0.3641

                    13                     14                     15
                     A                      A                      A
 Frequencies --   263.2179               310.1926               339.4307
 Red. masses --     1.3904                 3.6967                 4.0491
 Frc consts  --     0.0568                 0.2096                 0.2749
 IR Inten    --     1.3864                 1.4237                 1.4688

                    16                     17                     18
                     A                      A                      A
 Frequencies --   402.1122               416.0433               418.5919
 Red. masses --     5.8708                 3.4655                 5.0578
 Frc consts  --     0.5593                 0.3534                 0.5222
 IR Inten    --     2.9074                 0.6212                 0.3420

                    19                     20                     21
                     A                      A                      A
 Frequencies --   428.7078               455.6909               487.1527
 Red. masses --     3.3039                 4.5631                 2.6964
 Frc consts  --     0.3578                 0.5583                 0.3770
 IR Inten    --     1.0474                 0.2653                 6.7359

                    22                     23                     24
                     A                      A                      A
 Frequencies --   494.7318               532.5586               545.3522
 Red. masses --     4.0504                 6.3712                 2.8383
 Frc consts  --     0.5841                 1.0646                 0.4973
 IR Inten    --     0.2163                 1.8322                11.6763

                    25                     26                     27
                     A                      A                      A
 Frequencies --   561.3669               593.6552               602.9528
 Red. masses --     4.4892                 2.8139                 5.3482
 Frc consts  --     0.8335                 0.5843                 1.1456
 IR Inten    --    39.1249                 0.8948                 0.3652

                    28                     29                     30
                     A                      A                      A
 Frequencies --   652.1634               675.4655               679.9190
 Red. masses --     6.3936                 6.2351                 3.9324
 Frc consts  --     1.6022                 1.6761                 1.0711
 IR Inten    --     0.4738                 2.8135                 1.0518

                    31                     32                     33
                     A                      A                      A
 Frequencies --   735.3796               744.8035               766.6428
 Red. masses --     4.2203                 6.0704                 3.1977
 Frc consts  --     1.3447                 1.9840                 1.1073
 IR Inten    --     0.6491                11.7923                 0.8867

                    34                     35                     36
                     A                      A                      A
 Frequencies --   802.7373               816.9191               823.9448
 Red. masses --     4.5596                 1.5207                 1.5302
 Frc consts  --     1.7311                 0.5979                 0.6121
 IR Inten    --     5.5299                12.7627                24.5978

                    37                     38                     39
                     A                      A                      A
 Frequencies --   828.6690               831.5747               853.3247
 Red. masses --     1.5623                 2.6360                 1.6621
 Frc consts  --     0.6321                 1.0740                 0.7131
 IR Inten    --     8.2734                 0.7203                38.8357

                    40                     41                     42
                     A                      A                      A
 Frequencies --   888.7227               909.1754               921.6411
 Red. masses --     1.5514                 1.4305                 5.6454
 Frc consts  --     0.7220                 0.6967                 2.8253
 IR Inten    --    26.5149                13.6384                14.2261

                    43                     44                     45
                     A                      A                      A
 Frequencies --   948.4461               951.1602               962.9880
 Red. masses --     1.3066                 1.3335                 1.2965
 Frc consts  --     0.6925                 0.7108                 0.7084
 IR Inten    --     0.4166                 1.2526                 0.9141

                    46                     47                     48
                     A                      A                      A
 Frequencies --   973.5704               974.0951              1027.9664
 Red. masses --     1.4014                 3.2870                 3.1307
 Frc consts  --     0.7826                 1.8376                 1.9492
 IR Inten    --     0.1070                 0.4705                 0.6231

                    49                     50                     51
                     A                      A                      A
 Frequencies --  1057.6754              1081.0120              1083.2306
 Red. masses --     2.9028                 3.8798                 4.0695
 Frc consts  --     1.9133                 2.6713                 2.8134
 IR Inten    --     6.4776                61.6418                50.1436

                    52                     53                     54
                     A                      A                      A
 Frequencies --  1145.8754              1175.7601              1184.1804
 Red. masses --     1.3218                 1.5910                 1.2674
 Frc consts  --     1.0226                 1.2959                 1.0471
 IR Inten    --     7.5772                40.1517                 0.6841

                    55                     56                     57
                     A                      A                      A
 Frequencies --  1185.2885              1192.5919              1201.7177
 Red. masses --     1.2706                 1.3907                 1.5653
 Frc consts  --     1.0517                 1.1654                 1.3318
 IR Inten    --     0.7534                 4.2159               102.7476

                    58                     59                     60
                     A                      A                      A
 Frequencies --  1211.7106              1216.4153              1217.8042
 Red. masses --     1.2552                 1.3853                 1.3966
 Frc consts  --     1.0858                 1.2077                 1.2203
 IR Inten    --    63.0401                13.7383                 4.2937

                    61                     62                     63
                     A                      A                      A
 Frequencies --  1247.3174              1296.2489              1300.4044
 Red. masses --     1.6498                 4.5127                 1.8145
 Frc consts  --     1.5123                 4.4675                 1.8079
 IR Inten    --    50.6464               308.2502                50.7933

                    64                     65                     66
                     A                      A                      A
 Frequencies --  1308.7324              1316.4620              1340.6875
 Red. masses --     2.8947                 2.5902                 2.3001
 Frc consts  --     2.9212                 2.6448                 2.4358
 IR Inten    --    20.9880               320.8952                80.6124

                    67                     68                     69
                     A                      A                      A
 Frequencies --  1350.1916              1382.9022              1414.7350
 Red. masses --     2.2428                 2.5330                 3.8828
 Frc consts  --     2.4090                 2.8541                 4.5788
 IR Inten    --    42.1250                 3.6893                18.0881

                    70                     71                     72
                     A                      A                      A
 Frequencies --  1417.3198              1452.2128              1471.0065
 Red. masses --     3.4804                 4.4271                 3.3530
 Frc consts  --     4.1192                 5.5008                 4.2748
 IR Inten    --     8.2473                12.2197                 0.9125

                    73                     74                     75
                     A                      A                      A
 Frequencies --  1499.0280              1501.5668              1520.3922
 Red. masses --     1.2160                 1.2336                 1.0484
 Frc consts  --     1.6099                 1.6388                 1.4278
 IR Inten    --    10.4330                30.3629                 5.5247

                    76                     77                     78
                     A                      A                      A
 Frequencies --  1522.9550              1531.9881              1534.6178
 Red. masses --     1.0493                 1.5603                 1.0635
 Frc consts  --     1.4340                 2.1576                 1.4757
 IR Inten    --     5.3697                 9.8627                97.3799

                    79                     80                     81
                     A                      A                      A
 Frequencies --  1538.1890              1554.6665              1568.0432
 Red. masses --     1.3502                 3.2970                 2.5768
 Frc consts  --     1.8822                 4.6950                 3.7329
 IR Inten    --    15.9104                84.3878               156.3369

                    82                     83                     84
                     A                      A                      A
 Frequencies --  1614.3592              1625.6597              1663.6454
 Red. masses --     6.2703                 6.9613                 5.6260
 Frc consts  --     9.6281                10.8393                 9.1743
 IR Inten    --     3.1022                 7.9449               137.4072

                    85                     86                     87
                     A                      A                      A
 Frequencies --  1671.4670              1688.9998              3023.9388
 Red. masses --     5.7374                 6.2926                 1.0349
 Frc consts  --     9.4442                10.5765                 5.5756
 IR Inten    --    19.1393                90.0975                90.4146

                    88                     89                     90
                     A                      A                      A
 Frequencies --  3024.4108              3082.4988              3082.7071
 Red. masses --     1.0348                 1.1067                 1.1067
 Frc consts  --     5.5771                 6.1959                 6.1962
 IR Inten    --    62.3275                42.9945                47.1734

                    91                     92                     93
                     A                      A                      A
 Frequencies --  3154.8236              3156.5824              3180.2651
 Red. masses --     1.0994                 1.0996                 1.0874
 Frc consts  --     6.4471                 6.4554                 6.4798
 IR Inten    --    34.1738                32.4292                13.1970

                    94                     95                     96
                     A                      A                      A
 Frequencies --  3180.8098              3184.6329              3193.1591
 Red. masses --     1.0891                 1.0891                 1.0884
 Frc consts  --     6.4924                 6.5079                 6.5388
 IR Inten    --     1.8987                20.7653                11.1768

                    97                     98                     99
                     A                      A                      A
 Frequencies --  3195.7203              3202.9281              3204.6896
 Red. masses --     1.0881                 1.0920                 1.0916
 Frc consts  --     6.5472                 6.6003                 6.6049
 IR Inten    --     8.7041                 8.4583                18.7443

                   100                    101                    102
                     A                      A                      A
 Frequencies --  3215.4731              3223.6966              3226.3722
 Red. masses --     1.0938                 1.0919                 1.0914
 Frc consts  --     6.6632                 6.6857                 6.6937
 IR Inten    --    13.2896                15.3093                16.5950

 - Thermochemistry -
 -------------------
 Temperature   298.150 Kelvin.  Pressure   1.00000 Atm.
 Atom     1 has atomic number  6 and mass  12.00000

 Molecular mass:   264.11503 amu.
 Principal axes and moments of inertia in atomic units:
                           1         2         3
     Eigenvalues --  1214.59003********************
           X            1.00000   0.00041   0.00219
           Y           -0.00042   0.99999   0.00480
           Z           -0.00219  -0.00480   0.99999
 This molecule is an asymmetric top.
 Rotational symmetry number  1.
 Warning -- assumption of classical behavior for rotation
           may cause significant error
 Rotational temperatures (Kelvin)      0.07131     0.00547     0.00515
 Rotational constants (GHZ):           1.48589     0.11399     0.10722
 Zero-point vibrational energy     772512.1 (Joules/Mol)
                                  184.63481 (Kcal/Mol)
 Warning -- explicit consideration of  27 degrees of freedom as
           vibrations may cause significant error
 Vibrational temperatures:     47.85    68.53    83.62   105.15   135.33
          (Kelvin)            185.12   251.60   272.98   288.83   315.52
                              341.13   369.08   378.71   446.30   488.36
                              578.55   598.59   602.26   616.81   655.64
                              700.90   711.81   766.23   784.64   807.68
                              854.14   867.51   938.32   971.84   978.25
                             1058.05  1071.60  1103.03  1154.96  1175.36
                             1185.47  1192.27  1196.45  1227.74  1278.67
                             1308.10  1326.03  1364.60  1368.51  1385.52
                             1400.75  1401.50  1479.01  1521.76  1555.33
                             1558.53  1648.66  1691.65  1703.77  1705.36
                             1715.87  1729.00  1743.38  1750.15  1752.15
                             1794.61  1865.01  1870.99  1882.97  1894.09
                             1928.95  1942.62  1989.69  2035.49  2039.20
                             2089.41  2116.45  2156.76  2160.42  2187.50
                             2191.19  2204.19  2207.97  2213.11  2236.82
                             2256.06  2322.70  2338.96  2393.61  2404.87
                             2430.09  4350.77  4351.45  4435.02  4435.32
                             4539.08  4541.61  4575.69  4576.47  4581.97
                             4594.24  4597.92  4608.29  4610.83  4626.34
                             4638.17  4642.02

 Zero-point correction=                           0.294234 (Hartree/Particle)
 Thermal correction to Energy=                    0.310999
 Thermal correction to Enthalpy=                  0.311943
 Thermal correction to Gibbs Free Energy=         0.249172
 Sum of electronic and zero-point Energies=           -845.699995
 Sum of electronic and thermal Energies=              -845.683231
 Sum of electronic and thermal Enthalpies=            -845.682287
 Sum of electronic and thermal Free Energies=         -845.745058

                     E (Thermal)             CV                S
                      KCal/Mol        Cal/Mol-Kelvin    Cal/Mol-Kelvin
 Total                  195.155             66.379            132.112
 Electronic               0.000              0.000              0.000
 Translational            0.889              2.981             42.613
 Rotational               0.889              2.981             34.136
 Vibrational            193.377             60.417             55.363
 Vibration     1          0.594              1.983              5.625
 Vibration     2          0.595              1.978              4.914
 Vibration     3          0.596              1.974              4.520
 Vibration     4          0.599              1.967              4.068
 Vibration     5          0.603              1.953              3.574
 Vibration     6          0.611              1.925              2.966
 Vibration     7          0.627              1.873              2.382
 Vibration     8          0.633              1.854              2.230
 Vibration     9          0.638              1.839              2.126
 Vibration    10          0.647              1.812              1.965
 Vibration    11          0.656              1.784              1.825
 Vibration    12          0.666              1.752              1.685
 Vibration    13          0.670              1.740              1.640
 Vibration    14          0.699              1.654              1.361
 Vibration    15          0.719              1.597              1.215
 Vibration    16          0.768              1.466              0.955
 Vibration    17          0.779              1.435              0.906
 Vibration    18          0.781              1.430              0.897
 Vibration    19          0.790              1.408              0.863
 Vibration    20          0.814              1.348              0.779
 Vibration    21          0.843              1.279              0.691
 Vibration    22          0.850              1.262              0.671
 Vibration    23          0.888              1.178              0.582
 Vibration    24          0.901              1.150              0.554
 Vibration    25          0.917              1.115              0.521
 Vibration    26          0.951              1.045              0.461
 Vibration    27          0.961              1.026              0.445

 Normal termination of Gaussian 09 at Fri Oct  1 00:27:16 2021.
 Gaussian 09:  AM64L-G09RevA.02 11-Jun-2009

 ----------------------------------------------------------------------
 #p TD(NStates=10, Root=1) b3lyp/6-31G* volume pop=NPA density=current
 Geom=AllCheck Guess=Read
 ----------------------------------------------------------------------

 COc1ccc(cc1)c1ccc2c(c1)ccc(c2)OC_conf_0
 ---------------------------------------
 Redundant internal coordinates taken from checkpoint file:
 C18H16O2_a165_conf_0.chk
 Charge =  0 Multiplicity = 1

                         Standard orientation:
 ---------------------------------------------------------------------
 Center     Atomic      Atomic             Coordinates (Angstroms)
 Number     Number       Type             X           Y           Z
 ---------------------------------------------------------------------
      1          6           0       -6.785717   -1.244724   -0.248958
      2          8           0       -6.128864   -0.081150    0.225902
      3          6           0       -4.768312   -0.020845    0.122765
      4          6           0       -3.963045   -1.023717   -0.428590
      5          6           0       -2.579195   -0.847404   -0.482917
      6          6           0       -1.959456    0.310950    0.005627
      7          6           0       -2.792076    1.306640    0.553098
      8          6           0       -4.169258    1.148424    0.613499
      9          6           0       -0.487209    0.481948   -0.049453
     10          6           0        0.083888    1.763054   -0.319236
     11          6           0        1.443219    1.946566   -0.378653
     12          6           0        2.341104    0.861642   -0.172641
     13          6           0        1.783051   -0.430509    0.099736
     14          6           0        0.373672   -0.582644    0.156410
     15          6           0        2.673746   -1.512670    0.312730
     16          6           0        4.040758   -1.344896    0.256410
     17          6           0        4.585752   -0.063038   -0.018392
     18          6           0        3.744401    1.015475   -0.227651
     19          8           0        5.927341    0.191261   -0.092644
     20          6           0        6.835823   -0.876455    0.119393
     21          1           0       -7.849784   -1.084417   -0.065290
     22          1           0       -6.456440   -2.143320    0.289785
     23          1           0       -6.622286   -1.391085   -1.325068
     24          1           0       -4.397298   -1.932908   -0.828772
     25          1           0       -1.971970   -1.623077   -0.941354
     26          1           0       -2.348154    2.209925    0.962319
     27          1           0       -4.805060    1.914704    1.046229
     28          1           0       -0.578342    2.603441   -0.507758
     29          1           0        1.852174    2.930408   -0.596377
     30          1           0       -0.029059   -1.564201    0.395198
     31          1           0        2.262515   -2.497164    0.523602
     32          1           0        4.691378   -2.195941    0.422705
     33          1           0        4.181495    1.988072   -0.434643
     34          1           0        7.832766   -0.443948    0.014821
     35          1           0        6.709812   -1.673226   -0.625923
     36          1           0        6.733569   -1.304936    1.125402
 ---------------------------------------------------------------------

 SCF Done:  E(RB3LYP) =  -845.994229638     A.U. after    1 cycles

 Excitation energies and oscillator strengths:

 Excited State   1:      Singlet-A      3.7643 eV  329.37 nm  f=0.1417  <S**2>=0.000
      70 -> 71         0.66665
      70 -> 72         0.14916
 This state for optimization and/or second-order correction.
 Total Energy, E(TD-HF/TD-KS) =  -845.855894882
 Copying the excited state density for this state as the 1-particle RhoCI density.

 Excited State   2:      Singlet-A      4.1956 eV  295.51 nm  f=0.1568  <S**2>=0.000
      68 -> 71         0.20632
      69 -> 71        -0.36664
      70 -> 71        -0.19169
      70 -> 72         0.52549

 Excited State   3:      Singlet-A      4.5557 eV  272.15 nm  f=0.2826  <S**2>=0.000
      68 -> 71         0.33553
      69 -> 71         0.54400
      70 -> 72         0.22509
      70 -> 73        -0.14094

 Excited State   4:      Singlet-A      4.5876 eV  270.26 nm  f=0.0252  <S**2>=0.000
      67 -> 71         0.15283
      67 -> 72        -0.13797
      69 -> 71         0.12168
      70 -> 73         0.64837

 Excited State   5:      Singlet-A      4.8803 eV  254.05 nm  f=0.7541  <S**2>=0.000
      68 -> 71         0.45150
      69 -> 71        -0.17838
      69 -> 72         0.30555
      70 -> 72        -0.36143
      70 -> 74         0.16349

 Excited State   6:      Singlet-A      5.1605 eV  240.26 nm  f=0.0026  <S**2>=0.000
      67 -> 71         0.52935
      69 -> 73        -0.39667
      70 -> 73        -0.18396

 Excited State   7:      Singlet-A      5.2293 eV  237.10 nm  f=0.0433  <S**2>=0.000
      66 -> 71        -0.12205
      68 -> 71        -0.14378
      68 -> 72         0.10668
      69 -> 72         0.49846
      70 -> 74        -0.42713

 Excited State   8:      Singlet-A      5.3927 eV  229.91 nm  f=0.0225  <S**2>=0.000
      67 -> 71         0.42822
      67 -> 72         0.24013
      69 -> 73         0.48912

 Excited State   9:      Singlet-A      5.5413 eV  223.75 nm  f=0.0595  <S**2>=0.000
      66 -> 71        -0.32096
      69 -> 72        -0.12858
      70 -> 74        -0.12641
      70 -> 75         0.57979

 Excited State  10:      Singlet-A      5.5780 eV  222.28 nm  f=0.0365  <S**2>=0.000
      66 -> 71         0.17619
      66 -> 72         0.10318
      68 -> 72         0.61875
      69 -> 74         0.18031

 The electronic state is 1-A.
 Alpha  occ. eigenvalues --  -19.17658 -19.17554 -10.24523 -10.24434 -10.24105
 Alpha  occ. eigenvalues --  -10.24069 -10.19271 -10.19141 -10.19104 -10.18992
 Alpha  occ. eigenvalues --  -10.18924 -10.18863 -10.18739 -10.18639 -10.18573
 Alpha  occ. eigenvalues --  -10.18410 -10.18310 -10.18292 -10.18164 -10.17837
 Alpha  occ. eigenvalues --   -1.06217  -1.06107  -0.86861  -0.84989  -0.81545
 Alpha  occ. eigenvalues --   -0.77208  -0.76310  -0.74584  -0.73107  -0.72494
 Alpha  occ. eigenvalues --   -0.69967  -0.67510  -0.62873  -0.60644  -0.60537
 Alpha  occ. eigenvalues --   -0.58821  -0.57343  -0.53322  -0.52833  -0.50950
 Alpha  occ. eigenvalues --   -0.50389  -0.47792  -0.46729  -0.46715  -0.46252
 Alpha  occ. eigenvalues --   -0.45913  -0.44253  -0.43941  -0.43164  -0.41882
 Alpha  occ. eigenvalues --   -0.41335  -0.41138  -0.40135  -0.38731  -0.38434
 Alpha  occ. eigenvalues --   -0.37785  -0.37390  -0.35733  -0.34853  -0.34067
 Alpha  occ. eigenvalues --   -0.33470  -0.32347  -0.32080  -0.31631  -0.29595
 Alpha  occ. eigenvalues --   -0.27268  -0.24798  -0.23219  -0.21746  -0.18879
 Alpha virt. eigenvalues --   -0.03558  -0.01014   0.00160   0.03081   0.04251
 Alpha virt. eigenvalues --    0.09508   0.09628   0.10668   0.11021   0.11366
 Alpha virt. eigenvalues --    0.12215   0.13059   0.13845   0.14435   0.14929

 Mulliken atomic charges:
              1
     1  C   -0.224681
     2  O   -0.487575
     3  C    0.384862
     4  C   -0.192375
     5  C   -0.174026
     6  C    0.094506
     7  C   -0.166073
     8  C   -0.171204
     9  C    0.102021
    10  C   -0.198758
    11  C   -0.224557
    12  C    0.157899
    13  C    0.159548
    14  C   -0.286499
    15  C   -0.229987
    16  C   -0.216210
    17  C    0.385740
    18  C   -0.282553
    19  O   -0.487338
    20  C   -0.214903
    21  H    0.179854
    22  H    0.162596
    23  H    0.162790
    24  H    0.143277
    25  H    0.151596
    26  H    0.153663
    27  H    0.151986
    28  H    0.107462
    29  H    0.112843
    30  H    0.112210
    31  H    0.110251
    32  H    0.111920
    33  H    0.125413
    34  H    0.168458
    35  H    0.158780
    36  H    0.159063
 Sum of Mulliken atomic charges =  -0.00000

 Dipole moment (field-independent basis, Debye):
    X=             -3.9470    Y=             -2.6489    Z=             -0.1875  Tot=              4.7571
 Quadrupole moment (field-independent basis, Debye-Ang):
   XX=            -74.4622   YY=           -106.8043   ZZ=           -119.7228
   XY=              1.8820   XZ=              4.1006   YZ=              1.7350

 Summary of Natural Population Analysis:

                                       Natural Population
                Natural  -----------------------------------------------
    Atom  No    Charge         Core      Valence    Rydberg      Total
 -----------------------------------------------------------------------
      C    1   -0.32150      1.99943     4.30795    0.01413     6.32150
      O    2   -0.49264      1.99975     6.48117    0.01172     8.49264
      C    3    0.34150      1.99878     3.63795    0.02177     5.65850
      C    4   -0.30663      1.99902     4.29541    0.01220     6.30663
      C    5   -0.18906      1.99906     4.17630    0.01370     6.18906
      C    6   -0.01777      1.99901     4.00314    0.01562     6.01777
      C    7   -0.19326      1.99906     4.18137    0.01283     6.19326
      C    8   -0.25875      1.99904     4.24525    0.01447     6.25875
      C    9   -0.04112      1.99901     4.02621    0.01589     6.04112
      C   10   -0.27043      1.99907     4.25686    0.01450     6.27043
      C   11   -0.25182      1.99906     4.23709    0.01568     6.25182
      C   12   -0.02878      1.99903     4.01481    0.01494     6.02878
      C   13   -0.04886      1.99902     4.03476    0.01508     6.04886
      C   14   -0.23410      1.99901     4.22077    0.01432     6.23410
      C   15   -0.23789      1.99907     4.22282    0.01600     6.23789
      C   16   -0.36489      1.99904     4.35167    0.01418     6.36489
      C   17    0.35329      1.99879     3.62536    0.02256     5.64671
      C   18   -0.29241      1.99900     4.27766    0.01576     6.29241
      O   19   -0.48367      1.99974     6.47229    0.01164     8.48367
      C   20   -0.31821      1.99942     4.30492    0.01387     6.31821
      H   21    0.23407      0.00000     0.76543    0.00050     0.76593
      H   22    0.20900      0.00000     0.78929    0.00171     0.79100
      H   23    0.20899      0.00000     0.78933    0.00168     0.79101
      H   24    0.24338      0.00000     0.75575    0.00086     0.75662
      H   25    0.24777      0.00000     0.75088    0.00135     0.75223
      H   26    0.25038      0.00000     0.74830    0.00132     0.74962
      H   27    0.25275      0.00000     0.74611    0.00115     0.74725
      H   28    0.22535      0.00000     0.77372    0.00094     0.77465
      H   29    0.22741      0.00000     0.77152    0.00108     0.77259
      H   30    0.22258      0.00000     0.77600    0.00142     0.77742
      H   31    0.22503      0.00000     0.77383    0.00114     0.77497
      H   32    0.22894      0.00000     0.77020    0.00086     0.77106
      H   33    0.23819      0.00000     0.76027    0.00153     0.76181
      H   34    0.22689      0.00000     0.77254    0.00057     0.77311
      H   35    0.20806      0.00000     0.78976    0.00218     0.79194
      H   36    0.20824      0.00000     0.78957    0.00219     0.79176
 =======================================================================
   * Total *   -0.00000     39.98240    99.69626    0.32134   140.00000

 Normal termination of Gaussian 09 at Fri Oct  1 05:30:42 2021.
