 Gaussian 09, Revision A.02,

 -----------------------------------
 #p opt b3lyp/6-31G* scf=(xqc,tight)
 -----------------------------------

 ------------------------------------------
 C[Si](c1ccccc1)(Oc1ccc2c(c1)cccc2)C_conf_0
 ------------------------------------------
 Symbolic Z-matrix:
 Charge =  0 Multiplicity = 1

 SCF Done:  E(RB3LYP) =  -1061.55491628     A.U. after   14 cycles
 SCF Done:  E(RB3LYP) =  -1061.55995661     A.U. after   12 cycles
 SCF Done:  E(RB3LYP) =  -1061.56068893     A.U. after   12 cycles
 SCF Done:  E(RB3LYP) =  -1061.56098366     A.U. after   12 cycles
 SCF Done:  E(RB3LYP) =  -1061.56131186     A.U. after   12 cycles
 SCF Done:  E(RB3LYP) =  -1061.56145345     A.U. after   11 cycles
 SCF Done:  E(RB3LYP) =  -1061.56149542     A.U. after   11 cycles
 SCF Done:  E(RB3LYP) =  -1061.56151250     A.U. after   11 cycles
 SCF Done:  E(RB3LYP) =  -1061.56151888     A.U. after   10 cycles
 SCF Done:  E(RB3LYP) =  -1061.56152195     A.U. after   10 cycles
 SCF Done:  E(RB3LYP) =  -1061.56152568     A.U. after   10 cycles
 SCF Done:  E(RB3LYP) =  -1061.56153039     A.U. after   10 cycles
 SCF Done:  E(RB3LYP) =  -1061.56153237     A.U. after   10 cycles
 SCF Done:  E(RB3LYP) =  -1061.56153255     A.U. after    8 cycles
 SCF Done:  E(RB3LYP) =  -1061.56153261     A.U. after    7 cycles
 SCF Done:  E(RB3LYP) =  -1061.56153265     A.U. after    6 cycles
 Optimization completed.
    -- Stationary point found.
 Normal termination of Gaussian 09 at Tue Sep 28 15:14:06 2021.

 ----------------------------------------------------------------------
 #p freq b3lyp/6-31G* volume NMR pop=NPA density=current Geom=AllCheck
 Guess=Read
 ----------------------------------------------------------------------

 C[Si](c1ccccc1)(Oc1ccc2c(c1)cccc2)C_conf_0
 ------------------------------------------
 Redundant internal coordinates taken from checkpoint file:
 C18H18OSi_c01b_conf_0.chk
 Charge =  0 Multiplicity = 1

 SCF Done:  E(RB3LYP) =  -1061.56153265     A.U. after    1 cycles

  1  C    Isotropic =   186.7249   Anisotropy =    12.9538

  2  Si   Isotropic =   394.1563   Anisotropy =    46.5722

  3  C    Isotropic =    58.9850   Anisotropy =   194.1097

  4  C    Isotropic =    61.4255   Anisotropy =   180.6081

  5  C    Isotropic =    68.4940   Anisotropy =   167.4104

  6  C    Isotropic =    66.5588   Anisotropy =   169.7442

  7  C    Isotropic =    68.9975   Anisotropy =   166.1488

  8  C    Isotropic =    63.7009   Anisotropy =   172.1282

  9  O    Isotropic =   222.0514   Anisotropy =    72.5119

 10  C    Isotropic =    42.4312   Anisotropy =   118.3322

 11  C    Isotropic =    73.9490   Anisotropy =   133.8153

 12  C    Isotropic =    66.0625   Anisotropy =   142.8491

 13  C    Isotropic =    67.8133   Anisotropy =   193.2224

 14  C    Isotropic =    62.3766   Anisotropy =   193.7567

 15  C    Isotropic =    80.9652   Anisotropy =   112.9693

 16  C    Isotropic =    69.2121   Anisotropy =   142.4014

 17  C    Isotropic =    70.2608   Anisotropy =   161.3372

 18  C    Isotropic =    72.7950   Anisotropy =   157.6058

 19  C    Isotropic =    68.0265   Anisotropy =   145.4589

 20  C    Isotropic =   193.2518   Anisotropy =     7.2966

 21  H    Isotropic =    31.6256   Anisotropy =     8.4943

 22  H    Isotropic =    31.6492   Anisotropy =     9.8345

 23  H    Isotropic =    32.1651   Anisotropy =     9.1533

 24  H    Isotropic =    24.2443   Anisotropy =     9.1147

 25  H    Isotropic =    24.8605   Anisotropy =     5.3825

 26  H    Isotropic =    24.8727   Anisotropy =     3.7855

 27  H    Isotropic =    24.8732   Anisotropy =     4.7964

 28  H    Isotropic =    24.7461   Anisotropy =     9.4109

 29  H    Isotropic =    25.1009   Anisotropy =     7.5674

 30  H    Isotropic =    24.6428   Anisotropy =     6.5344

 31  H    Isotropic =    25.5415   Anisotropy =    11.1327

 32  H    Isotropic =    25.0755   Anisotropy =     9.2853

 33  H    Isotropic =    25.0174   Anisotropy =     5.8447

 34  H    Isotropic =    25.0295   Anisotropy =     4.5737

 35  H    Isotropic =    24.6985   Anisotropy =     6.7109

 36  H    Isotropic =    31.8338   Anisotropy =    10.1415

 37  H    Isotropic =    32.0312   Anisotropy =     9.4323

 38  H    Isotropic =    31.5507   Anisotropy =     7.8737

  Exact polarizability: 252.366  -4.127 227.173   8.788  18.407 144.227
 Approx polarizability: 362.368  -9.462 377.687  20.418  48.439 243.077

                     1                      2                      3
                     A                      A                      A
 Frequencies --    15.7154                18.3205                29.2077
 Red. masses --     4.1480                 4.2517                 4.4933
 Frc consts  --     0.0006                 0.0008                 0.0023
 IR Inten    --     0.1067                 0.1305                 0.0227

                     4                      5                      6
                     A                      A                      A
 Frequencies --    55.7947                92.9372               102.0859
 Red. masses --     4.1979                 3.2033                 3.2806
 Frc consts  --     0.0077                 0.0163                 0.0201
 IR Inten    --     0.4368                 0.2206                 0.4513

                     7                      8                      9
                     A                      A                      A
 Frequencies --   122.5929               130.0532               160.1732
 Red. masses --     2.1431                 1.5634                 1.0378
 Frc consts  --     0.0190                 0.0156                 0.0157
 IR Inten    --     0.1564                 0.3339                 0.0273

                    10                     11                     12
                     A                      A                      A
 Frequencies --   173.4654               186.0849               196.0613
 Red. masses --     2.9993                 3.6569                 2.5833
 Frc consts  --     0.0532                 0.0746                 0.0585
 IR Inten    --     0.1980                 0.7524                 0.2739

                    13                     14                     15
                     A                      A                      A
 Frequencies --   208.6718               228.3324               278.0750
 Red. masses --     4.3309                 3.9177                 4.0968
 Frc consts  --     0.1111                 0.1203                 0.1866
 IR Inten    --     0.9297                 4.0095                 5.3343

                    16                     17                     18
                     A                      A                      A
 Frequencies --   314.7201               336.1527               385.0391
 Red. masses --     5.2852                 5.1496                 5.1599
 Frc consts  --     0.3084                 0.3428                 0.4507
 IR Inten    --     2.2669                 6.8655                25.5555

                    19                     20                     21
                     A                      A                      A
 Frequencies --   405.1574               412.0215               432.0378
 Red. masses --     2.9084                 3.4670                 5.6968
 Frc consts  --     0.2813                 0.3468                 0.6265
 IR Inten    --     0.1043                 3.2484                 8.0932

                    22                     23                     24
                     A                      A                      A
 Frequencies --   462.6871               486.0692               488.7375
 Red. masses --     4.9032                 2.8106                 3.5056
 Frc consts  --     0.6184                 0.3912                 0.4934
 IR Inten    --     2.4900                 9.9079                11.5118

                    25                     26                     27
                     A                      A                      A
 Frequencies --   527.0247               547.3682               624.2206
 Red. masses --     6.3735                 3.6701                 5.2608
 Frc consts  --     1.0430                 0.6479                 1.2078
 IR Inten    --     1.6819                 1.0181                15.9950

                    28                     29                     30
                     A                      A                      A
 Frequencies --   633.6092               638.1011               656.5117
 Red. masses --     6.3845                 6.3959                 3.0424
 Frc consts  --     1.5102                 1.5344                 0.7726
 IR Inten    --     0.5084                 6.2519                 2.4967

                    31                     32                     33
                     A                      A                      A
 Frequencies --   675.0666               697.7065               711.3495
 Red. masses --     4.5403                 1.8978                 4.3429
 Frc consts  --     1.2191                 0.5443                 1.2948
 IR Inten    --    17.4223                 5.0355                 8.2781

                    34                     35                     36
                     A                      A                      A
 Frequencies --   716.4246               751.4878               763.9108
 Red. masses --     2.0437                 1.5197                 1.3456
 Frc consts  --     0.6180                 0.5056                 0.4627
 IR Inten    --    24.8971                37.7905                26.8419

                    37                     38                     39
                     A                      A                      A
 Frequencies --   770.4535               780.4743               784.6621
 Red. masses --     2.9051                 1.4073                 4.3709
 Frc consts  --     1.0160                 0.5051                 1.5856
 IR Inten    --     0.0288                 6.4865                 0.7984

                    40                     41                     42
                     A                      A                      A
 Frequencies --   811.0355               823.4603               830.5874
 Red. masses --     2.2444                 2.5685                 1.3541
 Frc consts  --     0.8698                 1.0262                 0.5504
 IR Inten    --    67.6483                 4.9979                14.9273

                    43                     44                     45
                     A                      A                      A
 Frequencies --   867.7024               871.9590               875.3169
 Red. masses --     1.5145                 1.5919                 1.4999
 Frc consts  --     0.6719                 0.7131                 0.6771
 IR Inten    --    64.4029               137.4221                88.5949

                    46                     47                     48
                     A                      A                      A
 Frequencies --   886.6755               891.1310               936.4472
 Red. masses --     1.8372                 1.6650                 1.3411
 Frc consts  --     0.8510                 0.7790                 0.6929
 IR Inten    --   156.6948                 9.4970                 0.2458

                    49                     50                     51
                     A                      A                      A
 Frequencies --   939.5387               949.5812               963.7196
 Red. masses --     5.3724                 1.3227                 1.3007
 Frc consts  --     2.7941                 0.7027                 0.7117
 IR Inten    --   107.0845                 3.3087                 0.4704

                    52                     53                     54
                     A                      A                      A
 Frequencies --   977.9504               985.9056               993.1264
 Red. masses --     1.3695                 1.2656                 3.5766
 Frc consts  --     0.7717                 0.7248                 2.0784
 IR Inten    --     0.1483                 0.0733               118.7506

                    55                     56                     57
                     A                      A                      A
 Frequencies --  1003.4537              1015.2117              1051.9346
 Red. masses --     1.2570                 6.2561                 2.2801
 Frc consts  --     0.7457                 3.7990                 1.4865
 IR Inten    --     0.3429                 0.7046                 0.6980

                    58                     59                     60
                     A                      A                      A
 Frequencies --  1056.0344              1107.0583              1135.6455
 Red. masses --     2.8454                 1.7095                 3.0129
 Frc consts  --     1.8696                 1.2344                 2.2894
 IR Inten    --     0.6702                 2.4155                67.1896

                    61                     62                     63
                     A                      A                      A
 Frequencies --  1151.8527              1175.7801              1187.4032
 Red. masses --     1.5951                 1.2419                 1.1795
 Frc consts  --     1.2469                 1.0116                 0.9798
 IR Inten    --    19.7867                 1.4755                 1.6153

                    64                     65                     66
                     A                      A                      A
 Frequencies --  1194.8732              1215.8527              1223.7501
 Red. masses --     1.1048                 1.6006                 1.1597
 Frc consts  --     0.9294                 1.3941                 1.0232
 IR Inten    --     0.1856               109.4742                 2.2733

                    67                     68                     69
                     A                      A                      A
 Frequencies --  1259.6454              1294.5894              1299.5576
 Red. masses --     2.2390                 1.9081                 2.3475
 Frc consts  --     2.0932                 1.8841                 2.3359
 IR Inten    --   102.4915               122.8158               131.6565

                    70                     71                     72
                     A                      A                      A
 Frequencies --  1320.1744              1330.5569              1336.7701
 Red. masses --     3.5506                 1.2844                 1.2550
 Frc consts  --     3.6460                 1.3397                 1.3214
 IR Inten    --     0.4123                33.3772                41.8178

                    73                     74                     75
                     A                      A                      A
 Frequencies --  1369.9265              1393.3332              1413.2783
 Red. masses --     1.5603                 2.0810                 5.9329
 Frc consts  --     1.7252                 2.3803                 6.9818
 IR Inten    --     2.4916                17.9735                 5.2498

                    76                     77                     78
                     A                      A                      A
 Frequencies --  1423.9786              1474.8862              1485.6535
 Red. masses --     3.9034                 2.0537                 1.1480
 Frc consts  --     4.6634                 2.6321                 1.4929
 IR Inten    --    60.0161                14.2043                 1.7828

                    79                     80                     81
                     A                      A                      A
 Frequencies --  1487.9446              1489.5620              1494.8124
 Red. masses --     2.0709                 1.0708                 1.0575
 Frc consts  --     2.7014                 1.3998                 1.3922
 IR Inten    --     6.9786                 0.9046                 1.9263

                    82                     83                     84
                     A                      A                      A
 Frequencies --  1501.3923              1518.9460              1535.9811
 Red. masses --     1.0553                 2.2882                 1.9980
 Frc consts  --     1.4015                 3.1106                 2.7772
 IR Inten    --     2.6429                96.6503                 0.3483

                    85                     86                     87
                     A                      A                      A
 Frequencies --  1562.3150              1626.4670              1627.5421
 Red. masses --     3.4217                 6.9444                 4.7979
 Frc consts  --     4.9207                10.8237                 7.4881
 IR Inten    --    55.4312                 6.6688                 0.2071

                    88                     89                     90
                     A                      A                      A
 Frequencies --  1651.1189              1659.6279              1684.8412
 Red. masses --     5.2310                 5.3359                 6.1462
 Frc consts  --     8.4022                 8.6592                10.2795
 IR Inten    --     3.1139                90.4638                74.2504

                    91                     92                     93
                     A                      A                      A
 Frequencies --  3047.9798              3050.0900              3117.7252
 Red. masses --     1.0354                 1.0360                 1.1000
 Frc consts  --     5.6673                 5.6788                 6.2996
 IR Inten    --     2.8920                 3.7113                 6.4512

                    94                     95                     96
                     A                      A                      A
 Frequencies --  3122.1009              3128.6081              3133.6230
 Red. masses --     1.1005                 1.1010                 1.1002
 Frc consts  --     6.3203                 6.3492                 6.3652
 IR Inten    --    20.4485                10.6196                10.3531

                    97                     98                     99
                     A                      A                      A
 Frequencies --  3169.7446              3175.1720              3178.1805
 Red. masses --     1.0861                 1.0856                 1.0858
 Frc consts  --     6.4292                 6.4484                 6.4621
 IR Inten    --     7.9758                 3.9407                 1.8341

                   100                    101                    102
                     A                      A                      A
 Frequencies --  3179.3724              3183.1328              3187.1244
 Red. masses --     1.0882                 1.0883                 1.0899
 Frc consts  --     6.4808                 6.4969                 6.5230
 IR Inten    --     1.4824                13.0347                 6.7544

                   103                    104                    105
                     A                      A                      A
 Frequencies --  3193.7380              3195.8615              3203.5924
 Red. masses --     1.0931                 1.0938                 1.0906
 Frc consts  --     6.5693                 6.5819                 6.5946
 IR Inten    --    32.7243                43.4284                17.0886

                   106                    107                    108
                     A                      A                      A
 Frequencies --  3206.7541              3207.4121              3215.2299
 Red. masses --     1.0979                 1.0969                 1.0938
 Frc consts  --     6.6517                 6.6483                 6.6618
 IR Inten    --    25.4560                31.4451                10.4963

 - Thermochemistry -
 -------------------
 Temperature   298.150 Kelvin.  Pressure   1.00000 Atm.
 Atom     1 has atomic number  6 and mass  12.00000

 Molecular mass:   278.11269 amu.
 Principal axes and moments of inertia in atomic units:
                           1         2         3
     Eigenvalues --  3562.836119512.40306**********
           X            0.99997  -0.00653   0.00316
           Y            0.00654   0.99997  -0.00322
           Z           -0.00314   0.00324   0.99999
 This molecule is an asymmetric top.
 Rotational symmetry number  1.
 Warning -- assumption of classical behavior for rotation
           may cause significant error
 Rotational temperatures (Kelvin)      0.02431     0.00911     0.00751
 Rotational constants (GHZ):           0.50655     0.18973     0.15653
 Zero-point vibrational energy     809033.8 (Joules/Mol)
                                  193.36372 (Kcal/Mol)
 Warning -- explicit consideration of  26 degrees of freedom as
           vibrations may cause significant error
 Vibrational temperatures:     22.61    26.36    42.02    80.28   133.72
          (Kelvin)            146.88   176.38   187.12   230.45   249.58
                              267.73   282.09   300.23   328.52   400.09
                              452.81   483.65   553.98   582.93   592.81
                              621.61   665.70   699.34   703.18   758.27
                              787.54   898.11   911.62   918.08   944.57
                              971.27  1003.84  1023.47  1030.77  1081.22
                             1099.10  1108.51  1122.93  1128.95  1166.90
                             1184.77  1195.03  1248.43  1254.55  1259.38
                             1275.73  1282.14  1347.34  1351.78  1366.23
                             1386.58  1407.05  1418.50  1428.89  1443.74
                             1460.66  1513.50  1519.40  1592.81  1633.94
                             1657.26  1691.68  1708.41  1719.15  1749.34
                             1760.70  1812.35  1862.62  1869.77  1899.43
                             1914.37  1923.31  1971.02  2004.69  2033.39
                             2048.79  2122.03  2137.52  2140.82  2143.14
                             2150.70  2160.17  2185.42  2209.93  2247.82
                             2340.12  2341.67  2375.59  2387.83  2424.11
                             4385.36  4388.39  4485.71  4492.00  4501.36
                             4508.58  4560.55  4568.36  4572.69  4574.40
                             4579.81  4585.56  4595.07  4598.13  4609.25
                             4613.80  4614.74  4625.99

 Zero-point correction=                           0.308145 (Hartree/Particle)
 Thermal correction to Energy=                    0.327025
 Thermal correction to Enthalpy=                  0.327970
 Thermal correction to Gibbs Free Energy=         0.258562
 Sum of electronic and zero-point Energies=          -1061.253388
 Sum of electronic and thermal Energies=             -1061.234507
 Sum of electronic and thermal Enthalpies=           -1061.233563
 Sum of electronic and thermal Free Energies=        -1061.302971

                     E (Thermal)             CV                S
                      KCal/Mol        Cal/Mol-Kelvin    Cal/Mol-Kelvin
 Total                  205.212             73.152            146.081
 Electronic               0.000              0.000              0.000
 Translational            0.889              2.981             42.767
 Rotational               0.889              2.981             34.324
 Vibrational            203.434             67.190             68.991
 Vibration     1          0.593              1.986              7.113
 Vibration     2          0.593              1.986              6.808
 Vibration     3          0.593              1.984              5.883
 Vibration     4          0.596              1.975              4.601
 Vibration     5          0.602              1.954              3.597
 Vibration     6          0.604              1.948              3.414
 Vibration     7          0.610              1.930              3.059
 Vibration     8          0.612              1.923              2.945
 Vibration     9          0.622              1.891              2.548
 Vibration    10          0.627              1.875              2.398
 Vibration    11          0.632              1.859              2.266
 Vibration    12          0.636              1.845              2.170
 Vibration    13          0.642              1.827              2.055
 Vibration    14          0.651              1.798              1.892
 Vibration    15          0.679              1.714              1.545
 Vibration    16          0.702              1.646              1.337
 Vibration    17          0.717              1.603              1.230
 Vibration    18          0.754              1.502              1.019
 Vibration    19          0.770              1.459              0.944
 Vibration    20          0.776              1.444              0.920
 Vibration    21          0.793              1.400              0.852
 Vibration    22          0.820              1.333              0.758
 Vibration    23          0.842              1.281              0.694
 Vibration    24          0.845              1.275              0.687
 Vibration    25          0.882              1.190              0.594
 Vibration    26          0.903              1.145              0.550

 Normal termination of Gaussian 09 at Tue Sep 28 16:44:41 2021.
 Gaussian 09:  AM64L-G09RevA.02 11-Jun-2009

 ----------------------------------------------------------------------
 #p TD(NStates=10, Root=1) b3lyp/6-31G* volume pop=NPA density=current
 Geom=AllCheck Guess=Read
 ----------------------------------------------------------------------

 C[Si](c1ccccc1)(Oc1ccc2c(c1)cccc2)C_conf_0
 ------------------------------------------
 Redundant internal coordinates taken from checkpoint file:
 C18H18OSi_c01b_conf_0.chk
 Charge =  0 Multiplicity = 1

                         Standard orientation:
 ---------------------------------------------------------------------
 Center     Atomic      Atomic             Coordinates (Angstroms)
 Number     Number       Type             X           Y           Z
 ---------------------------------------------------------------------
      1          6           0        3.058667   -2.757000   -0.224647
      2         14           0        1.875714   -1.417862    0.355423
      3          6           0        2.563203    0.296379   -0.019594
      4          6           0        2.352151    0.893042   -1.277307
      5          6           0        2.896363    2.139842   -1.588040
      6          6           0        3.667631    2.820404   -0.643681
      7          6           0        3.888393    2.250271    0.611163
      8          6           0        3.339435    1.003624    0.916782
      9          8           0        0.492065   -1.681979   -0.580246
     10          6           0       -0.777907   -1.191482   -0.449580
     11          6           0       -1.826607   -2.038299   -0.899838
     12          6           0       -3.133759   -1.624333   -0.823930
     13          6           0       -3.472639   -0.348047   -0.297376
     14          6           0       -2.413375    0.507003    0.150047
     15          6           0       -1.068056    0.059159    0.058689
     16          6           0       -2.747260    1.786954    0.670565
     17          6           0       -4.059217    2.198893    0.747546
     18          6           0       -5.105157    1.351538    0.307490
     19          6           0       -4.814216    0.106216   -0.203687
     20          6           0        1.471285   -1.607815    2.185175
     21          1           0        3.238760   -2.678718   -1.302479
     22          1           0        2.653983   -3.755104   -0.021126
     23          1           0        4.027312   -2.672578    0.282284
     24          1           0        1.744279    0.380262   -2.019301
     25          1           0        2.716431    2.581785   -2.564830
     26          1           0        4.091784    3.792099   -0.883537
     27          1           0        4.483910    2.777547    1.352275
     28          1           0        3.519837    0.581566    1.903491
     29          1           0       -1.561903   -3.012155   -1.299939
     30          1           0       -3.931408   -2.278140   -1.169192
     31          1           0       -0.268145    0.722639    0.373859
     32          1           0       -1.945250    2.439307    1.008327
     33          1           0       -4.296687    3.180888    1.148365
     34          1           0       -6.136129    1.688207    0.374153
     35          1           0       -5.612288   -0.549617   -0.544784
     36          1           0        2.363500   -1.465324    2.806886
     37          1           0        1.088086   -2.614967    2.386495
     38          1           0        0.713810   -0.889892    2.516432
 ---------------------------------------------------------------------

 SCF Done:  E(RB3LYP) =  -1061.56153265     A.U. after    1 cycles

 Excitation energies and oscillator strengths:

 Excited State   1:      Singlet-A      4.2178 eV  293.95 nm  f=0.0379  <S**2>=0.000
      73 -> 75         0.19203
      73 -> 78         0.16358
      74 -> 75         0.62755
      74 -> 78        -0.18465
 This state for optimization and/or second-order correction.
 Total Energy, E(TD-HF/TD-KS) =  -1061.40653105
 Copying the excited state density for this state as the 1-particle RhoCI density.

 Excited State   2:      Singlet-A      4.5285 eV  273.79 nm  f=0.0081  <S**2>=0.000
      73 -> 75         0.43034
      74 -> 75        -0.23761
      74 -> 76         0.34773
      74 -> 78        -0.35053

 Excited State   3:      Singlet-A      4.5808 eV  270.66 nm  f=0.0037  <S**2>=0.000
      73 -> 75        -0.24483
      74 -> 75         0.13811
      74 -> 76         0.61136
      74 -> 78         0.19540

 Excited State   4:      Singlet-A      4.9514 eV  250.40 nm  f=0.0056  <S**2>=0.000
      74 -> 77         0.68758
      74 -> 78        -0.15201

 Excited State   5:      Singlet-A      5.2636 eV  235.55 nm  f=0.0056  <S**2>=0.000
      73 -> 76         0.69625

 Excited State   6:      Singlet-A      5.3477 eV  231.85 nm  f=0.0018  <S**2>=0.000
      71 -> 75        -0.19405
      71 -> 76         0.48229
      71 -> 77         0.12926
      72 -> 76        -0.17153
      72 -> 77         0.41032

 Excited State   7:      Singlet-A      5.4800 eV  226.25 nm  f=0.0085  <S**2>=0.000
      72 -> 75         0.69819

 Excited State   8:      Singlet-A      5.5592 eV  223.03 nm  f=0.0028  <S**2>=0.000
      71 -> 75         0.67203
      71 -> 76         0.16521

 Excited State   9:      Singlet-A      5.6252 eV  220.41 nm  f=0.1545  <S**2>=0.000
      70 -> 75        -0.23057
      73 -> 75        -0.19097
      73 -> 77         0.55914
      74 -> 78        -0.19001
      74 -> 79         0.19038

 Excited State  10:      Singlet-A      5.6639 eV  218.90 nm  f=0.2658  <S**2>=0.000
      70 -> 75         0.31373
      73 -> 75         0.21273
      73 -> 77         0.41216
      74 -> 78         0.25434
      74 -> 79        -0.31808

 The electronic state is 1-A.
 Alpha  occ. eigenvalues --  -66.15137 -19.15506 -10.24634 -10.19409 -10.19335
 Alpha  occ. eigenvalues --  -10.19329 -10.19142 -10.19133 -10.19033 -10.18922
 Alpha  occ. eigenvalues --  -10.18823 -10.18485 -10.18465 -10.18354 -10.18293
 Alpha  occ. eigenvalues --  -10.18282 -10.17932 -10.17783 -10.16712 -10.16403
 Alpha  occ. eigenvalues --   -5.29236  -3.65358  -3.65027  -3.65007  -1.02646
 Alpha  occ. eigenvalues --   -0.86328  -0.84889  -0.80881  -0.76502  -0.74453
 Alpha  occ. eigenvalues --   -0.74336  -0.72978  -0.71136  -0.70195  -0.68187
 Alpha  occ. eigenvalues --   -0.62639  -0.60525  -0.60072  -0.59640  -0.59081
 Alpha  occ. eigenvalues --   -0.54075  -0.51662  -0.50829  -0.50051  -0.46300
 Alpha  occ. eigenvalues --   -0.44969  -0.44536  -0.44280  -0.43755  -0.42687
 Alpha  occ. eigenvalues --   -0.42070  -0.41716  -0.41458  -0.40896  -0.40582
 Alpha  occ. eigenvalues --   -0.39471  -0.39382  -0.38984  -0.37667  -0.37328
 Alpha  occ. eigenvalues --   -0.36513  -0.36206  -0.34574  -0.34110  -0.33348
 Alpha  occ. eigenvalues --   -0.32125  -0.31062  -0.29740  -0.28610  -0.27377
 Alpha  occ. eigenvalues --   -0.25084  -0.24941  -0.22628  -0.20263
 Alpha virt. eigenvalues --   -0.03016  -0.01469  -0.00216   0.00308   0.03893
 Alpha virt. eigenvalues --    0.07242   0.07512   0.09676   0.10269   0.10581
 Alpha virt. eigenvalues --    0.11341   0.12173   0.12560   0.13135   0.13715

 Mulliken atomic charges:
              1
     1  C   -0.657682
     2  Si   0.820583
     3  C   -0.067015
     4  C   -0.180945
     5  C   -0.119078
     6  C   -0.132579
     7  C   -0.119510
     8  C   -0.182644
     9  O   -0.603702
    10  C    0.394063
    11  C   -0.193005
    12  C   -0.215036
    13  C    0.152764
    14  C    0.134234
    15  C   -0.275441
    16  C   -0.204016
    17  C   -0.157627
    18  C   -0.112718
    19  C   -0.214674
    20  C   -0.689380
    21  H    0.178339
    22  H    0.171842
    23  H    0.169407
    24  H    0.143002
    25  H    0.134418
    26  H    0.133920
    27  H    0.131592
    28  H    0.124881
    29  H    0.125989
    30  H    0.125308
    31  H    0.165291
    32  H    0.121791
    33  H    0.116811
    34  H    0.131853
    35  H    0.124429
    36  H    0.167738
    37  H    0.176555
    38  H    0.180239
 Sum of Mulliken atomic charges =  -0.00000

 Dipole moment (field-independent basis, Debye):
    X=              2.2654    Y=              0.0588    Z=              0.8264  Tot=              2.4121
 Quadrupole moment (field-independent basis, Debye-Ang):
   XX=           -116.9685   YY=           -117.2449   ZZ=           -122.2986
   XY=              2.1246   XZ=              3.5970   YZ=             -0.5236

 Summary of Natural Population Analysis:

                                       Natural Population
                Natural  -----------------------------------------------
    Atom  No    Charge         Core      Valence    Rydberg      Total
 -----------------------------------------------------------------------
      C    1   -1.22081      1.99947     5.21158    0.00976     7.22081
     Si    2    2.02777      9.99762     1.92812    0.04648    11.97223
      C    3   -0.56215      1.99900     4.53844    0.02470     6.56215
      C    4   -0.21656      1.99907     4.20161    0.01588     6.21656
      C    5   -0.23117      1.99909     4.21806    0.01402     6.23117
      C    6   -0.22345      1.99909     4.21056    0.01379     6.22345
      C    7   -0.23499      1.99909     4.22182    0.01408     6.23499
      C    8   -0.21446      1.99906     4.20055    0.01484     6.21446
      O    9   -0.81294      1.99976     6.80150    0.01169     8.81294
      C   10    0.39103      1.99877     3.58790    0.02230     5.60897
      C   11   -0.34135      1.99904     4.32524    0.01706     6.34135
      C   12   -0.21573      1.99907     4.20128    0.01538     6.21573
      C   13   -0.04819      1.99902     4.03415    0.01501     6.04819
      C   14   -0.05420      1.99904     4.03950    0.01567     6.05420
      C   15   -0.26279      1.99898     4.24958    0.01423     6.26279
      C   16   -0.21999      1.99906     4.20565    0.01528     6.21999
      C   17   -0.29787      1.99912     4.28241    0.01634     6.29787
      C   18   -0.16582      1.99911     4.15209    0.01463     6.16582
      C   19   -0.24471      1.99907     4.23028    0.01536     6.24471
      C   20   -1.22694      1.99947     5.21824    0.00924     7.22694
      H   21    0.26209      0.00000     0.73712    0.00079     0.73791
      H   22    0.25743      0.00000     0.74185    0.00072     0.74257
      H   23    0.25656      0.00000     0.74287    0.00057     0.74344
      H   24    0.23954      0.00000     0.75898    0.00148     0.76046
      H   25    0.23859      0.00000     0.76051    0.00089     0.76141
      H   26    0.23731      0.00000     0.76185    0.00084     0.76269
      H   27    0.23714      0.00000     0.76197    0.00089     0.76286
      H   28    0.23009      0.00000     0.76885    0.00106     0.76991
      H   29    0.24120      0.00000     0.75777    0.00103     0.75880
      H   30    0.23178      0.00000     0.76710    0.00112     0.76822
      H   31    0.24238      0.00000     0.75628    0.00134     0.75762
      H   32    0.22769      0.00000     0.77117    0.00114     0.77231
      H   33    0.23133      0.00000     0.76787    0.00081     0.76867
      H   34    0.23262      0.00000     0.76652    0.00087     0.76738
      H   35    0.22969      0.00000     0.76918    0.00113     0.77031
      H   36    0.25551      0.00000     0.74397    0.00051     0.74449
      H   37    0.26106      0.00000     0.73817    0.00077     0.73894
      H   38    0.26330      0.00000     0.73560    0.00110     0.73670
 =======================================================================
   * Total *    0.00000     47.98100    99.66620    0.35280   148.00000

 Normal termination of Gaussian 09 at Tue Sep 28 23:05:08 2021.
