 Gaussian 09, Revision A.02,

 -----------------------------------
 #p opt b3lyp/6-31G* scf=(xqc,tight)
 -----------------------------------

 ------------------------------------
 COc1ccc2c(c1)ccc(c2)c1ccccc1C_conf_0
 ------------------------------------
 Symbolic Z-matrix:
 Charge =  0 Multiplicity = 1

 SCF Done:  E(RB3LYP) =  -770.779303275     A.U. after   14 cycles
 SCF Done:  E(RB3LYP) =  -770.785587411     A.U. after   13 cycles
 SCF Done:  E(RB3LYP) =  -770.786912924     A.U. after   12 cycles
 SCF Done:  E(RB3LYP) =  -770.787251265     A.U. after   12 cycles
 SCF Done:  E(RB3LYP) =  -770.787421205     A.U. after   11 cycles
 SCF Done:  E(RB3LYP) =  -770.787524235     A.U. after   10 cycles
 SCF Done:  E(RB3LYP) =  -770.787536581     A.U. after    9 cycles
 SCF Done:  E(RB3LYP) =  -770.787539399     A.U. after    9 cycles
 SCF Done:  E(RB3LYP) =  -770.787539777     A.U. after    8 cycles
 SCF Done:  E(RB3LYP) =  -770.787539811     A.U. after    7 cycles
 Optimization completed.
    -- Stationary point found.
 Normal termination of Gaussian 09 at Tue Sep 28 17:29:38 2021.

 ----------------------------------------------------------------------
 #p freq b3lyp/6-31G* volume NMR pop=NPA density=current Geom=AllCheck
 Guess=Read
 ----------------------------------------------------------------------

 COc1ccc2c(c1)ccc(c2)c1ccccc1C_conf_0
 ------------------------------------
 Redundant internal coordinates taken from checkpoint file:
 C18H16O_05c6_conf_0.chk
 Charge =  0 Multiplicity = 1

 SCF Done:  E(RB3LYP) =  -770.787539810     A.U. after    1 cycles

  1  C    Isotropic =   137.1435   Anisotropy =    65.6292

  2  O    Isotropic =   234.4217   Anisotropy =    82.4420

  3  C    Isotropic =    40.0645   Anisotropy =   122.7882

  4  C    Isotropic =    76.2273   Anisotropy =   134.7824

  5  C    Isotropic =    66.0543   Anisotropy =   142.7455

  6  C    Isotropic =    68.5327   Anisotropy =   188.4486

  7  C    Isotropic =    63.0472   Anisotropy =   194.0491

  8  C    Isotropic =    90.0201   Anisotropy =   118.0449

  9  C    Isotropic =    68.7277   Anisotropy =   140.0352

 10  C    Isotropic =    67.2049   Anisotropy =   147.5452

 11  C    Isotropic =    57.9626   Anisotropy =   164.3420

 12  C    Isotropic =    66.3176   Anisotropy =   140.3060

 13  C    Isotropic =    53.3040   Anisotropy =   164.3693

 14  C    Isotropic =    65.4147   Anisotropy =   150.8658

 15  C    Isotropic =    70.2107   Anisotropy =   161.1587

 16  C    Isotropic =    69.7967   Anisotropy =   161.4132

 17  C    Isotropic =    65.5174   Anisotropy =   145.3933

 18  C    Isotropic =    60.0612   Anisotropy =   171.6674

 19  C    Isotropic =   167.3328   Anisotropy =    22.8691

 20  H    Isotropic =    28.1939   Anisotropy =     8.2827

 21  H    Isotropic =    28.4768   Anisotropy =     8.0447

 22  H    Isotropic =    28.4778   Anisotropy =     7.9134

 23  H    Isotropic =    25.1994   Anisotropy =     6.2618

 24  H    Isotropic =    24.6726   Anisotropy =     7.5608

 25  H    Isotropic =    25.6187   Anisotropy =     9.2977

 26  H    Isotropic =    24.6629   Anisotropy =     7.5839

 27  H    Isotropic =    24.8453   Anisotropy =     8.7045

 28  H    Isotropic =    24.6904   Anisotropy =    10.5590

 29  H    Isotropic =    25.0027   Anisotropy =     9.4963

 30  H    Isotropic =    25.0302   Anisotropy =     4.5727

 31  H    Isotropic =    25.0296   Anisotropy =     4.0698

 32  H    Isotropic =    24.9906   Anisotropy =     6.9842

 33  H    Isotropic =    30.1993   Anisotropy =     8.7071

 34  H    Isotropic =    29.5267   Anisotropy =     7.9731

 35  H    Isotropic =    30.0280   Anisotropy =     6.2317

  Exact polarizability: 335.808   9.092 175.906   2.956  -4.755  98.312
 Approx polarizability: 471.616  25.822 315.458   0.083 -17.674 159.947

                     1                      2                      3
                     A                      A                      A
 Frequencies --    37.2247                41.2640                73.1442
 Red. masses --     3.9449                 4.3734                 4.6443
 Frc consts  --     0.0032                 0.0044                 0.0146
 IR Inten    --     0.6254                 0.0099                 0.1819

                     4                      5                      6
                     A                      A                      A
 Frequencies --    91.4861               140.6679               149.7324
 Red. masses --     3.4856                 4.4909                 1.0573
 Frc consts  --     0.0172                 0.0524                 0.0140
 IR Inten    --     1.8174                 1.4278                 0.2165

                     7                      8                      9
                     A                      A                      A
 Frequencies --   166.7398               187.6740               198.2136
 Red. masses --     3.3435                 3.3526                 3.6356
 Frc consts  --     0.0548                 0.0696                 0.0842
 IR Inten    --     1.0128                 0.5502                 1.6372

                    10                     11                     12
                     A                      A                      A
 Frequencies --   238.2807               247.4567               285.5401
 Red. masses --     1.7061                 3.4513                 2.3323
 Frc consts  --     0.0571                 0.1245                 0.1120
 IR Inten    --     0.4074                 0.4901                 0.6366

                    13                     14                     15
                     A                      A                      A
 Frequencies --   298.3101               375.4391               379.8242
 Red. masses --     3.7425                 3.7167                 3.8628
 Frc consts  --     0.1962                 0.3087                 0.3283
 IR Inten    --     1.7237                 0.2194                 1.9650

                    16                     17                     18
                     A                      A                      A
 Frequencies --   411.9742               446.8761               466.3662
 Red. masses --     3.4721                 4.3980                 3.3065
 Frc consts  --     0.3472                 0.5175                 0.4237
 IR Inten    --     0.2773                 1.4348                 4.9973

                    19                     20                     21
                     A                      A                      A
 Frequencies --   483.9260               489.7947               519.0557
 Red. masses --     4.0691                 2.6496                 4.8153
 Frc consts  --     0.5614                 0.3745                 0.7644
 IR Inten    --     6.9053                 6.7381                10.8721

                    22                     23                     24
                     A                      A                      A
 Frequencies --   533.3179               549.5480               566.3550
 Red. masses --     5.8821                 4.4135                 4.5059
 Frc consts  --     0.9857                 0.7853                 0.8516
 IR Inten    --     0.2443                 1.3508                 2.6889

                    25                     26                     27
                     A                      A                      A
 Frequencies --   604.1564               643.5454               679.7343
 Red. masses --     3.0243                 6.8801                 5.3802
 Frc consts  --     0.6504                 1.6788                 1.4646
 IR Inten    --     0.2697                 1.3390                 2.2745

                    28                     29                     30
                     A                      A                      A
 Frequencies --   684.6346               742.9385               749.0952
 Red. masses --     4.3913                 2.6823                 5.0680
 Frc consts  --     1.2127                 0.8723                 1.6756
 IR Inten    --     1.0691                 6.9564                 3.4748

                    31                     32                     33
                     A                      A                      A
 Frequencies --   767.8165               775.3947               807.6250
 Red. masses --     2.5004                 1.6427                 4.4761
 Frc consts  --     0.8685                 0.5819                 1.7201
 IR Inten    --     5.6785                28.4296                 1.9170

                    34                     35                     36
                     A                      A                      A
 Frequencies --   825.1058               829.8502               836.0858
 Red. masses --     1.4265                 1.6780                 3.5007
 Frc consts  --     0.5722                 0.6808                 1.4418
 IR Inten    --     0.8626                14.5934                 7.4669

                    37                     38                     39
                     A                      A                      A
 Frequencies --   871.8415               886.1461               917.2089
 Red. masses --     1.6349                 1.3340                 1.4504
 Frc consts  --     0.7322                 0.6172                 0.7189
 IR Inten    --    36.8125                 0.5780                16.3592

                    40                     41                     42
                     A                      A                      A
 Frequencies --   932.7770               949.7741               966.1851
 Red. masses --     5.1126                 1.3623                 1.2889
 Frc consts  --     2.6209                 0.7240                 0.7089
 IR Inten    --    22.9128                 0.6762                 0.5438

                    43                     44                     45
                     A                      A                      A
 Frequencies --   968.7416               977.9022               984.0669
 Red. masses --     1.2929                 3.8561                 1.2567
 Frc consts  --     0.7149                 2.1727                 0.7170
 IR Inten    --     0.1174                 1.2595                 0.0568

                    46                     47                     48
                     A                      A                      A
 Frequencies --  1015.9632              1049.9159              1073.3317
 Red. masses --     1.5705                 3.1759                 1.5193
 Frc consts  --     0.9551                 2.0627                 1.0312
 IR Inten    --     1.8221                 1.9337                 2.9478

                    49                     50                     51
                     A                      A                      A
 Frequencies --  1074.4950              1083.7733              1148.9328
 Red. masses --     4.4252                 2.2468                 1.6696
 Frc consts  --     3.0102                 1.5548                 1.2985
 IR Inten    --    53.2924                 1.9576                 1.7930

                    52                     53                     54
                     A                      A                      A
 Frequencies --  1159.8742              1185.0294              1185.1186
 Red. masses --     1.4557                 1.2845                 1.2752
 Frc consts  --     1.1539                 1.0628                 1.0553
 IR Inten    --    19.6757                 0.3790                 0.8442

                    55                     56                     57
                     A                      A                      A
 Frequencies --  1196.9138              1206.5321              1223.0114
 Red. masses --     1.0994                 1.5018                 2.0999
 Frc consts  --     0.9279                 1.2881                 1.8506
 IR Inten    --     0.4661                30.1741                13.0885

                    58                     59                     60
                     A                      A                      A
 Frequencies --  1230.5877              1243.5867              1289.1230
 Red. masses --     1.8177                 1.8055                 3.8625
 Frc consts  --     1.6218                 1.6451                 3.7819
 IR Inten    --     3.7935               124.7449                98.6794

                    61                     62                     63
                     A                      A                      A
 Frequencies --  1304.0224              1309.1568              1312.1608
 Red. masses --     2.1010                 2.1636                 1.6603
 Frc consts  --     2.1050                 2.1848                 1.6843
 IR Inten    --    29.5914                95.5191                 2.5453

                    64                     65                     66
                     A                      A                      A
 Frequencies --  1341.7859              1376.3128              1413.1784
 Red. masses --     4.3139                 1.9817                 4.4192
 Frc consts  --     4.5761                 2.2117                 5.1998
 IR Inten    --     0.1743                 5.9312                 0.3632

                    67                     68                     69
                     A                      A                      A
 Frequencies --  1437.0693              1445.2612              1451.8101
 Red. masses --     3.4949                 1.2598                 4.3572
 Frc consts  --     4.2525                 1.5504                 5.4110
 IR Inten    --    83.8061                 1.7569                 7.5374

                    70                     71                     72
                     A                      A                      A
 Frequencies --  1488.1406              1495.2458              1514.5330
 Red. masses --     1.9398                 1.3272                 1.0806
 Frc consts  --     2.5311                 1.7482                 1.4604
 IR Inten    --     8.6206                13.0607                12.4864

                    73                     74                     75
                     A                      A                      A
 Frequencies --  1519.0495              1520.4842              1532.7424
 Red. masses --     1.0486                 1.4323                 1.5891
 Frc consts  --     1.4256                 1.9510                 2.1995
 IR Inten    --     6.1689                10.9157                18.0304

                    76                     77                     78
                     A                      A                      A
 Frequencies --  1534.0731              1545.6051              1554.2704
 Red. masses --     1.1874                 2.1604                 3.1009
 Frc consts  --     1.6464                 3.0408                 4.4135
 IR Inten    --    58.5216                50.1241                 5.8534

                    79                     80                     81
                     A                      A                      A
 Frequencies --  1622.0729              1629.9341              1659.6567
 Red. masses --     6.4319                 5.9253                 5.4591
 Frc consts  --     9.9709                 9.2748                 8.8595
 IR Inten    --     2.3727                 0.6249                36.7318

                    82                     83                     84
                     A                      A                      A
 Frequencies --  1664.5667              1685.9028              3026.0685
 Red. masses --     5.6928                 6.1170                 1.0346
 Frc consts  --     9.2935                10.2437                 5.5819
 IR Inten    --    57.5584                90.5624                58.0119

                    85                     86                     87
                     A                      A                      A
 Frequencies --  3044.0555              3084.8726              3100.7895
 Red. masses --     1.0428                 1.1066                 1.0940
 Frc consts  --     5.6932                 6.2047                 6.1974
 IR Inten    --    21.9482                42.3124                24.4190

                    88                     89                     90
                     A                      A                      A
 Frequencies --  3134.8944              3158.6420              3173.8371
 Red. masses --     1.1017                 1.0999                 1.0861
 Frc consts  --     6.3792                 6.4657                 6.4460
 IR Inten    --    17.1531                32.2060                11.5966

                    91                     92                     93
                     A                      A                      A
 Frequencies --  3176.8394              3183.6043              3184.6133
 Red. masses --     1.0872                 1.0875                 1.0887
 Frc consts  --     6.4649                 6.4943                 6.5055
 IR Inten    --    11.1323                 6.8507                 3.9416

                    94                     95                     96
                     A                      A                      A
 Frequencies --  3191.1919              3194.6002              3200.3714
 Red. masses --     1.0895                 1.0924                 1.0938
 Frc consts  --     6.5372                 6.5683                 6.6007
 IR Inten    --    17.0764                33.1484                14.0196

                    97                     98                     99
                     A                      A                      A
 Frequencies --  3207.3191              3215.0198              3217.0061
 Red. masses --     1.0975                 1.0895                 1.0937
 Frc consts  --     6.6518                 6.6352                 6.6691
 IR Inten    --    36.6716                15.4015                10.6923

 - Thermochemistry -
 -------------------
 Temperature   298.150 Kelvin.  Pressure   1.00000 Atm.
 Atom     1 has atomic number  6 and mass  12.00000

 Molecular mass:   248.12012 amu.
 Principal axes and moments of inertia in atomic units:
                           1         2         3
     Eigenvalues --  1436.40514********************
           X            0.99996  -0.00845   0.00118
           Y            0.00845   0.99994   0.00721
           Z           -0.00124  -0.00720   0.99997
 This molecule is an asymmetric top.
 Rotational symmetry number  1.
 Warning -- assumption of classical behavior for rotation
           may cause significant error
 Rotational temperatures (Kelvin)      0.06030     0.00778     0.00724
 Rotational constants (GHZ):           1.25643     0.16219     0.15077
 Zero-point vibrational energy     759603.5 (Joules/Mol)
                                  181.54959 (Kcal/Mol)
 Warning -- explicit consideration of  25 degrees of freedom as
           vibrations may cause significant error
 Vibrational temperatures:     53.56    59.37   105.24   131.63   202.39
          (Kelvin)            215.43   239.90   270.02   285.18   342.83
                              356.03   410.83   429.20   540.17   546.48
                              592.74   642.95   671.00   696.26   704.70
                              746.80   767.32   790.68   814.86   869.25
                              925.92   977.98   985.04  1068.92  1077.78
                             1104.72  1115.62  1161.99  1187.14  1193.97
                             1202.94  1254.38  1274.97  1319.66  1342.06
                             1366.51  1390.12  1393.80  1406.98  1415.85
                             1461.74  1510.59  1544.28  1545.96  1559.31
                             1653.06  1668.80  1704.99  1705.12  1722.09
                             1735.93  1759.64  1770.54  1789.24  1854.76
                             1876.20  1883.58  1887.90  1930.53  1980.20
                             2033.25  2067.62  2079.41  2088.83  2141.10
                             2151.32  2179.07  2185.57  2187.63  2205.27
                             2207.19  2223.78  2236.25  2333.80  2345.11
                             2387.87  2394.94  2425.64  4353.83  4379.71
                             4438.44  4461.34  4510.41  4544.58  4566.44
                             4570.76  4580.49  4581.94  4591.41  4596.31
                             4604.61  4614.61  4625.69  4628.55

 Zero-point correction=                           0.289318 (Hartree/Particle)
 Thermal correction to Energy=                    0.305097
 Thermal correction to Enthalpy=                  0.306041
 Thermal correction to Gibbs Free Energy=         0.245817
 Sum of electronic and zero-point Energies=           -770.498222
 Sum of electronic and thermal Energies=              -770.482443
 Sum of electronic and thermal Enthalpies=            -770.481499
 Sum of electronic and thermal Free Energies=         -770.541723

                     E (Thermal)             CV                S
                      KCal/Mol        Cal/Mol-Kelvin    Cal/Mol-Kelvin
 Total                  191.451             63.102            126.752
 Electronic               0.000              0.000              0.000
 Translational            0.889              2.981             42.427
 Rotational               0.889              2.981             33.614
 Vibrational            189.674             57.140             50.711
 Vibration     1          0.594              1.982              5.402
 Vibration     2          0.594              1.981              5.197
 Vibration     3          0.599              1.967              4.067
 Vibration     4          0.602              1.955              3.628
 Vibration     5          0.615              1.913              2.795
 Vibration     6          0.618              1.903              2.676
 Vibration     7          0.624              1.883              2.472
 Vibration     8          0.632              1.857              2.251
 Vibration     9          0.637              1.842              2.150
 Vibration    10          0.656              1.782              1.816
 Vibration    11          0.661              1.767              1.749
 Vibration    12          0.683              1.701              1.500
 Vibration    13          0.691              1.677              1.426
 Vibration    14          0.746              1.522              1.057
 Vibration    15          0.750              1.513              1.040
 Vibration    16          0.776              1.444              0.920
 Vibration    17          0.806              1.368              0.805
 Vibration    18          0.824              1.325              0.748
 Vibration    19          0.840              1.286              0.700
 Vibration    20          0.846              1.273              0.684
 Vibration    21          0.874              1.208              0.612
 Vibration    22          0.888              1.176              0.580
 Vibration    23          0.905              1.141              0.545
 Vibration    24          0.922              1.104              0.511
 Vibration    25          0.963              1.023              0.443

 Normal termination of Gaussian 09 at Tue Sep 28 19:00:48 2021.
 Gaussian 09:  AM64L-G09RevA.02 11-Jun-2009

 ----------------------------------------------------------------------
 #p TD(NStates=10, Root=1) b3lyp/6-31G* volume pop=NPA density=current
 Geom=AllCheck Guess=Read
 ----------------------------------------------------------------------

 COc1ccc2c(c1)ccc(c2)c1ccccc1C_conf_0
 ------------------------------------
 Redundant internal coordinates taken from checkpoint file:
 C18H16O_05c6_conf_0.chk
 Charge =  0 Multiplicity = 1

                         Standard orientation:
 ---------------------------------------------------------------------
 Center     Atomic      Atomic             Coordinates (Angstroms)
 Number     Number       Type             X           Y           Z
 ---------------------------------------------------------------------
      1          6           0        5.943817   -0.833543    0.356215
      2          8           0        5.281513    0.311470   -0.155891
      3          6           0        3.917284    0.307282   -0.175436
      4          6           0        3.331709    1.491997   -0.703788
      5          6           0        1.968884    1.616877   -0.778464
      6          6           0        1.107190    0.574699   -0.331768
      7          6           0        1.700216   -0.616176    0.194032
      8          6           0        3.116317   -0.727511    0.264838
      9          6           0        0.836542   -1.655058    0.630367
     10          6           0       -0.530880   -1.522661    0.551021
     11          6           0       -1.135521   -0.340376    0.035426
     12          6           0       -0.304044    0.679889   -0.396934
     13          6           0       -2.620611   -0.254140   -0.065918
     14          6           0       -3.303962   -1.308220   -0.697006
     15          6           0       -4.689719   -1.304668   -0.833253
     16          6           0       -5.424651   -0.234387   -0.324689
     17          6           0       -4.760963    0.809855    0.316475
     18          6           0       -3.366654    0.827276    0.459727
     19          6           0       -2.725647    1.984327    1.196212
     20          1           0        7.011942   -0.621574    0.281616
     21          1           0        5.708372   -1.730602   -0.231784
     22          1           0        5.680528   -1.013734    1.406999
     23          1           0        3.995833    2.281899   -1.040486
     24          1           0        1.528327    2.524923   -1.183278
     25          1           0        3.542593   -1.638988    0.669544
     26          1           0        1.272537   -2.564841    1.037066
     27          1           0       -1.172316   -2.325843    0.903544
     28          1           0       -0.733373    1.583725   -0.821359
     29          1           0       -2.725805   -2.134091   -1.103324
     30          1           0       -5.189163   -2.129716   -1.334205
     31          1           0       -6.507339   -0.214614   -0.417923
     32          1           0       -5.337483    1.634326    0.730689
     33          1           0       -3.446489    2.450706    1.875927
     34          1           0       -2.378122    2.767965    0.510471
     35          1           0       -1.857993    1.665943    1.781291
 ---------------------------------------------------------------------

 SCF Done:  E(RB3LYP) =  -770.787539810     A.U. after    1 cycles

 Excitation energies and oscillator strengths:

 Excited State   1:      Singlet-A      4.0445 eV  306.55 nm  f=0.0739  <S**2>=0.000
      65 -> 67         0.16806
      65 -> 68        -0.15696
      66 -> 67         0.62484
      66 -> 68         0.20695
 This state for optimization and/or second-order correction.
 Total Energy, E(TD-HF/TD-KS) =  -770.638908322
 Copying the excited state density for this state as the 1-particle RhoCI density.

 Excited State   2:      Singlet-A      4.3384 eV  285.78 nm  f=0.0903  <S**2>=0.000
      65 -> 67         0.40099
      66 -> 67        -0.28037
      66 -> 68         0.49869

 Excited State   3:      Singlet-A      4.8347 eV  256.45 nm  f=0.0455  <S**2>=0.000
      63 -> 69        -0.11227
      64 -> 67         0.55197
      64 -> 68        -0.13507
      65 -> 67         0.18099
      66 -> 69         0.32180

 Excited State   4:      Singlet-A      4.9676 eV  249.59 nm  f=0.5591  <S**2>=0.000
      63 -> 67        -0.26314
      65 -> 67         0.41314
      66 -> 68        -0.33896
      66 -> 69        -0.30119
      66 -> 70        -0.15024

 Excited State   5:      Singlet-A      5.0176 eV  247.10 nm  f=0.1986  <S**2>=0.000
      63 -> 67         0.26652
      64 -> 67        -0.33347
      64 -> 68        -0.13366
      65 -> 67         0.19458
      65 -> 68        -0.11791
      66 -> 68        -0.24821
      66 -> 69         0.34386
      66 -> 70        -0.24055

 Excited State   6:      Singlet-A      5.1191 eV  242.20 nm  f=0.0045  <S**2>=0.000
      63 -> 67         0.56203
      64 -> 67         0.21303
      64 -> 68         0.10825
      66 -> 69        -0.30954
      66 -> 70        -0.12518

 Excited State   7:      Singlet-A      5.3314 eV  232.55 nm  f=0.0500  <S**2>=0.000
      64 -> 68         0.17958
      65 -> 68         0.54099
      66 -> 69         0.13428
      66 -> 70        -0.32718

 Excited State   8:      Singlet-A      5.4205 eV  228.73 nm  f=0.0086  <S**2>=0.000
      63 -> 68         0.17972
      63 -> 69         0.19510
      64 -> 68         0.47107
      64 -> 69        -0.12708
      65 -> 68        -0.20525
      65 -> 69        -0.21954
      66 -> 69         0.24381
      66 -> 70         0.11496

 Excited State   9:      Singlet-A      5.5722 eV  222.51 nm  f=0.1182  <S**2>=0.000
      63 -> 68         0.52587
      64 -> 68        -0.27453
      65 -> 68         0.14322
      65 -> 69        -0.13923
      65 -> 70         0.14819
      66 -> 70         0.21173

 Excited State  10:      Singlet-A      5.6898 eV  217.90 nm  f=0.0180  <S**2>=0.000
      62 -> 67         0.39245
      66 -> 70         0.12096
      66 -> 71         0.55156

 The electronic state is 1-A.
 Alpha  occ. eigenvalues --  -19.17988 -10.24792 -10.24208 -10.19652 -10.19354
 Alpha  occ. eigenvalues --  -10.19262 -10.19187 -10.19162 -10.19140 -10.18764
 Alpha  occ. eigenvalues --  -10.18642 -10.18603 -10.18569 -10.18440 -10.18345
 Alpha  occ. eigenvalues --  -10.18268 -10.18212 -10.18115 -10.17719  -1.06555
 Alpha  occ. eigenvalues --   -0.87114  -0.85173  -0.81717  -0.77385  -0.76295
 Alpha  occ. eigenvalues --   -0.75928  -0.73154  -0.71623  -0.69516  -0.67621
 Alpha  occ. eigenvalues --   -0.62091  -0.61392  -0.59673  -0.58422  -0.56914
 Alpha  occ. eigenvalues --   -0.52929  -0.51409  -0.50725  -0.48520  -0.46945
 Alpha  occ. eigenvalues --   -0.46348  -0.45718  -0.44885  -0.44261  -0.43252
 Alpha  occ. eigenvalues --   -0.42158  -0.41414  -0.40669  -0.40387  -0.40113
 Alpha  occ. eigenvalues --   -0.38868  -0.38023  -0.37509  -0.36187  -0.35405
 Alpha  occ. eigenvalues --   -0.34658  -0.34207  -0.33396  -0.32420  -0.32184
 Alpha  occ. eigenvalues --   -0.29762  -0.27882  -0.24272  -0.23609  -0.22509
 Alpha  occ. eigenvalues --   -0.20012
 Alpha virt. eigenvalues --   -0.03396  -0.01377   0.00611   0.02066   0.03785
 Alpha virt. eigenvalues --    0.09526   0.10006   0.10346   0.10929   0.11406
 Alpha virt. eigenvalues --    0.12169   0.13331   0.14261   0.15311   0.15471

 Mulliken atomic charges:
              1
     1  C   -0.223551
     2  O   -0.473058
     3  C    0.381360
     4  C   -0.195619
     5  C   -0.214815
     6  C    0.155593
     7  C    0.145603
     8  C   -0.278501
     9  C   -0.219224
    10  C   -0.190727
    11  C    0.079830
    12  C   -0.272138
    13  C    0.023633
    14  C   -0.161093
    15  C   -0.135805
    16  C   -0.116154
    17  C   -0.190129
    18  C    0.151614
    19  C   -0.532907
    20  H    0.176425
    21  H    0.164879
    22  H    0.164821
    23  H    0.124264
    24  H    0.119605
    25  H    0.129469
    26  H    0.114166
    27  H    0.118308
    28  H    0.122531
    29  H    0.141717
    30  H    0.132894
    31  H    0.133350
    32  H    0.126284
    33  H    0.153472
    34  H    0.166544
    35  H    0.177360
 Sum of Mulliken atomic charges =  -0.00000

 Dipole moment (field-independent basis, Debye):
    X=              0.4158    Y=             -1.0531    Z=              0.7081  Tot=              1.3354
 Quadrupole moment (field-independent basis, Debye-Ang):
   XX=            -84.3748   YY=           -103.8721   ZZ=           -113.1442
   XY=             -9.5891   XZ=              4.4063   YZ=              0.0147

 Summary of Natural Population Analysis:

                                       Natural Population
                Natural  -----------------------------------------------
    Atom  No    Charge         Core      Valence    Rydberg      Total
 -----------------------------------------------------------------------
      C    1   -0.32324      1.99943     4.30969    0.01412     6.32324
      O    2   -0.46795      1.99975     6.45640    0.01180     8.46795
      C    3    0.36554      1.99880     3.61306    0.02260     5.63446
      C    4   -0.33185      1.99905     4.31586    0.01695     6.33185
      C    5   -0.23244      1.99907     4.21812    0.01525     6.23244
      C    6   -0.04143      1.99902     4.02720    0.01521     6.04143
      C    7   -0.03146      1.99903     4.01694    0.01548     6.03146
      C    8   -0.30388      1.99899     4.29196    0.01293     6.30388
      C    9   -0.24049      1.99906     4.22581    0.01562     6.24049
      C   10   -0.27252      1.99906     4.25820    0.01526     6.27252
      C   11   -0.00507      1.99902     3.98965    0.01640     6.00507
      C   12   -0.23873      1.99900     4.22490    0.01483     6.23873
      C   13   -0.03370      1.99895     4.01933    0.01542     6.03370
      C   14   -0.20593      1.99904     4.19374    0.01314     6.20593
      C   15   -0.23675      1.99909     4.22373    0.01393     6.23675
      C   16   -0.21150      1.99909     4.19852    0.01389     6.21150
      C   17   -0.23102      1.99904     4.21907    0.01292     6.23102
      C   18   -0.00057      1.99898     3.98833    0.01327     6.00057
      C   19   -0.69362      1.99939     4.68663    0.00760     6.69362
      H   20    0.23145      0.00000     0.76803    0.00052     0.76855
      H   21    0.21127      0.00000     0.78699    0.00174     0.78873
      H   22    0.21124      0.00000     0.78702    0.00174     0.78876
      H   23    0.24090      0.00000     0.75803    0.00107     0.75910
      H   24    0.23044      0.00000     0.76849    0.00107     0.76956
      H   25    0.23219      0.00000     0.76663    0.00118     0.76781
      H   26    0.22656      0.00000     0.77232    0.00113     0.77344
      H   27    0.23340      0.00000     0.76567    0.00092     0.76660
      H   28    0.22899      0.00000     0.76984    0.00117     0.77101
      H   29    0.24389      0.00000     0.75481    0.00130     0.75611
      H   30    0.23844      0.00000     0.76072    0.00084     0.76156
      H   31    0.23699      0.00000     0.76214    0.00087     0.76301
      H   32    0.23416      0.00000     0.76479    0.00105     0.76584
      H   33    0.23825      0.00000     0.76075    0.00100     0.76175
      H   34    0.24504      0.00000     0.75401    0.00095     0.75496
      H   35    0.25339      0.00000     0.74575    0.00086     0.74661
 =======================================================================
   * Total *    0.00000     37.98284    93.72314    0.29402   132.00000

 Normal termination of Gaussian 09 at Wed Sep 29 00:46:04 2021.
