 Gaussian 09, Revision A.02,

 -----------------------------------
 #p opt b3lyp/6-31G* scf=(xqc,tight)
 -----------------------------------

 ---------------------------------------
 COc1ccccc1C(=O)Oc1ccc2c(c1)cccc2_conf_0
 ---------------------------------------
 Symbolic Z-matrix:
 Charge =  0 Multiplicity = 1

 SCF Done:  E(RB3LYP) =  -920.016195268     A.U. after   15 cycles
 SCF Done:  E(RB3LYP) =  -920.022342346     A.U. after   12 cycles
 SCF Done:  E(RB3LYP) =  -920.023223203     A.U. after   13 cycles
 SCF Done:  E(RB3LYP) =  -920.023300212     A.U. after   12 cycles
 SCF Done:  E(RB3LYP) =  -920.023996659     A.U. after   12 cycles
 SCF Done:  E(RB3LYP) =  -920.024498952     A.U. after   12 cycles
 SCF Done:  E(RB3LYP) =  -920.024709605     A.U. after   16 cycles
 SCF Done:  E(RB3LYP) =  -920.024788474     A.U. after   11 cycles
 SCF Done:  E(RB3LYP) =  -920.024813689     A.U. after   11 cycles
 SCF Done:  E(RB3LYP) =  -920.024845535     A.U. after   12 cycles
 SCF Done:  E(RB3LYP) =  -920.025056676     A.U. after   14 cycles
 SCF Done:  E(RB3LYP) =  -920.025083062     A.U. after   11 cycles
 SCF Done:  E(RB3LYP) =  -920.025081625     A.U. after   11 cycles
 SCF Done:  E(RB3LYP) =  -920.025093730     A.U. after   11 cycles
 SCF Done:  E(RB3LYP) =  -920.025097120     A.U. after   10 cycles
 SCF Done:  E(RB3LYP) =  -920.025097562     A.U. after    8 cycles
 SCF Done:  E(RB3LYP) =  -920.025098113     A.U. after    8 cycles
 SCF Done:  E(RB3LYP) =  -920.025098149     A.U. after    7 cycles
 Optimization completed.
    -- Stationary point found.
 Normal termination of Gaussian 09 at Wed Sep 29 18:16:48 2021.

 ----------------------------------------------------------------------
 #p freq b3lyp/6-31G* volume NMR pop=NPA density=current Geom=AllCheck
 Guess=Read
 ----------------------------------------------------------------------

 COc1ccccc1C(=O)Oc1ccc2c(c1)cccc2_conf_0
 ---------------------------------------
 Redundant internal coordinates taken from checkpoint file:
 C18H14O3_19a5_conf_0.chk
 Charge =  0 Multiplicity = 1

 SCF Done:  E(RB3LYP) =  -920.025098149     A.U. after    1 cycles

  1  C    Isotropic =   137.1637   Anisotropy =    64.8018

  2  O    Isotropic =   224.4433   Anisotropy =   121.0123

  3  C    Isotropic =    37.5976   Anisotropy =   129.2774

  4  C    Isotropic =    84.9315   Anisotropy =   143.0332

  5  C    Isotropic =    62.4639   Anisotropy =   169.7377

  6  C    Isotropic =    76.5804   Anisotropy =   154.5095

  7  C    Isotropic =    59.5644   Anisotropy =   174.4062

  8  C    Isotropic =    75.7771   Anisotropy =   126.1172

  9  C    Isotropic =    32.5600   Anisotropy =    69.1666

 10  O    Isotropic =   -45.8793   Anisotropy =   539.2532

 11  O    Isotropic =    99.1063   Anisotropy =   146.6386

 12  C    Isotropic =    45.7333   Anisotropy =   108.4822

 13  C    Isotropic =    72.8656   Anisotropy =   149.2257

 14  C    Isotropic =    67.2702   Anisotropy =   142.1374

 15  C    Isotropic =    65.8113   Anisotropy =   196.2733

 16  C    Isotropic =    62.9219   Anisotropy =   195.4054

 17  C    Isotropic =    77.6067   Anisotropy =   120.6688

 18  C    Isotropic =    68.1333   Anisotropy =   145.0606

 19  C    Isotropic =    70.2125   Anisotropy =   162.0574

 20  C    Isotropic =    71.2746   Anisotropy =   160.7048

 21  C    Isotropic =    67.6734   Anisotropy =   146.3843

 22  H    Isotropic =    28.0999   Anisotropy =     7.4488

 23  H    Isotropic =    28.5869   Anisotropy =     8.6906

 24  H    Isotropic =    28.5158   Anisotropy =     8.5905

 25  H    Isotropic =    25.6863   Anisotropy =     7.7993

 26  H    Isotropic =    24.8663   Anisotropy =     4.6413

 27  H    Isotropic =    25.3046   Anisotropy =     3.9764

 28  H    Isotropic =    23.9912   Anisotropy =     8.1650

 29  H    Isotropic =    24.6543   Anisotropy =     8.9660

 30  H    Isotropic =    24.5550   Anisotropy =     6.8537

 31  H    Isotropic =    24.9677   Anisotropy =     9.1472

 32  H    Isotropic =    24.6003   Anisotropy =     7.7298

 33  H    Isotropic =    24.8042   Anisotropy =     5.2215

 34  H    Isotropic =    24.8056   Anisotropy =     4.9311

 35  H    Isotropic =    24.5529   Anisotropy =     6.9184

  Exact polarizability: 321.030  11.872 166.011   1.804 -18.545 126.210
 Approx polarizability: 453.856  13.941 287.019   1.704 -44.367 216.257

                     1                      2                      3
                     A                      A                      A
 Frequencies --    17.4114                27.2556                32.3362
 Red. masses --     4.6419                 6.5825                 5.6931
 Frc consts  --     0.0008                 0.0029                 0.0035
 IR Inten    --     0.0871                 1.5946                 0.3137

                     4                      5                      6
                     A                      A                      A
 Frequencies --    67.8052                96.5336               111.9779
 Red. masses --     6.3140                 3.3049                 5.3839
 Frc consts  --     0.0171                 0.0181                 0.0398
 IR Inten    --     0.9890                 3.6744                 0.0313

                     7                      8                      9
                     A                      A                      A
 Frequencies --   127.3518               172.2047               193.4806
 Red. masses --     4.1295                 5.8743                 3.8966
 Frc consts  --     0.0395                 0.1026                 0.0859
 IR Inten    --     0.3311                 1.1553                 1.4590

                    10                     11                     12
                     A                      A                      A
 Frequencies --   225.8078               237.8954               274.7030
 Red. masses --     3.5230                 2.4274                 2.9449
 Frc consts  --     0.1058                 0.0809                 0.1309
 IR Inten    --     0.3746                 0.2160                 0.1107

                    13                     14                     15
                     A                      A                      A
 Frequencies --   286.1520               310.3173               330.7845
 Red. masses --     2.2241                 4.5400                 5.6001
 Frc consts  --     0.1073                 0.2576                 0.3610
 IR Inten    --     1.1909                 3.3593                 6.6304

                    16                     17                     18
                     A                      A                      A
 Frequencies --   400.5758               409.6626               428.4438
 Red. masses --     6.2323                 3.4822                 4.4421
 Frc consts  --     0.5892                 0.3443                 0.4804
 IR Inten    --     2.6212                 0.1258                 3.1222

                    19                     20                     21
                     A                      A                      A
 Frequencies --   457.5972               485.2511               493.5475
 Red. masses --     4.4709                 3.9364                 3.4572
 Frc consts  --     0.5516                 0.5461                 0.4962
 IR Inten    --     1.8147                 9.5186                 8.8796

                    22                     23                     24
                     A                      A                      A
 Frequencies --   527.4599               539.2683               540.6144
 Red. masses --     6.4042                 4.0339                 4.1882
 Frc consts  --     1.0498                 0.6912                 0.7212
 IR Inten    --     0.3907                 4.6275                 2.3759

                    25                     26                     27
                     A                      A                      A
 Frequencies --   553.5025               600.5793               637.4562
 Red. masses --     5.1551                 5.3100                 5.7189
 Frc consts  --     0.9305                 1.1285                 1.3692
 IR Inten    --     1.0413                 3.7177                 2.2265

                    28                     29                     30
                     A                      A                      A
 Frequencies --   646.8939               673.2570               701.7742
 Red. masses --     4.0510                 5.1305                 4.3178
 Frc consts  --     0.9988                 1.3702                 1.2529
 IR Inten    --     2.7073                10.0075                12.4702

                    31                     32                     33
                     A                      A                      A
 Frequencies --   745.5000               761.2667               768.2086
 Red. masses --     5.3156                 1.4716                 2.0678
 Frc consts  --     1.7406                 0.5025                 0.7190
 IR Inten    --     4.5132                22.1284                48.4581

                    34                     35                     36
                     A                      A                      A
 Frequencies --   770.4422               783.3284               787.2903
 Red. masses --     2.7859                 4.4381                 2.1145
 Frc consts  --     0.9743                 1.6045                 0.7722
 IR Inten    --     3.8603                 1.6438                 9.3075

                    37                     38                     39
                     A                      A                      A
 Frequencies --   812.6925               825.0859               856.3136
 Red. masses --     3.2974                 1.8015                 2.2836
 Frc consts  --     1.2832                 0.7226                 0.9866
 IR Inten    --     5.2615                21.8530                 9.2688

                    40                     41                     42
                     A                      A                      A
 Frequencies --   867.8630               883.7861               905.0406
 Red. masses --     1.5304                 2.1017                 1.9960
 Frc consts  --     0.6791                 0.9672                 0.9633
 IR Inten    --     3.2360                10.0912                16.6548

                    43                     44                     45
                     A                      A                      A
 Frequencies --   918.3757               951.0241               961.5750
 Red. masses --     4.0564                 1.3192                 1.3411
 Frc consts  --     2.0157                 0.7030                 0.7306
 IR Inten    --     5.0358                 2.1290                 2.9390

                    46                     47                     48
                     A                      A                      A
 Frequencies --   967.6580               980.3386               988.5955
 Red. masses --     1.3405                 3.9792                 1.2697
 Frc consts  --     0.7396                 2.2532                 0.7311
 IR Inten    --     1.7429                12.5684                 0.0096

                    49                     50                     51
                     A                      A                      A
 Frequencies --   990.6534              1051.2294              1065.6004
 Red. masses --     1.2906                 2.3181                 6.4372
 Frc consts  --     0.7463                 1.5093                 4.3066
 IR Inten    --     0.3734                 3.4686                40.6556

                    52                     53                     54
                     A                      A                      A
 Frequencies --  1075.0883              1109.2727              1149.8340
 Red. masses --     3.6688                 2.5206                 1.8139
 Frc consts  --     2.4984                 1.8274                 1.4130
 IR Inten    --   106.1918                69.8967                17.7323

                    55                     56                     57
                     A                      A                      A
 Frequencies --  1159.8106              1182.5496              1183.8157
 Red. masses --     1.7084                 1.2693                 1.2754
 Frc consts  --     1.3540                 1.0458                 1.0531
 IR Inten    --    98.4458                 0.9052                 8.9646

                    58                     59                     60
                     A                      A                      A
 Frequencies --  1187.6801              1192.3479              1200.8374
 Red. masses --     1.2307                 1.5054                 1.1342
 Frc consts  --     1.0229                 1.2610                 0.9636
 IR Inten    --    35.4887               208.8632                 9.6148

                    61                     62                     63
                     A                      A                      A
 Frequencies --  1217.6959              1251.1105              1264.7882
 Red. masses --     1.3873                 3.1243                 3.5803
 Frc consts  --     1.2120                 2.8813                 3.3745
 IR Inten    --     9.0530               112.1831               650.3795

                    64                     65                     66
                     A                      A                      A
 Frequencies --  1278.9016              1294.5410              1300.9508
 Red. masses --     1.6710                 1.8207                 2.4240
 Frc consts  --     1.6103                 1.7977                 2.4172
 IR Inten    --    11.4773                 7.3921                90.7984

                    67                     68                     69
                     A                      A                      A
 Frequencies --  1335.9155              1357.9984              1398.8412
 Red. masses --     2.2876                 8.4444                 1.9419
 Frc consts  --     2.4055                 9.1752                 2.2388
 IR Inten    --   369.3877                45.1416                 4.8882

                    70                     71                     72
                     A                      A                      A
 Frequencies --  1411.7480              1423.6861              1486.5338
 Red. masses --     5.0646                 5.2757                 1.5612
 Frc consts  --     5.9471                 6.3002                 2.0326
 IR Inten    --     4.5987                 2.7451                84.7680

                    73                     74                     75
                     A                      A                      A
 Frequencies --  1488.9192              1507.6480              1517.8989
 Red. masses --     2.4890                 1.6988                 2.2531
 Frc consts  --     3.2509                 2.2750                 3.0585
 IR Inten    --     1.5740                25.9623                14.9696

                    76                     77                     78
                     A                      A                      A
 Frequencies --  1523.1008              1529.6832              1544.9078
 Red. masses --     1.0487                 1.2026                 1.8360
 Frc consts  --     1.4333                 1.6579                 2.5818
 IR Inten    --     5.1679                85.9321                34.9967

                    79                     80                     81
                     A                      A                      A
 Frequencies --  1563.8639              1630.3528              1631.9095
 Red. masses --     3.4018                 7.0709                 6.2062
 Frc consts  --     4.9018                11.0736                 9.7379
 IR Inten    --    32.3442                 2.4054                23.0693

                    82                     83                     84
                     A                      A                      A
 Frequencies --  1659.3100              1663.3121              1690.0113
 Red. masses --     5.5587                 5.4258                 6.3911
 Frc consts  --     9.0173                 8.8443                10.7548
 IR Inten    --   116.4097                 4.0483                22.6262

                    85                     86                     87
                     A                      A                      A
 Frequencies --  1792.6163              3030.3182              3092.5156
 Red. masses --    12.7980                 1.0346                 1.1070
 Frc consts  --    24.2308                 5.5977                 6.2379
 IR Inten    --   252.7152                56.6727                36.7607

                    88                     89                     90
                     A                      A                      A
 Frequencies --  3164.0176              3177.6732              3182.2117
 Red. masses --     1.0999                 1.0855                 1.0883
 Frc consts  --     6.4877                 6.4577                 6.4929
 IR Inten    --    18.3560                 3.1933                 0.5182

                    91                     92                     93
                     A                      A                      A
 Frequencies --  3188.6111              3190.8292              3195.6804
 Red. masses --     1.0895                 1.0874                 1.0933
 Frc consts  --     6.5262                 6.5227                 6.5785
 IR Inten    --     9.9562                 7.2146                35.8698

                    94                     95                     96
                     A                      A                      A
 Frequencies --  3207.6986              3209.1308              3211.4609
 Red. masses --     1.0934                 1.0949                 1.0919
 Frc consts  --     6.6286                 6.6436                 6.6347
 IR Inten    --    25.3945                17.8830                17.7822

                    97                     98                     99
                     A                      A                      A
 Frequencies --  3230.8989              3235.2492              3242.1112
 Red. masses --     1.0925                 1.0920                 1.0933
 Frc consts  --     6.7192                 6.7344                 6.7708
 IR Inten    --     6.8080                10.7552                 4.1957

 - Thermochemistry -
 -------------------
 Temperature   298.150 Kelvin.  Pressure   1.00000 Atm.
 Atom     1 has atomic number  6 and mass  12.00000

 Molecular mass:   278.09429 amu.
 Principal axes and moments of inertia in atomic units:
                           1         2         3
     Eigenvalues --  2093.96417********************
           X            0.99999  -0.00467  -0.00057
           Y            0.00467   0.99997  -0.00547
           Z            0.00060   0.00546   0.99998
 This molecule is an asymmetric top.
 Rotational symmetry number  1.
 Warning -- assumption of classical behavior for rotation
           may cause significant error
 Rotational temperatures (Kelvin)      0.04136     0.00653     0.00609
 Rotational constants (GHZ):           0.86188     0.13606     0.12697
 Zero-point vibrational energy     723834.4 (Joules/Mol)
                                  173.00057 (Kcal/Mol)
 Warning -- explicit consideration of  26 degrees of freedom as
           vibrations may cause significant error
 Vibrational temperatures:     25.05    39.21    46.52    97.56   138.89
          (Kelvin)            161.11   183.23   247.76   278.38   324.89
                              342.28   395.24   411.71   446.48   475.92
                              576.34   589.41   616.43   658.38   698.17
                              710.10   758.90   775.89   777.82   796.37
                              864.10   917.16   930.73   968.67  1009.70
                             1072.61  1095.29  1105.28  1108.49  1127.03
                             1132.73  1169.28  1187.11  1232.04  1248.66
                             1271.57  1302.15  1321.34  1368.31  1383.49
                             1392.24  1410.49  1422.37  1425.33  1512.48
                             1533.16  1546.81  1595.99  1654.35  1668.71
                             1701.42  1703.24  1708.80  1715.52  1727.74
                             1751.99  1800.07  1819.75  1840.05  1862.55
                             1871.78  1922.08  1953.85  2012.62  2031.19
                             2048.36  2138.79  2142.22  2169.17  2183.92
                             2191.40  2200.87  2222.78  2250.05  2345.71
                             2347.95  2387.37  2393.13  2431.55  2579.17
                             4359.95  4449.43  4552.31  4571.96  4578.49
                             4587.69  4590.89  4597.87  4615.16  4617.22
                             4620.57  4648.54  4654.80  4664.67

 Zero-point correction=                           0.275694 (Hartree/Particle)
 Thermal correction to Energy=                    0.292684
 Thermal correction to Enthalpy=                  0.293628
 Thermal correction to Gibbs Free Energy=         0.228604
 Sum of electronic and zero-point Energies=           -919.749404
 Sum of electronic and thermal Energies=              -919.732414
 Sum of electronic and thermal Enthalpies=            -919.731470
 Sum of electronic and thermal Free Energies=         -919.796494

                     E (Thermal)             CV                S
                      KCal/Mol        Cal/Mol-Kelvin    Cal/Mol-Kelvin
 Total                  183.662             66.784            136.853
 Electronic               0.000              0.000              0.000
 Translational            0.889              2.981             42.767
 Rotational               0.889              2.981             34.334
 Vibrational            181.884             60.823             59.753
 Vibration     1          0.593              1.986              6.909
 Vibration     2          0.593              1.984              6.020
 Vibration     3          0.594              1.983              5.681
 Vibration     4          0.598              1.970              4.216
 Vibration     5          0.603              1.952              3.523
 Vibration     6          0.607              1.940              3.234
 Vibration     7          0.611              1.926              2.986
 Vibration     8          0.626              1.877              2.411
 Vibration     9          0.635              1.849              2.194
 Vibration    10          0.650              1.802              1.912
 Vibration    11          0.656              1.783              1.819
 Vibration    12          0.677              1.720              1.566
 Vibration    13          0.684              1.699              1.497
 Vibration    14          0.699              1.654              1.361
 Vibration    15          0.713              1.614              1.256
 Vibration    16          0.766              1.469              0.961
 Vibration    17          0.774              1.449              0.928
 Vibration    18          0.790              1.408              0.864
 Vibration    19          0.816              1.344              0.773
 Vibration    20          0.841              1.283              0.696
 Vibration    21          0.849              1.264              0.674
 Vibration    22          0.882              1.189              0.593
 Vibration    23          0.894              1.163              0.567
 Vibration    24          0.896              1.160              0.564
 Vibration    25          0.909              1.132              0.537
 Vibration    26          0.959              1.031              0.449

 Optimization completed.
    -- Stationary point found.
 Normal termination of Gaussian 09 at Wed Sep 29 21:04:31 2021.
 Gaussian 09:  AM64L-G09RevA.02 11-Jun-2009

 ----------------------------------------------------------------------
 #p TD(NStates=10, Root=1) b3lyp/6-31G* volume pop=NPA density=current
 Geom=AllCheck Guess=Read
 ----------------------------------------------------------------------

 COc1ccccc1C(=O)Oc1ccc2c(c1)cccc2_conf_0
 ---------------------------------------
 Redundant internal coordinates taken from checkpoint file:
 C18H14O3_19a5_conf_0.chk
 Charge =  0 Multiplicity = 1

                         Standard orientation:
 ---------------------------------------------------------------------
 Center     Atomic      Atomic             Coordinates (Angstroms)
 Number     Number       Type             X           Y           Z
 ---------------------------------------------------------------------
      1          6           0       -2.967114    2.893937    0.961110
      2          8           0       -2.438533    1.621558    0.617491
      3          6           0       -3.274605    0.667938    0.138135
      4          6           0       -4.651044    0.883740   -0.034095
      5          6           0       -5.477226   -0.134761   -0.505411
      6          6           0       -4.954494   -1.391884   -0.806763
      7          6           0       -3.593067   -1.612018   -0.633785
      8          6           0       -2.729841   -0.604115   -0.177590
      9          6           0       -1.298297   -1.007078   -0.058273
     10          8           0       -0.924449   -2.160844   -0.088143
     11          8           0       -0.443321    0.051307    0.042487
     12          6           0        0.924342   -0.178356    0.188926
     13          6           0        1.425886   -0.994701    1.231337
     14          6           0        2.785580   -1.112992    1.394783
     15          6           0        3.696970   -0.430816    0.543535
     16          6           0        3.172768    0.396861   -0.502426
     17          6           0        1.765429    0.503697   -0.655670
     18          6           0        4.080682    1.083166   -1.353205
     19          6           0        5.440850    0.957015   -1.180398
     20          6           0        5.959147    0.139137   -0.146527
     21          6           0        5.104890   -0.537933    0.694818
     22          1           0       -2.116326    3.475631    1.319342
     23          1           0       -3.717786    2.818276    1.758296
     24          1           0       -3.409837    3.395794    0.091224
     25          1           0       -5.083546    1.848113    0.203034
     26          1           0       -6.538687    0.062358   -0.631618
     27          1           0       -5.597216   -2.187758   -1.169863
     28          1           0       -3.153301   -2.579441   -0.851032
     29          1           0        0.736515   -1.521009    1.880200
     30          1           0        3.181133   -1.739482    2.190513
     31          1           0        1.345750    1.128723   -1.438291
     32          1           0        3.681862    1.710424   -2.146986
     33          1           0        6.123760    1.486454   -1.839442
     34          1           0        7.034610    0.048206   -0.020723
     35          1           0        5.498362   -1.167488    1.489643
 ---------------------------------------------------------------------

 SCF Done:  E(RB3LYP) =  -920.025098149     A.U. after    2 cycles

 Excitation energies and oscillator strengths:

 Excited State   1:      Singlet-A      3.9934 eV  310.47 nm  f=0.0542  <S**2>=0.000
      73 -> 74         0.68688
      73 -> 75        -0.10904
 This state for optimization and/or second-order correction.
 Total Energy, E(TD-HF/TD-KS) =  -919.878342169
 Copying the excited state density for this state as the 1-particle RhoCI density.

 Excited State   2:      Singlet-A      4.3432 eV  285.47 nm  f=0.0456  <S**2>=0.000
      71 -> 74         0.24285
      71 -> 75         0.19892
      71 -> 76         0.10981
      72 -> 74        -0.31071
      73 -> 74         0.10355
      73 -> 75         0.46525
      73 -> 76        -0.23489

 Excited State   3:      Singlet-A      4.4401 eV  279.24 nm  f=0.1433  <S**2>=0.000
      70 -> 77        -0.14472
      71 -> 74         0.12522
      72 -> 74         0.59415
      73 -> 75         0.27222

 Excited State   4:      Singlet-A      4.5514 eV  272.41 nm  f=0.0365  <S**2>=0.000
      71 -> 74        -0.36176
      71 -> 75        -0.24908
      72 -> 75         0.12101
      73 -> 75         0.41085
      73 -> 76         0.32325

 Excited State   5:      Singlet-A      4.6901 eV  264.35 nm  f=0.0340  <S**2>=0.000
      69 -> 74         0.14650
      70 -> 74         0.11441
      71 -> 74         0.49543
      71 -> 75        -0.34481
      72 -> 75         0.15317
      73 -> 76         0.23977

 Excited State   6:      Singlet-A      4.8758 eV  254.28 nm  f=0.0072  <S**2>=0.000
      68 -> 74         0.19990
      69 -> 74         0.50929
      70 -> 74         0.31852
      71 -> 74        -0.15772
      72 -> 75        -0.18353

 Excited State   7:      Singlet-A      4.9309 eV  251.44 nm  f=0.0023  <S**2>=0.000
      69 -> 74         0.14514
      71 -> 75         0.25603
      72 -> 74         0.10209
      72 -> 75         0.62301

 Excited State   8:      Singlet-A      5.3633 eV  231.17 nm  f=0.2484  <S**2>=0.000
      69 -> 74         0.23663
      70 -> 74        -0.40914
      71 -> 75        -0.12245
      72 -> 77        -0.17723
      73 -> 76        -0.14899
      73 -> 77         0.41636

 Excited State   9:      Singlet-A      5.4302 eV  228.32 nm  f=0.1260  <S**2>=0.000
      69 -> 74        -0.17593
      70 -> 74         0.31682
      72 -> 77         0.16260
      73 -> 77         0.56110

 Excited State  10:      Singlet-A      5.6525 eV  219.34 nm  f=0.0184  <S**2>=0.000
      68 -> 74        -0.10951
      69 -> 75         0.23090
      70 -> 75         0.59740
      72 -> 76         0.15383
      73 -> 78         0.12389

 The electronic state is 1-A.
 Alpha  occ. eigenvalues --  -19.19337 -19.18695 -19.13033 -10.31767 -10.26587
 Alpha  occ. eigenvalues --  -10.24830 -10.24767 -10.20561 -10.20430 -10.19780
 Alpha  occ. eigenvalues --  -10.19735 -10.19697 -10.19448 -10.19087 -10.19058
 Alpha  occ. eigenvalues --  -10.18992 -10.18871 -10.18826 -10.18770 -10.18752
 Alpha  occ. eigenvalues --  -10.18742  -1.10336  -1.07518  -1.01512  -0.87003
 Alpha  occ. eigenvalues --   -0.86037  -0.81860  -0.77771  -0.76923  -0.75694
 Alpha  occ. eigenvalues --   -0.73872  -0.72145  -0.70770  -0.66202  -0.62386
 Alpha  occ. eigenvalues --   -0.61524  -0.60206  -0.59471  -0.57336  -0.54777
 Alpha  occ. eigenvalues --   -0.51498  -0.51172  -0.50088  -0.48992  -0.47875
 Alpha  occ. eigenvalues --   -0.47489  -0.46616  -0.45224  -0.44985  -0.44719
 Alpha  occ. eigenvalues --   -0.44073  -0.42590  -0.41869  -0.41321  -0.41098
 Alpha  occ. eigenvalues --   -0.39797  -0.38477  -0.38139  -0.37910  -0.36930
 Alpha  occ. eigenvalues --   -0.36308  -0.34636  -0.33552  -0.33074  -0.32900
 Alpha  occ. eigenvalues --   -0.31916  -0.30163  -0.28150  -0.27246  -0.25823
 Alpha  occ. eigenvalues --   -0.23452  -0.22941  -0.21026
 Alpha virt. eigenvalues --   -0.04513  -0.03254  -0.00279   0.00394   0.03613
 Alpha virt. eigenvalues --    0.05561   0.08522   0.09642   0.10235   0.10762
 Alpha virt. eigenvalues --    0.11726   0.12265   0.12457   0.14564   0.15269

 Mulliken atomic charges:
              1
     1  C   -0.196609
     2  O   -0.516043
     3  C    0.292367
     4  C   -0.215354
     5  C   -0.177686
     6  C   -0.132853
     7  C   -0.207726
     8  C    0.000116
     9  C    0.466393
    10  O   -0.554670
    11  O   -0.515767
    12  C    0.421470
    13  C   -0.107589
    14  C   -0.178475
    15  C    0.142860
    16  C    0.123119
    17  C   -0.204080
    18  C   -0.152351
    19  C   -0.124360
    20  C   -0.117959
    21  C   -0.162791
    22  H    0.139060
    23  H    0.143002
    24  H    0.140266
    25  H    0.091426
    26  H    0.079998
    27  H    0.087453
    28  H    0.116278
    29  H    0.217647
    30  H    0.181350
    31  H    0.202893
    32  H    0.186295
    33  H    0.176087
    34  H    0.176585
    35  H    0.179651
 Sum of Mulliken atomic charges =  -0.00000

 Dipole moment (field-independent basis, Debye):
    X=             18.3121    Y=              4.2267    Z=              1.1353  Tot=             18.8278
 Quadrupole moment (field-independent basis, Debye-Ang):
   XX=            -92.2055   YY=           -119.7627   ZZ=           -112.2376
   XY=             -7.5835   XZ=             -4.0329   YZ=             -7.7435

 Summary of Natural Population Analysis:

                                       Natural Population
                Natural  -----------------------------------------------
    Atom  No    Charge         Core      Valence    Rydberg      Total
 -----------------------------------------------------------------------
      C    1   -0.30958      1.99943     4.29659    0.01355     6.30958
      O    2   -0.53076      1.99973     6.51941    0.01162     8.53076
      C    3    0.31275      1.99879     3.66613    0.02233     5.68725
      C    4   -0.34465      1.99905     4.33264    0.01296     6.34465
      C    5   -0.30640      1.99911     4.29088    0.01641     6.30640
      C    6   -0.25945      1.99908     4.24647    0.01390     6.25945
      C    7   -0.24570      1.99909     4.23113    0.01548     6.24570
      C    8   -0.26916      1.99886     4.25215    0.01815     6.26916
      C    9    0.69034      1.99931     3.26608    0.04426     5.30966
      O   10   -0.67683      1.99979     6.65808    0.01896     8.67683
      O   11   -0.53089      1.99969     6.52003    0.01117     8.53089
      C   12    0.40726      1.99876     3.57050    0.02348     5.59274
      C   13   -0.21916      1.99901     4.20524    0.01492     6.21916
      C   14   -0.10434      1.99907     4.09215    0.01311     6.10434
      C   15   -0.09338      1.99902     4.08060    0.01376     6.09338
      C   16   -0.07892      1.99903     4.06580    0.01409     6.07892
      C   17   -0.13399      1.99895     4.12102    0.01402     6.13399
      C   18   -0.10892      1.99906     4.09667    0.01320     6.10892
      C   19   -0.21369      1.99912     4.20043    0.01414     6.21369
      C   20   -0.19699      1.99911     4.18363    0.01424     6.19699
      C   21   -0.11883      1.99907     4.10660    0.01316     6.11883
      H   22    0.21027      0.00000     0.78919    0.00054     0.78973
      H   23    0.19822      0.00000     0.79920    0.00258     0.80178
      H   24    0.19610      0.00000     0.80138    0.00253     0.80390
      H   25    0.21644      0.00000     0.78265    0.00091     0.78356
      H   26    0.21225      0.00000     0.78704    0.00072     0.78775
      H   27    0.21761      0.00000     0.78161    0.00078     0.78239
      H   28    0.23649      0.00000     0.76221    0.00131     0.76351
      H   29    0.29239      0.00000     0.70689    0.00072     0.70761
      H   30    0.25338      0.00000     0.74578    0.00084     0.74662
      H   31    0.27145      0.00000     0.72751    0.00104     0.72855
      H   32    0.25648      0.00000     0.74279    0.00073     0.74352
      H   33    0.25886      0.00000     0.74061    0.00053     0.74114
      H   34    0.25768      0.00000     0.74177    0.00055     0.74232
      H   35    0.25366      0.00000     0.74552    0.00082     0.74634
 =======================================================================
   * Total *    0.00000     41.98213   103.65637    0.36150   146.00000

 Normal termination of Gaussian 09 at Thu Sep 30 04:07:20 2021.
