 Gaussian 09, Revision A.02,

 -----------------------------------
 #p opt b3lyp/6-31G* scf=(xqc,tight)
 -----------------------------------

 --------------------------------------
 COc1ccc2c(c1)ccc(c2)c1cccc(c1)C_conf_0
 --------------------------------------
 Symbolic Z-matrix:
 Charge =  0 Multiplicity = 1

 SCF Done:  E(RB3LYP) =  -770.779937984     A.U. after   14 cycles
 SCF Done:  E(RB3LYP) =  -770.786404613     A.U. after   13 cycles
 SCF Done:  E(RB3LYP) =  -770.787375033     A.U. after   12 cycles
 SCF Done:  E(RB3LYP) =  -770.787548319     A.U. after   11 cycles
 SCF Done:  E(RB3LYP) =  -770.787612623     A.U. after   11 cycles
 SCF Done:  E(RB3LYP) =  -770.787635483     A.U. after   10 cycles
 SCF Done:  E(RB3LYP) =  -770.787644267     A.U. after    9 cycles
 SCF Done:  E(RB3LYP) =  -770.787646963     A.U. after    9 cycles
 SCF Done:  E(RB3LYP) =  -770.787647409     A.U. after    8 cycles
 SCF Done:  E(RB3LYP) =  -770.787647575     A.U. after    6 cycles
 SCF Done:  E(RB3LYP) =  -770.787647734     A.U. after    7 cycles
 SCF Done:  E(RB3LYP) =  -770.787647904     A.U. after    7 cycles
 SCF Done:  E(RB3LYP) =  -770.787647941     A.U. after    7 cycles
 Optimization completed.
    -- Stationary point found.
 Normal termination of Gaussian 09 at Tue Sep 28 18:03:46 2021.

 ----------------------------------------------------------------------
 #p freq b3lyp/6-31G* volume NMR pop=NPA density=current Geom=AllCheck
 Guess=Read
 ----------------------------------------------------------------------

 COc1ccc2c(c1)ccc(c2)c1cccc(c1)C_conf_0
 --------------------------------------
 Redundant internal coordinates taken from checkpoint file:
 C18H16O_98f8_conf_0.chk
 Charge =  0 Multiplicity = 1

 SCF Done:  E(RB3LYP) =  -770.787647941     A.U. after    1 cycles

  1  C    Isotropic =   137.1590   Anisotropy =    65.6118

  2  O    Isotropic =   234.5246   Anisotropy =    82.5296

  3  C    Isotropic =    40.0481   Anisotropy =   122.8560

  4  C    Isotropic =    76.3087   Anisotropy =   134.7853

  5  C    Isotropic =    65.8844   Anisotropy =   143.3659

  6  C    Isotropic =    67.4307   Anisotropy =   189.7176

  7  C    Isotropic =    62.9823   Anisotropy =   194.1670

  8  C    Isotropic =    89.9907   Anisotropy =   118.2220

  9  C    Isotropic =    70.1057   Anisotropy =   138.4903

 10  C    Isotropic =    67.4773   Anisotropy =   156.1564

 11  C    Isotropic =    56.8666   Anisotropy =   166.5329

 12  C    Isotropic =    66.7951   Anisotropy =   131.6996

 13  C    Isotropic =    52.9662   Anisotropy =   164.9890

 14  C    Isotropic =    65.3043   Anisotropy =   148.4561

 15  C    Isotropic =    70.2433   Anisotropy =   161.3022

 16  C    Isotropic =    69.4714   Anisotropy =   161.6795

 17  C    Isotropic =    65.6993   Anisotropy =   144.8444

 18  C    Isotropic =    60.0260   Anisotropy =   172.0479

 19  C    Isotropic =   167.5004   Anisotropy =    23.3364

 20  H    Isotropic =    28.1925   Anisotropy =     8.2731

 21  H    Isotropic =    28.4794   Anisotropy =     7.9227

 22  H    Isotropic =    28.4816   Anisotropy =     7.9832

 23  H    Isotropic =    25.1957   Anisotropy =     6.1956

 24  H    Isotropic =    24.6227   Anisotropy =     7.4228

 25  H    Isotropic =    25.6299   Anisotropy =     9.3696

 26  H    Isotropic =    24.7466   Anisotropy =     7.6232

 27  H    Isotropic =    24.7783   Anisotropy =     8.9372

 28  H    Isotropic =    24.7425   Anisotropy =    10.3065

 29  H    Isotropic =    24.9872   Anisotropy =     9.5000

 30  H    Isotropic =    25.0319   Anisotropy =     4.6002

 31  H    Isotropic =    25.0327   Anisotropy =     4.0138

 32  H    Isotropic =    25.0220   Anisotropy =     6.8416

 33  H    Isotropic =    30.2411   Anisotropy =     8.6660

 34  H    Isotropic =    30.1283   Anisotropy =     5.9284

 35  H    Isotropic =    29.5862   Anisotropy =     7.8580

  Exact polarizability: 333.363   0.036 174.524  -3.431  -5.053 100.826
 Approx polarizability: 467.995  13.421 309.749  -9.898 -18.482 164.947

                     1                      2                      3
                     A                      A                      A
 Frequencies --    34.9315                37.9911                72.4979
 Red. masses --     3.9028                 4.1604                 4.6529
 Frc consts  --     0.0028                 0.0035                 0.0144
 IR Inten    --     0.0217                 0.6254                 0.2470

                     4                      5                      6
                     A                      A                      A
 Frequencies --    94.7082               128.7974               136.9028
 Red. masses --     3.3677                 1.1096                 4.3528
 Frc consts  --     0.0178                 0.0108                 0.0481
 IR Inten    --     1.8235                 0.3309                 1.0789

                     7                      8                      9
                     A                      A                      A
 Frequencies --   169.1502               192.2021               194.8496
 Red. masses --     3.2657                 3.7378                 3.4298
 Frc consts  --     0.0551                 0.0814                 0.0767
 IR Inten    --     1.1417                 0.4684                 1.9525

                    10                     11                     12
                     A                      A                      A
 Frequencies --   230.2542               246.6964               281.7813
 Red. masses --     1.8757                 2.7018                 2.2834
 Frc consts  --     0.0586                 0.0969                 0.1068
 IR Inten    --     0.5086                 0.3305                 0.5360

                    13                     14                     15
                     A                      A                      A
 Frequencies --   306.1999               371.7693               380.1038
 Red. masses --     4.0339                 3.4518                 4.2402
 Frc consts  --     0.2228                 0.2811                 0.3609
 IR Inten    --     1.6019                 0.6058                 1.4315

                    16                     17                     18
                     A                      A                      A
 Frequencies --   412.3334               447.6084               469.4775
 Red. masses --     3.4116                 4.0690                 3.1112
 Frc consts  --     0.3417                 0.4803                 0.4040
 IR Inten    --     0.3307                 1.8464                 4.6484

                    19                     20                     21
                     A                      A                      A
 Frequencies --   472.5888               491.1755               520.6658
 Red. masses --     4.9145                 2.6640                 4.7444
 Frc consts  --     0.6467                 0.3787                 0.7578
 IR Inten    --     7.7433                 6.3863                 8.5928

                    22                     23                     24
                     A                      A                      A
 Frequencies --   534.0360               555.4167               564.4507
 Red. masses --     5.7162                 5.0132                 4.0733
 Frc consts  --     0.9605                 0.9112                 0.7646
 IR Inten    --     0.1308                 3.5131                 1.8476

                    25                     26                     27
                     A                      A                      A
 Frequencies --   605.0227               640.1923               682.8789
 Red. masses --     3.0296                 6.9089                 4.6634
 Frc consts  --     0.6534                 1.6683                 1.2813
 IR Inten    --     0.1830                 0.8841                 1.8668

                    28                     29                     30
                     A                      A                      A
 Frequencies --   687.9058               742.8576               748.2475
 Red. masses --     5.0032                 2.7821                 5.0824
 Frc consts  --     1.3949                 0.9045                 1.6765
 IR Inten    --     1.9140                 7.7068                 2.5371

                    31                     32                     33
                     A                      A                      A
 Frequencies --   768.1403               775.6869               798.0291
 Red. masses --     2.5431                 1.5853                 4.4465
 Frc consts  --     0.8841                 0.5620                 1.6684
 IR Inten    --     4.2658                27.4104                 0.9382

                    34                     35                     36
                     A                      A                      A
 Frequencies --   825.6619               831.2903               841.7864
 Red. masses --     1.3998                 1.5640                 4.2520
 Frc consts  --     0.5622                 0.6368                 1.7752
 IR Inten    --     2.1120                18.8896                 3.3930

                    37                     38                     39
                     A                      A                      A
 Frequencies --   872.9505               886.4064               916.0199
 Red. masses --     1.6406                 1.3364                 1.4524
 Frc consts  --     0.7366                 0.6187                 0.7181
 IR Inten    --    38.5220                 0.2986                14.5418

                    40                     41                     42
                     A                      A                      A
 Frequencies --   933.1530               950.4273               966.3893
 Red. masses --     4.8945                 1.3819                 1.2882
 Frc consts  --     2.5111                 0.7355                 0.7088
 IR Inten    --    24.6551                 0.3963                 0.3815

                    43                     44                     45
                     A                      A                      A
 Frequencies --   969.3518               977.6246               984.3288
 Red. masses --     1.2920                 3.8463                 1.2573
 Frc consts  --     0.7153                 2.1659                 0.7177
 IR Inten    --     0.3581                 1.1420                 0.0178

                    46                     47                     48
                     A                      A                      A
 Frequencies --  1016.2828              1051.1560              1074.0382
 Red. masses --     1.5634                 3.2521                 1.5259
 Frc consts  --     0.9513                 2.1172                 1.0371
 IR Inten    --     1.7653                 1.8835                 3.2305

                    49                     50                     51
                     A                      A                      A
 Frequencies --  1074.8851              1084.7299              1146.2158
 Red. masses --     4.3408                 2.1922                 1.6981
 Frc consts  --     2.9549                 1.5198                 1.3145
 IR Inten    --    53.7810                 0.6514                 1.1877

                    52                     53                     54
                     A                      A                      A
 Frequencies --  1157.8048              1184.3744              1185.5120
 Red. masses --     1.4986                 1.2695                 1.2728
 Frc consts  --     1.1836                 1.0492                 1.0540
 IR Inten    --    21.0993                 0.4286                 0.8145

                    55                     56                     57
                     A                      A                      A
 Frequencies --  1196.1756              1206.7171              1222.3388
 Red. masses --     1.0979                 1.5184                 2.1180
 Frc consts  --     0.9256                 1.3027                 1.8645
 IR Inten    --     0.7113                25.3018                13.6130

                    58                     59                     60
                     A                      A                      A
 Frequencies --  1229.7125              1245.1114              1292.0474
 Red. masses --     1.7231                 1.8144                 2.9816
 Frc consts  --     1.5353                 1.6573                 2.9326
 IR Inten    --     1.7855               137.1701                73.1435

                    61                     62                     63
                     A                      A                      A
 Frequencies --  1303.2113              1306.1103              1321.1204
 Red. masses --     1.9890                 2.0051                 2.3179
 Frc consts  --     1.9903                 2.0153                 2.3836
 IR Inten    --    10.7832               134.2566                 0.4464

                    64                     65                     66
                     A                      A                      A
 Frequencies --  1338.8521              1375.3818              1411.2674
 Red. masses --     3.4908                 2.0570                 4.5023
 Frc consts  --     3.6867                 2.2927                 5.2833
 IR Inten    --     0.1642                 5.1145                 0.5510

                    67                     68                     69
                     A                      A                      A
 Frequencies --  1436.0782              1444.7200              1452.2574
 Red. masses --     3.6817                 1.2349                 4.6598
 Frc consts  --     4.4735                 1.5186                 5.7903
 IR Inten    --    79.4202                 1.1021                 8.2010

                    70                     71                     72
                     A                      A                      A
 Frequencies --  1486.7485              1495.9291              1516.0658
 Red. masses --     1.8957                 1.3198                 1.0731
 Frc consts  --     2.4688                 1.7402                 1.4532
 IR Inten    --     3.1251                18.8555                 6.9829

                    73                     74                     75
                     A                      A                      A
 Frequencies --  1519.0112              1520.3003              1531.2513
 Red. masses --     1.0481                 1.3837                 1.5733
 Frc consts  --     1.4248                 1.8844                 2.1734
 IR Inten    --     5.7819                22.0334                17.1679

                    76                     77                     78
                     A                      A                      A
 Frequencies --  1534.6372              1545.6861              1553.8501
 Red. masses --     1.2095                 2.3118                 3.1166
 Frc consts  --     1.6783                 3.2542                 4.4336
 IR Inten    --    46.3377                49.3639                13.7988

                    79                     80                     81
                     A                      A                      A
 Frequencies --  1621.6024              1630.0756              1659.6438
 Red. masses --     6.4188                 5.9542                 5.5856
 Frc consts  --     9.9447                 9.3215                 9.0646
 IR Inten    --     1.0679                 6.4218                 1.4961

                    82                     83                     84
                     A                      A                      A
 Frequencies --  1663.1719              1685.9239              3025.9001
 Red. masses --     5.6173                 6.1090                 1.0346
 Frc consts  --     9.1549                10.2305                 5.5813
 IR Inten    --    86.6191                91.3384                57.3730

                    85                     86                     87
                     A                      A                      A
 Frequencies --  3046.3115              3084.7172              3102.2300
 Red. masses --     1.0409                 1.1066                 1.0952
 Frc consts  --     5.6913                 6.2041                 6.2101
 IR Inten    --    23.8306                42.3933                21.6981

                    88                     89                     90
                     A                      A                      A
 Frequencies --  3131.3465              3158.4254              3173.1007
 Red. masses --     1.1024                 1.0999                 1.0865
 Frc consts  --     6.3685                 6.4647                 6.4453
 IR Inten    --    20.3988                32.1903                12.3573

                    91                     92                     93
                     A                      A                      A
 Frequencies --  3177.2933              3181.4180              3184.6547
 Red. masses --     1.0877                 1.0896                 1.0875
 Frc consts  --     6.4696                 6.4976                 6.4985
 IR Inten    --    13.0382                 3.4486                 7.0687

                    94                     95                     96
                     A                      A                      A
 Frequencies --  3186.5075              3195.7994              3204.4354
 Red. masses --     1.0887                 1.0921                 1.0934
 Frc consts  --     6.5130                 6.5718                 6.6150
 IR Inten    --    14.2989                33.1525                18.0379

                    97                     98                     99
                     A                      A                      A
 Frequencies --  3207.8648              3216.0702              3216.7169
 Red. masses --     1.0975                 1.0894                 1.0938
 Frc consts  --     6.6538                 6.6388                 6.6681
 IR Inten    --    32.3056                15.3402                10.7965

 - Thermochemistry -
 -------------------
 Temperature   298.150 Kelvin.  Pressure   1.00000 Atm.
 Atom     1 has atomic number  6 and mass  12.00000

 Molecular mass:   248.12012 amu.
 Principal axes and moments of inertia in atomic units:
                           1         2         3
     Eigenvalues --  1458.97932********************
           X            0.99999  -0.00304   0.00423
           Y            0.00301   0.99997   0.00726
           Z           -0.00425  -0.00725   0.99996
 This molecule is an asymmetric top.
 Rotational symmetry number  1.
 Warning -- assumption of classical behavior for rotation
           may cause significant error
 Rotational temperatures (Kelvin)      0.05937     0.00774     0.00721
 Rotational constants (GHZ):           1.23699     0.16129     0.15022
 Zero-point vibrational energy     759411.7 (Joules/Mol)
                                  181.50376 (Kcal/Mol)
 Warning -- explicit consideration of  25 degrees of freedom as
           vibrations may cause significant error
 Vibrational temperatures:     50.26    54.66   104.31   136.26   185.31
          (Kelvin)            196.97   243.37   276.54   280.34   331.28
                              354.94   405.42   440.55   534.89   546.88
                              593.26   644.01   675.47   679.95   706.69
                              749.12   768.36   799.12   812.12   870.49
                              921.09   982.51   989.74  1068.80  1076.56
                             1105.18  1116.04  1148.18  1187.94  1196.04
                             1211.14  1255.98  1275.34  1317.95  1342.60
                             1367.45  1390.42  1394.68  1406.58  1416.23
                             1462.20  1512.38  1545.30  1546.52  1560.68
                             1649.15  1665.82  1704.05  1705.69  1721.03
                             1736.19  1758.67  1769.28  1791.44  1858.97
                             1875.03  1879.20  1900.80  1926.31  1978.87
                             2030.50  2066.19  2078.63  2089.47  2139.10
                             2152.31  2181.28  2185.52  2187.37  2203.13
                             2208.00  2223.89  2235.64  2333.12  2345.31
                             2387.85  2392.93  2425.67  4353.59  4382.96
                             4438.21  4463.41  4505.30  4544.26  4565.38
                             4571.41  4577.35  4582.00  4584.67  4598.04
                             4610.46  4615.40  4627.20  4628.13

 Zero-point correction=                           0.289245 (Hartree/Particle)
 Thermal correction to Energy=                    0.305079
 Thermal correction to Enthalpy=                  0.306023
 Thermal correction to Gibbs Free Energy=         0.245504
 Sum of electronic and zero-point Energies=           -770.498403
 Sum of electronic and thermal Energies=              -770.482569
 Sum of electronic and thermal Enthalpies=            -770.481625
 Sum of electronic and thermal Free Energies=         -770.542144

                     E (Thermal)             CV                S
                      KCal/Mol        Cal/Mol-Kelvin    Cal/Mol-Kelvin
 Total                  191.440             63.129            127.375
 Electronic               0.000              0.000              0.000
 Translational            0.889              2.981             42.427
 Rotational               0.889              2.981             33.639
 Vibrational            189.663             57.167             51.309
 Vibration     1          0.594              1.983              5.528
 Vibration     2          0.594              1.982              5.361
 Vibration     3          0.599              1.967              4.084
 Vibration     4          0.603              1.953              3.560
 Vibration     5          0.611              1.924              2.964
 Vibration     6          0.614              1.916              2.847
 Vibration     7          0.625              1.880              2.445
 Vibration     8          0.634              1.851              2.206
 Vibration     9          0.636              1.847              2.181
 Vibration    10          0.652              1.795              1.877
 Vibration    11          0.661              1.768              1.754
 Vibration    12          0.681              1.707              1.523
 Vibration    13          0.697              1.662              1.383
 Vibration    14          0.743              1.530              1.072
 Vibration    15          0.750              1.513              1.039
 Vibration    16          0.776              1.443              0.918
 Vibration    17          0.807              1.366              0.803
 Vibration    18          0.827              1.318              0.739
 Vibration    19          0.829              1.311              0.730
 Vibration    20          0.847              1.270              0.681
 Vibration    21          0.876              1.204              0.608
 Vibration    22          0.889              1.175              0.578
 Vibration    23          0.911              1.128              0.533
 Vibration    24          0.920              1.108              0.515
 Vibration    25          0.964              1.021              0.441

 Optimization completed.
    -- Stationary point found.
 Normal termination of Gaussian 09 at Tue Sep 28 19:41:03 2021.
 Gaussian 09:  AM64L-G09RevA.02 11-Jun-2009

 ----------------------------------------------------------------------
 #p TD(NStates=10, Root=1) b3lyp/6-31G* volume pop=NPA density=current
 Geom=AllCheck Guess=Read
 ----------------------------------------------------------------------

 COc1ccc2c(c1)ccc(c2)c1cccc(c1)C_conf_0
 --------------------------------------
 Redundant internal coordinates taken from checkpoint file:
 C18H16O_98f8_conf_0.chk
 Charge =  0 Multiplicity = 1

                         Standard orientation:
 ---------------------------------------------------------------------
 Center     Atomic      Atomic             Coordinates (Angstroms)
 Number     Number       Type             X           Y           Z
 ---------------------------------------------------------------------
      1          6           0       -5.931535    0.861656   -0.359502
      2          8           0       -5.302798   -0.298522    0.160478
      3          6           0       -3.939312   -0.347953    0.149763
      4          6           0       -3.388806   -1.544386    0.688983
      5          6           0       -2.030470   -1.721723    0.736366
      6          6           0       -1.139324   -0.722857    0.250839
      7          6           0       -1.696794    0.479215   -0.287834
      8          6           0       -3.108641    0.645438   -0.329416
      9          6           0       -0.803544    1.472637   -0.769295
     10          6           0        0.559462    1.291003   -0.715042
     11          6           0        1.128043    0.101113   -0.178722
     12          6           0        0.268313   -0.880452    0.287319
     13          6           0        2.604263   -0.111400   -0.159070
     14          6           0        3.122419   -1.263927   -0.772878
     15          6           0        4.489983   -1.529548   -0.790980
     16          6           0        5.369505   -0.634803   -0.183353
     17          6           0        4.866486    0.506670    0.439298
     18          6           0        3.495149    0.792405    0.465999
     19          6           0        3.018175    2.033726    1.189506
     20          1           0       -7.005108    0.693755   -0.256284
     21          1           0       -5.686377    1.010939   -1.419472
     22          1           0       -5.647309    1.759861    0.204721
     23          1           0       -4.075647   -2.300677    1.055939
     24          1           0       -1.616462   -2.638266    1.149894
     25          1           0       -3.508010    1.564572   -0.744142
     26          1           0       -1.213871    2.386263   -1.193740
     27          1           0        1.218912    2.058140   -1.110283
     28          1           0        0.678518   -1.795539    0.708617
     29          1           0        2.432223   -1.949450   -1.257386
     30          1           0        4.863385   -2.425941   -1.278999
     31          1           0        6.439551   -0.825369   -0.186249
     32          1           0        5.552411    1.193584    0.930612
     33          1           0        3.767329    2.365017    1.916041
     34          1           0        2.078777    1.858976    1.722955
     35          1           0        2.843836    2.871424    0.502075
 ---------------------------------------------------------------------

 SCF Done:  E(RB3LYP) =  -770.787647941     A.U. after    1 cycles

 Excitation energies and oscillator strengths:

 Excited State   1:      Singlet-A      4.0664 eV  304.90 nm  f=0.0699  <S**2>=0.000
      65 -> 67         0.17241
      65 -> 68        -0.16002
      66 -> 67         0.62118
      66 -> 68         0.20906
 This state for optimization and/or second-order correction.
 Total Energy, E(TD-HF/TD-KS) =  -770.638211832
 Copying the excited state density for this state as the 1-particle RhoCI density.

 Excited State   2:      Singlet-A      4.3666 eV  283.94 nm  f=0.0793  <S**2>=0.000
      65 -> 67         0.40635
      66 -> 67        -0.28533
      66 -> 68         0.49172

 Excited State   3:      Singlet-A      4.8724 eV  254.46 nm  f=0.0545  <S**2>=0.000
      63 -> 69        -0.10467
      64 -> 67         0.57336
      64 -> 68        -0.12637
      65 -> 67        -0.17988
      66 -> 68         0.10334
      66 -> 69         0.29571

 Excited State   4:      Singlet-A      4.9718 eV  249.38 nm  f=0.3558  <S**2>=0.000
      63 -> 67         0.36145
      64 -> 68         0.14233
      65 -> 67        -0.34878
      66 -> 68         0.26711
      66 -> 69        -0.32794

 Excited State   5:      Singlet-A      5.0134 eV  247.31 nm  f=0.3569  <S**2>=0.000
      63 -> 67         0.20894
      64 -> 67         0.32166
      64 -> 68         0.14221
      65 -> 67         0.27028
      65 -> 68        -0.10859
      66 -> 68        -0.32224
      66 -> 69        -0.22989
      66 -> 70         0.28292

 Excited State   6:      Singlet-A      5.1262 eV  241.86 nm  f=0.0045  <S**2>=0.000
      63 -> 67         0.51403
      64 -> 67        -0.18936
      66 -> 69         0.40173
      66 -> 70         0.13044

 Excited State   7:      Singlet-A      5.3368 eV  232.32 nm  f=0.0473  <S**2>=0.000
      64 -> 68        -0.21952
      65 -> 68         0.52918
      66 -> 69        -0.11427
      66 -> 70         0.34513

 Excited State   8:      Singlet-A      5.4056 eV  229.36 nm  f=0.0248  <S**2>=0.000
      63 -> 67        -0.10518
      63 -> 68        -0.12518
      63 -> 69         0.20687
      64 -> 68         0.46908
      64 -> 69         0.12317
      65 -> 68         0.23981
      65 -> 69        -0.21982
      66 -> 69         0.24767

 Excited State   9:      Singlet-A      5.5982 eV  221.47 nm  f=0.1620  <S**2>=0.000
      63 -> 68         0.52065
      64 -> 68         0.21096
      65 -> 68         0.17031
      65 -> 69         0.14188
      65 -> 70        -0.14991
      66 -> 70        -0.22144

 Excited State  10:      Singlet-A      5.6948 eV  217.71 nm  f=0.0226  <S**2>=0.000
      62 -> 67        -0.38555
      66 -> 70         0.13315
      66 -> 71         0.53821

 The electronic state is 1-A.
 Alpha  occ. eigenvalues --  -19.17974 -10.24779 -10.24201 -10.19644 -10.19332
 Alpha  occ. eigenvalues --  -10.19234 -10.19156 -10.19110 -10.19109 -10.18743
 Alpha  occ. eigenvalues --  -10.18690 -10.18592 -10.18551 -10.18431 -10.18340
 Alpha  occ. eigenvalues --  -10.18247 -10.18192 -10.18123 -10.17763  -1.06543
 Alpha  occ. eigenvalues --   -0.87099  -0.85168  -0.81708  -0.77301  -0.76570
 Alpha  occ. eigenvalues --   -0.75648  -0.73280  -0.71529  -0.69506  -0.67585
 Alpha  occ. eigenvalues --   -0.62233  -0.61310  -0.59549  -0.58425  -0.56941
 Alpha  occ. eigenvalues --   -0.52915  -0.51402  -0.50782  -0.48458  -0.46936
 Alpha  occ. eigenvalues --   -0.46198  -0.45633  -0.45146  -0.44219  -0.43258
 Alpha  occ. eigenvalues --   -0.42012  -0.41437  -0.40914  -0.40283  -0.40012
 Alpha  occ. eigenvalues --   -0.38846  -0.38213  -0.37246  -0.36499  -0.35214
 Alpha  occ. eigenvalues --   -0.34629  -0.34141  -0.33398  -0.32431  -0.32210
 Alpha  occ. eigenvalues --   -0.29698  -0.27826  -0.24277  -0.23562  -0.22496
 Alpha  occ. eigenvalues --   -0.20078
 Alpha virt. eigenvalues --   -0.03346  -0.01310   0.00650   0.01953   0.03789
 Alpha virt. eigenvalues --    0.09410   0.10185   0.10518   0.10731   0.11249
 Alpha virt. eigenvalues --    0.12480   0.13371   0.14484   0.15083   0.15347

 Mulliken atomic charges:
              1
     1  C   -0.223936
     2  O   -0.471822
     3  C    0.381140
     4  C   -0.196178
     5  C   -0.213454
     6  C    0.155595
     7  C    0.145063
     8  C   -0.277443
     9  C   -0.218831
    10  C   -0.187222
    11  C    0.078484
    12  C   -0.273694
    13  C    0.019787
    14  C   -0.158171
    15  C   -0.136972
    16  C   -0.116036
    17  C   -0.190475
    18  C    0.151638
    19  C   -0.529455
    20  H    0.176879
    21  H    0.165414
    22  H    0.165200
    23  H    0.124688
    24  H    0.121370
    25  H    0.129881
    26  H    0.113784
    27  H    0.116296
    28  H    0.124495
    29  H    0.141334
    30  H    0.132526
    31  H    0.132855
    32  H    0.126150
    33  H    0.150285
    34  H    0.175256
    35  H    0.165573
 Sum of Mulliken atomic charges =  -0.00000

 Dipole moment (field-independent basis, Debye):
    X=             -0.5591    Y=              1.4936    Z=             -0.4747  Tot=              1.6640
 Quadrupole moment (field-independent basis, Debye-Ang):
   XX=            -84.8258   YY=           -103.9585   ZZ=           -112.9031
   XY=             -9.2336   XZ=              4.5298   YZ=             -0.0793

 Summary of Natural Population Analysis:

                                       Natural Population
                Natural  -----------------------------------------------
    Atom  No    Charge         Core      Valence    Rydberg      Total
 -----------------------------------------------------------------------
      C    1   -0.32345      1.99943     4.30990    0.01412     6.32345
      O    2   -0.46614      1.99975     6.45459    0.01180     8.46614
      C    3    0.36567      1.99880     3.61294    0.02260     5.63433
      C    4   -0.33271      1.99905     4.31664    0.01702     6.33271
      C    5   -0.23063      1.99907     4.21628    0.01528     6.23063
      C    6   -0.04104      1.99902     4.02680    0.01521     6.04104
      C    7   -0.03338      1.99903     4.01883    0.01552     6.03338
      C    8   -0.30147      1.99899     4.28954    0.01294     6.30147
      C    9   -0.23995      1.99906     4.22530    0.01559     6.23995
      C   10   -0.27287      1.99906     4.25816    0.01566     6.27287
      C   11   -0.00239      1.99902     3.98682    0.01655     6.00239
      C   12   -0.23987      1.99900     4.22638    0.01450     6.23987
      C   13   -0.03485      1.99895     4.02040    0.01550     6.03485
      C   14   -0.20429      1.99904     4.19229    0.01296     6.20429
      C   15   -0.23882      1.99909     4.22577    0.01397     6.23882
      C   16   -0.21244      1.99909     4.19952    0.01383     6.21244
      C   17   -0.22931      1.99904     4.21741    0.01286     6.22931
      C   18   -0.00441      1.99897     3.99204    0.01339     6.00441
      C   19   -0.69204      1.99939     4.68508    0.00757     6.69204
      H   20    0.23170      0.00000     0.76779    0.00052     0.76830
      H   21    0.21163      0.00000     0.78663    0.00173     0.78837
      H   22    0.21151      0.00000     0.78675    0.00173     0.78849
      H   23    0.24102      0.00000     0.75792    0.00107     0.75898
      H   24    0.23130      0.00000     0.76764    0.00106     0.76870
      H   25    0.23222      0.00000     0.76660    0.00118     0.76778
      H   26    0.22625      0.00000     0.77263    0.00112     0.77375
      H   27    0.23091      0.00000     0.76824    0.00085     0.76909
      H   28    0.23195      0.00000     0.76679    0.00126     0.76805
      H   29    0.24321      0.00000     0.75561    0.00118     0.75679
      H   30    0.23824      0.00000     0.76091    0.00085     0.76176
      H   31    0.23689      0.00000     0.76225    0.00086     0.76311
      H   32    0.23416      0.00000     0.76480    0.00105     0.76584
      H   33    0.23569      0.00000     0.76320    0.00111     0.76431
      H   34    0.25280      0.00000     0.74633    0.00087     0.74720
      H   35    0.24491      0.00000     0.75420    0.00089     0.75509
 =======================================================================
   * Total *   -0.00000     37.98283    93.72297    0.29420   132.00000

 Normal termination of Gaussian 09 at Wed Sep 29 01:24:46 2021.
