 Gaussian 09, Revision A.02,

 -----------------------------------
 #p opt b3lyp/6-31G* scf=(xqc,tight)
 -----------------------------------

 --------------------------------------------
 O=C(c1ccccc1)c1ccc(cc1)OC(=O)C(C)(C)C_conf_0
 --------------------------------------------
 Symbolic Z-matrix:
 Charge =  0 Multiplicity = 1

 SCF Done:  E(RB3LYP) =  -922.443515012     A.U. after   15 cycles
 SCF Done:  E(RB3LYP) =  -922.448502524     A.U. after   13 cycles
 SCF Done:  E(RB3LYP) =  -922.447846441     A.U. after   14 cycles
 SCF Done:  E(RB3LYP) =  -922.449645869     A.U. after   13 cycles
 SCF Done:  E(RB3LYP) =  -922.450353804     A.U. after   13 cycles
 SCF Done:  E(RB3LYP) =  -922.450095807     A.U. after   15 cycles
 SCF Done:  E(RB3LYP) =  -922.450620039     A.U. after   12 cycles
 SCF Done:  E(RB3LYP) =  -922.450713128     A.U. after   16 cycles
 SCF Done:  E(RB3LYP) =  -922.450869353     A.U. after   11 cycles
 SCF Done:  E(RB3LYP) =  -922.450951198     A.U. after   11 cycles
 SCF Done:  E(RB3LYP) =  -922.450984258     A.U. after   16 cycles
 SCF Done:  E(RB3LYP) =  -922.450991376     A.U. after   10 cycles
 SCF Done:  E(RB3LYP) =  -922.450992249     A.U. after    8 cycles
 SCF Done:  E(RB3LYP) =  -922.450992938     A.U. after    8 cycles
 SCF Done:  E(RB3LYP) =  -922.450993717     A.U. after    8 cycles
 SCF Done:  E(RB3LYP) =  -922.450994387     A.U. after    8 cycles
 SCF Done:  E(RB3LYP) =  -922.450994826     A.U. after    8 cycles
 SCF Done:  E(RB3LYP) =  -922.450995018     A.U. after    8 cycles
 Optimization completed.
    -- Stationary point found.
 Normal termination of Gaussian 09 at Fri Oct  1 00:53:00 2021.

 ----------------------------------------------------------------------
 #p freq b3lyp/6-31G* volume NMR pop=NPA density=current Geom=AllCheck
 Guess=Read
 ----------------------------------------------------------------------

 O=C(c1ccccc1)c1ccc(cc1)OC(=O)C(C)(C)C_conf_0
 --------------------------------------------
 Redundant internal coordinates taken from checkpoint file:
 C18H18O3_868d_conf_0.chk
 Charge =  0 Multiplicity = 1

 SCF Done:  E(RB3LYP) =  -922.450995018     A.U. after    1 cycles

  1  O    Isotropic =  -257.2529   Anisotropy =   926.8291

  2  C    Isotropic =     4.0540   Anisotropy =   142.6410

  3  C    Isotropic =    58.9213   Anisotropy =   162.3774

  4  C    Isotropic =    65.7874   Anisotropy =   166.6282

  5  C    Isotropic =    69.5259   Anisotropy =   163.6242

  6  C    Isotropic =    64.7203   Anisotropy =   171.7370

  7  C    Isotropic =    67.5738   Anisotropy =   167.2269

  8  C    Isotropic =    64.1401   Anisotropy =   176.2238

  9  C    Isotropic =    62.1949   Anisotropy =   159.0623

 10  C    Isotropic =    64.4438   Anisotropy =   165.6475

 11  C    Isotropic =    77.6874   Anisotropy =   137.0233

 12  C    Isotropic =    41.8642   Anisotropy =   115.4634

 13  C    Isotropic =    72.5756   Anisotropy =   153.8825

 14  C    Isotropic =    62.8668   Anisotropy =   174.1060

 15  O    Isotropic =   105.7550   Anisotropy =   169.2587

 16  C    Isotropic =    22.8425   Anisotropy =    76.1687

 17  O    Isotropic =   -64.9778   Anisotropy =   576.8971

 18  C    Isotropic =   148.7745   Anisotropy =    24.2197

 19  C    Isotropic =   162.1049   Anisotropy =    38.0878

 20  C    Isotropic =   162.9012   Anisotropy =    31.2529

 21  C    Isotropic =   162.3892   Anisotropy =    36.9077

 22  H    Isotropic =    24.6682   Anisotropy =     9.2685

 23  H    Isotropic =    24.9230   Anisotropy =     5.4200

 24  H    Isotropic =    24.7861   Anisotropy =     4.4998

 25  H    Isotropic =    24.7474   Anisotropy =     4.6632

 26  H    Isotropic =    24.1230   Anisotropy =     6.9654

 27  H    Isotropic =    24.6442   Anisotropy =     9.7245

 28  H    Isotropic =    25.4322   Anisotropy =     7.4387

 29  H    Isotropic =    24.6861   Anisotropy =     9.1457

 30  H    Isotropic =    24.0614   Anisotropy =     6.8561

 31  H    Isotropic =    30.8578   Anisotropy =     8.0542

 32  H    Isotropic =    30.3903   Anisotropy =     7.3254

 33  H    Isotropic =    31.0774   Anisotropy =     7.8815

 34  H    Isotropic =    30.6437   Anisotropy =     7.8925

 35  H    Isotropic =    31.4475   Anisotropy =     7.8489

 36  H    Isotropic =    30.6177   Anisotropy =     8.1829

 37  H    Isotropic =    30.4372   Anisotropy =     6.1655

 38  H    Isotropic =    30.8253   Anisotropy =     8.2099

 39  H    Isotropic =    31.0874   Anisotropy =     7.9030

  Exact polarizability: 299.460  -7.858 180.986 -10.442   0.830 117.413
 Approx polarizability: 377.728  -2.356 321.580 -18.776   8.748 194.446

                     1                      2                      3
                     A                      A                      A
 Frequencies --    14.6381                26.9517                38.5148
 Red. masses --     4.0193                 4.2505                 4.0316
 Frc consts  --     0.0005                 0.0018                 0.0035
 IR Inten    --     0.3801                 0.1920                 0.3543

                     4                      5                      6
                     A                      A                      A
 Frequencies --    46.1178                56.6534                82.5961
 Red. masses --     5.4288                 5.0580                 6.7570
 Frc consts  --     0.0068                 0.0096                 0.0272
 IR Inten    --     0.7522                 0.4409                 1.2662

                     7                      8                      9
                     A                      A                      A
 Frequencies --    93.2018               132.7635               172.1153
 Red. masses --     4.2627                 5.9183                 4.8654
 Frc consts  --     0.0218                 0.0615                 0.0849
 IR Inten    --     0.2145                 2.8553                 0.0303

                    10                     11                     12
                     A                      A                      A
 Frequencies --   188.3045               199.7451               214.9147
 Red. masses --     4.4907                 1.5021                 1.9546
 Frc consts  --     0.0938                 0.0353                 0.0532
 IR Inten    --     0.3602                 0.5686                 1.8651

                    13                     14                     15
                     A                      A                      A
 Frequencies --   240.6985               265.2566               275.6761
 Red. masses --     1.9308                 1.1075                 1.9903
 Frc consts  --     0.0659                 0.0459                 0.0891
 IR Inten    --     3.0508                 0.3987                 0.5120

                    16                     17                     18
                     A                      A                      A
 Frequencies --   281.7945               316.7900               334.7010
 Red. masses --     2.0738                 3.5700                 5.0882
 Frc consts  --     0.0970                 0.2111                 0.3358
 IR Inten    --     2.1441                 4.0478                 4.7758

                    19                     20                     21
                     A                      A                      A
 Frequencies --   357.9132               369.3729               379.9799
 Red. masses --     3.3986                 3.0526                 3.6541
 Frc consts  --     0.2565                 0.2454                 0.3109
 IR Inten    --    10.2317                 0.0259                 1.1526

                    22                     23                     24
                     A                      A                      A
 Frequencies --   406.9116               416.4113               429.4043
 Red. masses --     5.4574                 3.0054                 3.1309
 Frc consts  --     0.5324                 0.3070                 0.3401
 IR Inten    --     5.9411                 1.2623                 0.1924

                    25                     26                     27
                     A                      A                      A
 Frequencies --   450.1890               474.5983               513.7728
 Red. masses --     3.9004                 3.7574                 3.7581
 Frc consts  --     0.4658                 0.4986                 0.5845
 IR Inten    --     0.1750                 2.2445                 2.9977

                    28                     29                     30
                     A                      A                      A
 Frequencies --   567.8103               595.5461               631.9029
 Red. masses --     4.4721                 3.7214                 6.4149
 Frc consts  --     0.8495                 0.7777                 1.5092
 IR Inten    --     2.0209                 1.4175                 0.2560

                    31                     32                     33
                     A                      A                      A
 Frequencies --   637.7782               646.3258               693.3779
 Red. masses --     6.1806                 6.9161                 4.4361
 Frc consts  --     1.4812                 1.7022                 1.2566
 IR Inten    --    40.2435                 1.6759                 6.6017

                    34                     35                     36
                     A                      A                      A
 Frequencies --   708.1540               717.2660               749.7010
 Red. masses --     4.0634                 1.9313                 3.3978
 Frc consts  --     1.2006                 0.5854                 1.1252
 IR Inten    --     9.1782                40.8957                18.1166

                    37                     38                     39
                     A                      A                      A
 Frequencies --   757.4329               799.7374               816.1495
 Red. masses --     5.5371                 2.4850                 3.2642
 Frc consts  --     1.8716                 0.9364                 1.2811
 IR Inten    --    13.4267                 9.4353                 5.0713

                    40                     41                     42
                     A                      A                      A
 Frequencies --   835.1006               842.6243               867.5875
 Red. masses --     4.9163                 1.2603                 1.4117
 Frc consts  --     2.0201                 0.5272                 0.6261
 IR Inten    --     1.8362                 1.0118                 7.4398

                    43                     44                     45
                     A                      A                      A
 Frequencies --   873.5932               907.5740               942.0120
 Red. masses --     1.8572                 3.5217                 2.6302
 Frc consts  --     0.8351                 1.7091                 1.3752
 IR Inten    --     8.5456                25.2212                74.9305

                    46                     47                     48
                     A                      A                      A
 Frequencies --   949.2331               957.2580               958.0318
 Red. masses --     1.7661                 1.8369                 1.7710
 Frc consts  --     0.9376                 0.9917                 0.9577
 IR Inten    --     1.4749                35.6795                 6.4268

                    49                     50                     51
                     A                      A                      A
 Frequencies --   970.5381               980.7995               982.1240
 Red. masses --     1.3108                 1.3602                 1.1982
 Frc consts  --     0.7275                 0.7709                 0.6810
 IR Inten    --     0.4168                11.8400                 0.0097

                    52                     53                     54
                     A                      A                      A
 Frequencies --   983.3336              1005.4712              1018.5786
 Red. masses --     1.3418                 1.2715                 6.1260
 Frc consts  --     0.7644                 0.7573                 3.7447
 IR Inten    --     6.4532                 1.3922                 1.9154

                    55                     56                     57
                     A                      A                      A
 Frequencies --  1038.6317              1057.6882              1059.4538
 Red. masses --     2.6524                 2.1702                 1.4817
 Frc consts  --     1.6858                 1.4304                 0.9799
 IR Inten    --     2.5265                 0.7187                48.9142

                    58                     59                     60
                     A                      A                      A
 Frequencies --  1060.8085              1114.0909              1138.4256
 Red. masses --     1.4362                 1.5708                 4.0796
 Frc consts  --     0.9522                 1.1487                 3.1152
 IR Inten    --    13.8496                 2.4619               703.2573

                    61                     62                     63
                     A                      A                      A
 Frequencies --  1142.9287              1173.9872              1194.5955
 Red. masses --     1.3058                 3.2679                 1.1050
 Frc consts  --     1.0050                 2.6537                 0.9291
 IR Inten    --     7.2849                37.8087                 1.1254

                    64                     65                     66
                     A                      A                      A
 Frequencies --  1199.0994              1213.8173              1241.1569
 Red. masses --     1.2886                 1.1677                 2.6645
 Frc consts  --     1.0917                 1.0137                 2.4183
 IR Inten    --   180.2475                 1.2209                18.1002

                    67                     68                     69
                     A                      A                      A
 Frequencies --  1243.6692              1265.5185              1299.3090
 Red. masses --     3.1500                 2.9148                 3.8017
 Frc consts  --     2.8705                 2.7504                 3.7814
 IR Inten    --   264.9339                60.0193               328.3982

                    70                     71                     72
                     A                      A                      A
 Frequencies --  1307.9442              1340.4897              1349.9238
 Red. masses --     3.2108                 1.3358                 2.3299
 Frc consts  --     3.2362                 1.4142                 2.5015
 IR Inten    --    12.7950                23.7219                24.0507

                    73                     74                     75
                     A                      A                      A
 Frequencies --  1357.5639              1367.3798              1423.9909
 Red. masses --    11.1559                 2.3135                 1.2076
 Frc consts  --    12.1137                 2.5486                 1.4427
 IR Inten    --    35.2907                 3.7798                 3.8822

                    76                     77                     78
                     A                      A                      A
 Frequencies --  1431.0163              1454.6971              1459.9913
 Red. masses --     1.2282                 3.0708                 1.2269
 Frc consts  --     1.4818                 3.8287                 1.5409
 IR Inten    --     4.5849                16.8194                14.0723

                    79                     80                     81
                     A                      A                      A
 Frequencies --  1492.8893              1507.9317              1515.2743
 Red. masses --     2.2299                 1.0481                 1.0448
 Frc consts  --     2.9281                 1.4042                 1.4134
 IR Inten    --    15.4044                 0.0499                 0.1475

                    82                     83                     84
                     A                      A                      A
 Frequencies --  1520.9876              1529.7146              1532.9016
 Red. masses --     1.0454                 1.0488                 1.0545
 Frc consts  --     1.4248                 1.4460                 1.4599
 IR Inten    --     0.0320                 5.8627                 8.6990

                    85                     86                     87
                     A                      A                      A
 Frequencies --  1538.1937              1549.0556              1552.0382
 Red. masses --     2.1649                 1.7415                 1.2956
 Frc consts  --     3.0179                 2.4621                 1.8388
 IR Inten    --     4.3925                57.7681                 2.4180

                    88                     89                     90
                     A                      A                      A
 Frequencies --  1630.1063              1635.9691              1656.7625
 Red. masses --     6.9750                 5.3667                 5.7397
 Frc consts  --    10.9201                 8.4627                 9.2823
 IR Inten    --     0.9384                 6.5697                71.9231

                    91                     92                     93
                     A                      A                      A
 Frequencies --  1658.6618              1738.0664              1834.7332
 Red. masses --     5.5774                12.2108                12.6817
 Frc consts  --     9.0406                21.7334                25.1521
 IR Inten    --    85.5484               154.1006               180.0631

                    94                     95                     96
                     A                      A                      A
 Frequencies --  3051.7347              3053.5608              3062.4818
 Red. masses --     1.0355                 1.0361                 1.0364
 Frc consts  --     5.6818                 5.6919                 5.7268
 IR Inten    --    26.9942                10.6046                27.4647

                    97                     98                     99
                     A                      A                      A
 Frequencies --  3115.7328              3117.2515              3130.4601
 Red. masses --     1.1032                 1.1024                 1.1019
 Frc consts  --     6.3097                 6.3116                 6.3624
 IR Inten    --    10.5702                24.2516                39.8042

                   100                    101                    102
                     A                      A                      A
 Frequencies --  3139.3240              3140.5147              3143.8004
 Red. masses --     1.1026                 1.1021                 1.1011
 Frc consts  --     6.4026                 6.4043                 6.4120
 IR Inten    --     7.0914                16.6171                45.4773

                   103                    104                    105
                     A                      A                      A
 Frequencies --  3185.3534              3195.8101              3206.4270
 Red. masses --     1.0854                 1.0892                 1.0929
 Frc consts  --     6.4887                 6.5540                 6.6204
 IR Inten    --     0.1058                11.4516                36.2869

                   106                    107                    108
                     A                      A                      A
 Frequencies --  3210.3931              3216.4976              3223.6155
 Red. masses --     1.0887                 1.0941                 1.0934
 Frc consts  --     6.6110                 6.6689                 6.6947
 IR Inten    --     4.6638                 8.1367                 7.9806

                   109                    110                    111
                     A                      A                      A
 Frequencies --  3224.2390              3225.0951              3252.5399
 Red. masses --     1.0899                 1.0941                 1.0936
 Frc consts  --     6.6756                 6.7050                 6.8163
 IR Inten    --     2.4074                 4.2280                 3.6714

 - Thermochemistry -
 -------------------
 Temperature   298.150 Kelvin.  Pressure   1.00000 Atm.
 Atom     1 has atomic number  8 and mass  15.99491

 Molecular mass:   282.12559 amu.
 Principal axes and moments of inertia in atomic units:
                           1         2         3
     Eigenvalues --  1877.58683********************
           X            1.00000  -0.00024   0.00193
           Y            0.00024   1.00000  -0.00045
           Z           -0.00193   0.00045   1.00000
 This molecule is an asymmetric top.
 Rotational symmetry number  1.
 Warning -- assumption of classical behavior for rotation
           may cause significant error
 Rotational temperatures (Kelvin)      0.04613     0.00527     0.00501
 Rotational constants (GHZ):           0.96120     0.10990     0.10433
 Zero-point vibrational energy     836783.8 (Joules/Mol)
                                  199.99612 (Kcal/Mol)
 Warning -- explicit consideration of  29 degrees of freedom as
           vibrations may cause significant error
 Vibrational temperatures:     21.06    38.78    55.41    66.35    81.51
          (Kelvin)            118.84   134.10   191.02   247.64   270.93
                              287.39   309.21   346.31   381.64   396.64
                              405.44   455.79   481.56   514.96   531.44
                              546.71   585.45   599.12   617.82   647.72
                              682.84   739.20   816.95   856.86   909.17
                              917.62   929.92   997.61  1018.87  1031.98
                             1078.65  1089.78  1150.64  1174.26  1201.52
                             1212.35  1248.26  1256.90  1305.79  1355.34
                             1365.73  1377.28  1378.39  1396.39  1411.15
                             1413.06  1414.80  1446.65  1465.51  1494.36
                             1521.78  1524.32  1526.26  1602.93  1637.94
                             1644.42  1689.10  1718.75  1725.23  1746.41
                             1785.75  1789.36  1820.80  1869.41  1881.84
                             1928.66  1942.24  1953.23  1967.35  2048.80
                             2058.91  2092.98  2100.60  2147.93  2169.57
                             2180.14  2188.36  2200.92  2205.50  2213.11
                             2228.74  2233.03  2345.36  2353.79  2383.71
                             2386.44  2500.69  2639.77  4390.76  4393.39
                             4406.22  4482.84  4485.02  4504.03  4516.78
                             4518.49  4523.22  4583.01  4598.05  4613.33
                             4619.03  4627.82  4638.06  4638.96  4640.19
                             4679.67

 Zero-point correction=                           0.318714 (Hartree/Particle)
 Thermal correction to Energy=                    0.338177
 Thermal correction to Enthalpy=                  0.339121
 Thermal correction to Gibbs Free Energy=         0.268447
 Sum of electronic and zero-point Energies=           -922.132281
 Sum of electronic and thermal Energies=              -922.112818
 Sum of electronic and thermal Enthalpies=            -922.111874
 Sum of electronic and thermal Free Energies=         -922.182548

                     E (Thermal)             CV                S
                      KCal/Mol        Cal/Mol-Kelvin    Cal/Mol-Kelvin
 Total                  212.209             74.480            148.745
 Electronic               0.000              0.000              0.000
 Translational            0.889              2.981             42.810
 Rotational               0.889              2.981             34.633
 Vibrational            210.432             68.518             71.303
 Vibration     1          0.593              1.986              7.254
 Vibration     2          0.593              1.984              6.042
 Vibration     3          0.594              1.981              5.334
 Vibration     4          0.595              1.979              4.977
 Vibration     5          0.596              1.975              4.570
 Vibration     6          0.600              1.961              3.828
 Vibration     7          0.602              1.954              3.592
 Vibration     8          0.613              1.921              2.906
 Vibration     9          0.626              1.877              2.412
 Vibration    10          0.633              1.856              2.244
 Vibration    11          0.638              1.840              2.135
 Vibration    12          0.645              1.818              2.002
 Vibration    13          0.658              1.778              1.798
 Vibration    14          0.671              1.737              1.627
 Vibration    15          0.677              1.718              1.560
 Vibration    16          0.681              1.707              1.523
 Vibration    17          0.704              1.642              1.327
 Vibration    18          0.716              1.606              1.237
 Vibration    19          0.733              1.559              1.131
 Vibration    20          0.742              1.535              1.082
 Vibration    21          0.750              1.513              1.039
 Vibration    22          0.772              1.455              0.938
 Vibration    23          0.780              1.435              0.904
 Vibration    24          0.791              1.406              0.861
 Vibration    25          0.809              1.360              0.795
 Vibration    26          0.831              1.306              0.725
 Vibration    27          0.869              1.219              0.625
 Vibration    28          0.924              1.101              0.508
 Vibration    29          0.953              1.041              0.457

 Optimization completed.
    -- Stationary point found.
 Normal termination of Gaussian 09 at Fri Oct  1 02:54:23 2021.
 Gaussian 09:  AM64L-G09RevA.02 11-Jun-2009

 ----------------------------------------------------------------------
 #p TD(NStates=10, Root=1) b3lyp/6-31G* volume pop=NPA density=current
 Geom=AllCheck Guess=Read
 ----------------------------------------------------------------------

 O=C(c1ccccc1)c1ccc(cc1)OC(=O)C(C)(C)C_conf_0
 --------------------------------------------
 Redundant internal coordinates taken from checkpoint file:
 C18H18O3_868d_conf_0.chk
 Charge =  0 Multiplicity = 1

                         Standard orientation:
 ---------------------------------------------------------------------
 Center     Atomic      Atomic             Coordinates (Angstroms)
 Number     Number       Type             X           Y           Z
 ---------------------------------------------------------------------
      1          8           0        3.103345    2.399692   -0.027117
      2          6           0        2.815032    1.207459   -0.034690
      3          6           0        3.906201    0.179093    0.036293
      4          6           0        3.737832   -1.076902    0.639544
      5          6           0        4.812282   -1.962281    0.734944
      6          6           0        6.059356   -1.607882    0.218361
      7          6           0        6.237359   -0.355595   -0.377884
      8          6           0        5.172085    0.536124   -0.455595
      9          6           0        1.377312    0.791300   -0.118119
     10          6           0        0.956619   -0.413443   -0.701825
     11          6           0       -0.399713   -0.710272   -0.812003
     12          6           0       -1.343965    0.194273   -0.328825
     13          6           0       -0.951358    1.407606    0.243819
     14          6           0        0.404670    1.698361    0.333295
     15          8           0       -2.676069   -0.146302   -0.538676
     16          6           0       -3.623027    0.018933    0.448312
     17          8           0       -3.367673    0.440611    1.548906
     18          6           0       -5.002178   -0.414398   -0.056439
     19          6           0       -4.951264   -1.910533   -0.441587
     20          6           0       -6.025029   -0.192505    1.069076
     21          6           0       -5.376987    0.431688   -1.294042
     22          1           0        2.775611   -1.352042    1.059645
     23          1           0        4.675197   -2.926829    1.216198
     24          1           0        6.893016   -2.301894    0.285784
     25          1           0        7.209302   -0.074817   -0.774492
     26          1           0        5.297178    1.521068   -0.893759
     27          1           0        1.686575   -1.112546   -1.095992
     28          1           0       -0.738288   -1.631601   -1.274998
     29          1           0       -1.692641    2.104734    0.612601
     30          1           0        0.735425    2.642027    0.754362
     31          1           0       -4.674411   -2.532336    0.417591
     32          1           0       -4.232204   -2.092491   -1.245077
     33          1           0       -5.940596   -2.233707   -0.784903
     34          1           0       -5.767980   -0.773753    1.959561
     35          1           0       -7.020303   -0.499936    0.729341
     36          1           0       -6.069855    0.860490    1.363134
     37          1           0       -4.663067    0.287117   -2.109555
     38          1           0       -5.409981    1.499859   -1.050116
     39          1           0       -6.371170    0.138484   -1.650043
 ---------------------------------------------------------------------

 SCF Done:  E(RB3LYP) =  -922.450995018     A.U. after    1 cycles

 Excitation energies and oscillator strengths:

 Excited State   1:      Singlet-A      3.5727 eV  347.03 nm  f=0.0012  <S**2>=0.000
      71 -> 76         0.15396
      72 -> 76         0.23542
      74 -> 76         0.28530
      75 -> 76         0.56795
 This state for optimization and/or second-order correction.
 Total Energy, E(TD-HF/TD-KS) =  -922.319700241
 Copying the excited state density for this state as the 1-particle RhoCI density.

 Excited State   2:      Singlet-A      4.5458 eV  272.74 nm  f=0.4140  <S**2>=0.000
      72 -> 76        -0.13187
      74 -> 76         0.62946
      75 -> 76        -0.26034

 Excited State   3:      Singlet-A      4.5989 eV  269.60 nm  f=0.0082  <S**2>=0.000
      71 -> 76         0.13635
      72 -> 76         0.15451
      73 -> 76         0.63348
      75 -> 76        -0.11123

 Excited State   4:      Singlet-A      4.6813 eV  264.85 nm  f=0.0053  <S**2>=0.000
      71 -> 76         0.56713
      72 -> 76        -0.32898
      74 -> 78         0.10440
      75 -> 77         0.11370
      75 -> 78        -0.12805

 Excited State   5:      Singlet-A      4.8921 eV  253.44 nm  f=0.0567  <S**2>=0.000
      71 -> 76         0.28791
      72 -> 76         0.50896
      73 -> 76        -0.21126
      74 -> 77         0.10097
      75 -> 76        -0.27818

 Excited State   6:      Singlet-A      5.1914 eV  238.83 nm  f=0.0029  <S**2>=0.000
      70 -> 76         0.61655
      70 -> 77        -0.20493
      70 -> 78        -0.11453
      70 -> 80         0.16021

 Excited State   7:      Singlet-A      5.3061 eV  233.66 nm  f=0.0460  <S**2>=0.000
      71 -> 76        -0.12067
      72 -> 77         0.12286
      74 -> 77         0.16316
      75 -> 77         0.63708

 Excited State   8:      Singlet-A      5.4865 eV  225.98 nm  f=0.0080  <S**2>=0.000
      71 -> 77         0.10061
      74 -> 78         0.15846
      75 -> 78         0.62760

 Excited State   9:      Singlet-A      5.6092 eV  221.04 nm  f=0.0187  <S**2>=0.000
      70 -> 80         0.16414
      71 -> 76         0.10588
      71 -> 77         0.37291
      71 -> 78         0.17612
      73 -> 76         0.10591
      74 -> 77         0.31904
      74 -> 78        -0.21226
      75 -> 79        -0.25736
      75 -> 80         0.10344

 Excited State  10:      Singlet-A      5.6426 eV  219.73 nm  f=0.0069  <S**2>=0.000
      72 -> 77         0.17413
      73 -> 77         0.28132
      73 -> 78         0.13481
      74 -> 77         0.21767
      74 -> 79         0.21507
      75 -> 79         0.45831

 The electronic state is 1-A.
 Alpha  occ. eigenvalues --  -19.20912 -19.14907 -19.13244 -10.32484 -10.27453
 Alpha  occ. eigenvalues --  -10.26527 -10.22044 -10.20739 -10.20306 -10.20295
 Alpha  occ. eigenvalues --  -10.20243 -10.20190 -10.20185 -10.20132 -10.20055
 Alpha  occ. eigenvalues --  -10.19915 -10.19770 -10.19664 -10.18828 -10.18763
 Alpha  occ. eigenvalues --  -10.17947  -1.11547  -1.03324  -1.03182  -0.86883
 Alpha  occ. eigenvalues --   -0.86073  -0.83021  -0.77781  -0.76232  -0.75490
 Alpha  occ. eigenvalues --   -0.75147  -0.69755  -0.69444  -0.67984  -0.63966
 Alpha  occ. eigenvalues --   -0.62447  -0.61235  -0.59965  -0.56486  -0.56058
 Alpha  occ. eigenvalues --   -0.52869  -0.49929  -0.49246  -0.48406  -0.48239
 Alpha  occ. eigenvalues --   -0.46011  -0.45859  -0.45251  -0.44575  -0.43937
 Alpha  occ. eigenvalues --   -0.43545  -0.43443  -0.43008  -0.42802  -0.41131
 Alpha  occ. eigenvalues --   -0.40038  -0.39691  -0.39235  -0.38606  -0.37603
 Alpha  occ. eigenvalues --   -0.37368  -0.36706  -0.36238  -0.35515  -0.35305
 Alpha  occ. eigenvalues --   -0.34676  -0.34036  -0.33973  -0.32487  -0.27972
 Alpha  occ. eigenvalues --   -0.26301  -0.26053  -0.25877  -0.25134  -0.24204
 Alpha virt. eigenvalues --   -0.06340  -0.01906  -0.01277  -0.00562   0.00526
 Alpha virt. eigenvalues --    0.05856   0.07791   0.08998   0.09591   0.12153
 Alpha virt. eigenvalues --    0.13054   0.13936   0.14593   0.14661   0.14738

 Mulliken atomic charges:
              1
     1  O   -0.315895
     2  C    0.252778
     3  C    0.090756
     4  C   -0.181192
     5  C   -0.135441
     6  C   -0.132688
     7  C   -0.131998
     8  C   -0.174241
     9  C    0.100792
    10  C   -0.193604
    11  C   -0.172934
    12  C    0.342800
    13  C   -0.138366
    14  C   -0.195597
    15  O   -0.535100
    16  C    0.634116
    17  O   -0.462509
    18  C   -0.009900
    19  C   -0.451062
    20  C   -0.434063
    21  C   -0.451588
    22  H    0.151835
    23  H    0.136863
    24  H    0.131172
    25  H    0.135910
    26  H    0.147258
    27  H    0.154650
    28  H    0.145308
    29  H    0.159201
    30  H    0.152745
    31  H    0.152616
    32  H    0.161805
    33  H    0.149366
    34  H    0.157685
    35  H    0.137981
    36  H    0.155246
    37  H    0.165709
    38  H    0.150560
    39  H    0.149025
 Sum of Mulliken atomic charges =  -0.00000

 Dipole moment (field-independent basis, Debye):
    X=             -0.4444    Y=             -1.8205    Z=             -1.5428  Tot=              2.4273
 Quadrupole moment (field-independent basis, Debye-Ang):
   XX=           -104.8203   YY=           -117.5152   ZZ=           -127.7440
   XY=             -2.9495   XZ=              3.8054   YZ=             -1.1935

 Summary of Natural Population Analysis:

                                       Natural Population
                Natural  -----------------------------------------------
    Atom  No    Charge         Core      Valence    Rydberg      Total
 -----------------------------------------------------------------------
      O    1   -0.26135      1.99982     6.24400    0.01754     8.26135
      C    2    0.37586      1.99918     3.59167    0.03330     5.62414
      C    3   -0.11862      1.99890     4.10449    0.01523     6.11862
      C    4   -0.22440      1.99903     4.21217    0.01320     6.22440
      C    5   -0.22966      1.99909     4.21646    0.01411     6.22966
      C    6   -0.24206      1.99910     4.22889    0.01407     6.24206
      C    7   -0.22643      1.99910     4.21349    0.01384     6.22643
      C    8   -0.22130      1.99904     4.20826    0.01400     6.22130
      C    9   -0.12884      1.99889     4.11497    0.01498     6.12884
      C   10   -0.21599      1.99904     4.20381    0.01314     6.21599
      C   11   -0.25769      1.99900     4.24460    0.01409     6.25769
      C   12    0.29009      1.99872     3.68936    0.02183     5.70991
      C   13   -0.25402      1.99900     4.24166    0.01335     6.25402
      C   14   -0.21227      1.99905     4.19900    0.01421     6.21227
      O   15   -0.54922      1.99969     6.53844    0.01109     8.54922
      C   16    0.84589      1.99927     3.10600    0.04884     5.15411
      O   17   -0.57764      1.99977     6.55788    0.01999     8.57764
      C   18   -0.15195      1.99905     4.14061    0.01229     6.15195
      C   19   -0.66869      1.99938     4.65956    0.00975     6.66869
      C   20   -0.67014      1.99940     4.65965    0.01110     6.67014
      C   21   -0.66971      1.99938     4.66056    0.00977     6.66971
      H   22    0.24843      0.00000     0.75058    0.00099     0.75157
      H   23    0.24119      0.00000     0.75800    0.00081     0.75881
      H   24    0.23690      0.00000     0.76229    0.00082     0.76310
      H   25    0.24046      0.00000     0.75871    0.00083     0.75954
      H   26    0.24455      0.00000     0.75440    0.00105     0.75545
      H   27    0.25103      0.00000     0.74800    0.00098     0.74897
      H   28    0.25066      0.00000     0.74818    0.00116     0.74934
      H   29    0.25993      0.00000     0.73905    0.00102     0.74007
      H   30    0.24798      0.00000     0.75101    0.00101     0.75202
      H   31    0.23663      0.00000     0.76246    0.00091     0.76337
      H   32    0.24274      0.00000     0.75611    0.00114     0.75726
      H   33    0.23519      0.00000     0.76378    0.00103     0.76481
      H   34    0.24373      0.00000     0.75523    0.00104     0.75627
      H   35    0.23042      0.00000     0.76868    0.00090     0.76958
      H   36    0.24230      0.00000     0.75667    0.00103     0.75770
      H   37    0.24513      0.00000     0.75381    0.00106     0.75487
      H   38    0.23567      0.00000     0.76342    0.00091     0.76433
      H   39    0.23518      0.00000     0.76376    0.00105     0.76482
 =======================================================================
   * Total *   -0.00001     41.98290   107.64968    0.36743   150.00001

 Normal termination of Gaussian 09 at Fri Oct  1 06:35:25 2021.
