 Gaussian 09, Revision A.02,

 -----------------------------------
 #p opt b3lyp/6-31G* scf=(xqc,tight)
 -----------------------------------

 --------------------------------------
 COc1ccc(cc1)N(c1ccccc1)c1ccccc1_conf_0
 --------------------------------------
 Symbolic Z-matrix:
 Charge =  0 Multiplicity = 1

 SCF Done:  E(RB3LYP) =  -864.212485838     A.U. after   15 cycles
 SCF Done:  E(RB3LYP) =  -864.218661641     A.U. after   14 cycles
 SCF Done:  E(RB3LYP) =  -864.219973925     A.U. after   12 cycles
 SCF Done:  E(RB3LYP) =  -864.220036780     A.U. after   12 cycles
 SCF Done:  E(RB3LYP) =  -864.220115032     A.U. after   11 cycles
 SCF Done:  E(RB3LYP) =  -864.220131716     A.U. after   10 cycles
 SCF Done:  E(RB3LYP) =  -864.220139395     A.U. after   10 cycles
 SCF Done:  E(RB3LYP) =  -864.220141347     A.U. after    8 cycles
 SCF Done:  E(RB3LYP) =  -864.220141799     A.U. after    7 cycles
 SCF Done:  E(RB3LYP) =  -864.220141921     A.U. after    7 cycles
 SCF Done:  E(RB3LYP) =  -864.220141977     A.U. after    6 cycles
 SCF Done:  E(RB3LYP) =  -864.220142024     A.U. after    7 cycles
 Optimization completed.
    -- Stationary point found.
 Normal termination of Gaussian 09 at Tue Sep 28 21:41:19 2021.

 ----------------------------------------------------------------------
 #p freq b3lyp/6-31G* volume NMR pop=NPA density=current Geom=AllCheck
 Guess=Read
 ----------------------------------------------------------------------

 COc1ccc(cc1)N(c1ccccc1)c1ccccc1_conf_0
 --------------------------------------
 Redundant internal coordinates taken from checkpoint file:
 C19H17NO_878f_conf_0.chk
 Charge =  0 Multiplicity = 1

 SCF Done:  E(RB3LYP) =  -864.220142024     A.U. after    1 cycles

  1  C    Isotropic =   137.7023   Anisotropy =    63.7772

  2  O    Isotropic =   236.7599   Anisotropy =    79.5180

  3  C    Isotropic =    38.0050   Anisotropy =   125.2917

  4  C    Isotropic =    83.3561   Anisotropy =   128.9753

  5  C    Isotropic =    66.5254   Anisotropy =   163.6016

  6  C    Isotropic =    79.2036   Anisotropy =   143.7180

  7  C    Isotropic =    47.0800   Anisotropy =   138.0905

  8  C    Isotropic =    88.6190   Anisotropy =   132.6458

  9  N    Isotropic =   149.3715   Anisotropy =     8.4502

 10  C    Isotropic =    48.1697   Anisotropy =   142.8803

 11  C    Isotropic =    70.9185   Anisotropy =   156.0342

 12  C    Isotropic =    67.3238   Anisotropy =   164.0359

 13  C    Isotropic =    74.0436   Anisotropy =   158.7891

 14  C    Isotropic =    67.2884   Anisotropy =   164.0470

 15  C    Isotropic =    71.2942   Anisotropy =   155.4309

 16  C    Isotropic =    48.3501   Anisotropy =   141.7329

 17  C    Isotropic =    71.3067   Anisotropy =   155.2568

 18  C    Isotropic =    67.2896   Anisotropy =   163.7887

 19  C    Isotropic =    74.0848   Anisotropy =   158.6874

 20  C    Isotropic =    67.3306   Anisotropy =   163.7915

 21  C    Isotropic =    71.6906   Anisotropy =   154.5192

 22  H    Isotropic =    28.9531   Anisotropy =     6.6919

 23  H    Isotropic =    28.4477   Anisotropy =     8.1555

 24  H    Isotropic =    28.7992   Anisotropy =     6.8154

 25  H    Isotropic =    25.8806   Anisotropy =     4.3090

 26  H    Isotropic =    25.2348   Anisotropy =     4.4381

 27  H    Isotropic =    25.7668   Anisotropy =     9.4834

 28  H    Isotropic =    26.1765   Anisotropy =    12.6613

 29  H    Isotropic =    25.2742   Anisotropy =    10.0774

 30  H    Isotropic =    25.1029   Anisotropy =     4.9719

 31  H    Isotropic =    25.3975   Anisotropy =     2.8406

 32  H    Isotropic =    25.1147   Anisotropy =     4.8975

 33  H    Isotropic =    25.3034   Anisotropy =    10.0862

 34  H    Isotropic =    25.2915   Anisotropy =    10.5145

 35  H    Isotropic =    25.1175   Anisotropy =     5.0992

 36  H    Isotropic =    25.3950   Anisotropy =     2.9040

 37  H    Isotropic =    25.1287   Anisotropy =     5.0107

 38  H    Isotropic =    25.3518   Anisotropy =    10.4184

  Exact polarizability: 255.970   7.074 244.726  -8.931   2.121 138.214
 Approx polarizability: 380.879   4.949 374.904 -16.904   1.650 235.292

                     1                      2                      3
                     A                      A                      A
 Frequencies --    22.9294                33.5836                47.0385
 Red. masses --     4.2673                 3.9467                 4.9091
 Frc consts  --     0.0013                 0.0026                 0.0064
 IR Inten    --     1.0409                 1.5228                 0.2117

                     4                      5                      6
                     A                      A                      A
 Frequencies --    63.6036                72.0393                78.8990
 Red. masses --     4.0132                 4.1926                 4.5494
 Frc consts  --     0.0096                 0.0128                 0.0167
 IR Inten    --     0.7314                 1.0898                 0.0489

                     7                      8                      9
                     A                      A                      A
 Frequencies --    99.2392               171.0059               204.0116
 Red. masses --     3.4950                 3.9968                 1.8416
 Frc consts  --     0.0203                 0.0689                 0.0452
 IR Inten    --     3.4827                 1.9279                 0.9167

                    10                     11                     12
                     A                      A                      A
 Frequencies --   229.1849               244.7091               253.9764
 Red. masses --     3.7113                 4.0105                 4.3023
 Frc consts  --     0.1149                 0.1415                 0.1635
 IR Inten    --     0.6813                 2.1968                 1.8933

                    13                     14                     15
                     A                      A                      A
 Frequencies --   280.2768               286.3131               332.6720
 Red. masses --     2.1729                 4.0297                 4.5623
 Frc consts  --     0.1006                 0.1946                 0.2975
 IR Inten    --     1.3651                 0.0379                 0.3735

                    16                     17                     18
                     A                      A                      A
 Frequencies --   356.9884               420.9576               424.7861
 Red. masses --     4.2322                 3.0734                 3.0913
 Frc consts  --     0.3178                 0.3209                 0.3287
 IR Inten    --     1.9737                 2.9347                 1.0953

                    19                     20                     21
                     A                      A                      A
 Frequencies --   431.5815               462.4098               475.4516
 Red. masses --     5.5013                 3.8180                 4.0947
 Frc consts  --     0.6037                 0.4810                 0.5454
 IR Inten    --     0.2678                 1.9904                 3.2514

                    22                     23                     24
                     A                      A                      A
 Frequencies --   514.2878               522.8404               562.5033
 Red. masses --     3.5545                 3.4387                 4.9793
 Frc consts  --     0.5539                 0.5538                 0.9283
 IR Inten    --    13.0007                 9.1043                 5.8796

                    25                     26                     27
                     A                      A                      A
 Frequencies --   602.9640               630.2129               633.5048
 Red. masses --     5.6079                 5.8840                 6.2731
 Frc consts  --     1.2013                 1.3769                 1.4833
 IR Inten    --     0.1323                 1.4262                 0.5116

                    28                     29                     30
                     A                      A                      A
 Frequencies --   638.0978               656.1516               705.1984
 Red. masses --     6.4648                 5.0712                 2.7094
 Frc consts  --     1.5509                 1.2864                 0.7939
 IR Inten    --    10.9652                10.5440                12.4382

                    31                     32                     33
                     A                      A                      A
 Frequencies --   709.3632               711.5669               716.5651
 Red. masses --     2.4954                 2.0953                 3.5139
 Frc consts  --     0.7398                 0.6251                 1.0630
 IR Inten    --    15.5937                32.4303                21.4475

                    34                     35                     36
                     A                      A                      A
 Frequencies --   769.2697               770.5418               790.2877
 Red. masses --     1.8587                 1.7055                 1.4040
 Frc consts  --     0.6480                 0.5966                 0.5167
 IR Inten    --     5.5964                50.7540                22.5963

                    37                     38                     39
                     A                      A                      A
 Frequencies --   836.8645               845.8730               850.0968
 Red. masses --     4.3673                 1.2735                 1.2709
 Frc consts  --     1.8021                 0.5369                 0.5411
 IR Inten    --    13.6472                 1.0967                 0.9820

                    40                     41                     42
                     A                      A                      A
 Frequencies --   862.4166               881.7740               911.0956
 Red. masses --     1.5191                 1.4203                 1.4949
 Frc consts  --     0.6657                 0.6506                 0.7311
 IR Inten    --    15.9871                 1.3340                 3.6609

                    43                     44                     45
                     A                      A                      A
 Frequencies --   916.1822               941.9943               964.0980
 Red. masses --     1.4701                 4.4881                 1.3418
 Frc consts  --     0.7271                 2.3464                 0.7348
 IR Inten    --     1.8211                 0.6908                 0.7378

                    46                     47                     48
                     A                      A                      A
 Frequencies --   965.1576               966.9287               986.3350
 Red. masses --     1.3258                 1.2564                 1.2369
 Frc consts  --     0.7277                 0.6921                 0.7090
 IR Inten    --     0.1951                 0.2382                 0.1315

                    49                     50                     51
                     A                      A                      A
 Frequencies --   987.1899              1004.6657              1012.9089
 Red. masses --     1.2360                 3.8901                 5.9662
 Frc consts  --     0.7097                 2.3134                 3.6065
 IR Inten    --     0.0258                18.7160                 0.0366

                    52                     53                     54
                     A                      A                      A
 Frequencies --  1015.8839              1016.0323              1057.2158
 Red. masses --     6.0178                 5.9976                 2.1716
 Frc consts  --     3.6591                 3.6479                 1.4301
 IR Inten    --     0.4489                 0.6911                 3.2476

                    55                     56                     57
                     A                      A                      A
 Frequencies --  1059.0020              1081.3996              1112.8556
 Red. masses --     2.0361                 3.9246                 1.5594
 Frc consts  --     1.3454                 2.7040                 1.1379
 IR Inten    --     4.7329                39.5758                 9.0079

                    58                     59                     60
                     A                      A                      A
 Frequencies --  1114.3785              1117.5588              1184.3131
 Red. masses --     1.5451                 1.5203                 1.2723
 Frc consts  --     1.1305                 1.1187                 1.0514
 IR Inten    --     1.2799                 3.8796                 0.7887

                    61                     62                     63
                     A                      A                      A
 Frequencies --  1189.1768              1190.7090              1191.7859
 Red. masses --     1.4572                 1.1093                 1.0937
 Frc consts  --     1.2141                 0.9267                 0.9152
 IR Inten    --    52.1069                 1.2849                 0.2984

                    64                     65                     66
                     A                      A                      A
 Frequencies --  1196.6443              1209.8324              1211.9046
 Red. masses --     1.4445                 1.1390                 1.1769
 Frc consts  --     1.2187                 0.9823                 1.0184
 IR Inten    --     2.8166                 5.3474                 9.7291

                    67                     68                     69
                     A                      A                      A
 Frequencies --  1222.2036              1271.2411              1311.4986
 Red. masses --     1.5265                 3.2138                 2.9889
 Frc consts  --     1.3435                 3.0600                 3.0290
 IR Inten    --     0.0769               250.0230               172.7757

                    70                     71                     72
                     A                      A                      A
 Frequencies --  1314.8395              1329.3557              1348.4660
 Red. masses --     3.1580                 3.2843                 2.5544
 Frc consts  --     3.2167                 3.4196                 2.7367
 IR Inten    --    15.7705                72.3278                58.3847

                    73                     74                     75
                     A                      A                      A
 Frequencies --  1358.8928              1367.7326              1371.6511
 Red. masses --     5.6243                 1.6841                 1.8489
 Frc consts  --     6.1191                 1.8562                 2.0495
 IR Inten    --    24.5097                13.3981                 7.9147

                    76                     77                     78
                     A                      A                      A
 Frequencies --  1377.6464              1478.2481              1497.7916
 Red. masses --     3.0287                 2.2542                 1.9153
 Frc consts  --     3.3867                 2.9022                 2.5316
 IR Inten    --    60.6309                11.8746                 2.8841

                    79                     80                     81
                     A                      A                      A
 Frequencies --  1504.4946              1509.8535              1520.4898
 Red. masses --     1.9537                 1.9370                 1.0484
 Frc consts  --     2.6055                 2.6017                 1.4280
 IR Inten    --    15.7507                27.7883                 6.4699

                    82                     83                     84
                     A                      A                      A
 Frequencies --  1532.1254              1541.2455              1543.1972
 Red. masses --     1.2204                 2.1325                 2.1521
 Frc consts  --     1.6878                 2.9846                 3.0196
 IR Inten    --   101.9525               147.3719                75.2944

                    85                     86                     87
                     A                      A                      A
 Frequencies --  1546.3963              1632.0780              1640.1332
 Red. masses --     2.0245                 5.4135                 5.9108
 Frc consts  --     2.8524                 8.4960                 9.3681
 IR Inten    --    27.7742                19.2310                56.1622

                    88                     89                     90
                     A                      A                      A
 Frequencies --  1642.3131              1652.4430              1653.2531
 Red. masses --     6.1763                 5.5500                 5.5851
 Frc consts  --     9.8150                 8.9289                 8.9941
 IR Inten    --    97.6039               230.5401                71.3063

                    91                     92                     93
                     A                      A                      A
 Frequencies --  1665.2106              3025.8378              3084.6956
 Red. masses --     5.6123                 1.0347                 1.1066
 Frc consts  --     9.1692                 5.5813                 6.2039
 IR Inten    --     9.8499                43.2840                37.7101

                    94                     95                     96
                     A                      A                      A
 Frequencies --  3156.2308              3182.5282              3182.6914
 Red. masses --     1.0999                 1.0850                 1.0850
 Frc consts  --     6.4557                 6.4748                 6.4756
 IR Inten    --    31.5102                 6.0632                 1.8582

                    97                     98                     99
                     A                      A                      A
 Frequencies --  3190.3464              3190.4232              3190.7408
 Red. masses --     1.0892                 1.0892                 1.0878
 Frc consts  --     6.5319                 6.5322                 6.5253
 IR Inten    --    17.7376                 9.8433                18.1055

                   100                    101                    102
                     A                      A                      A
 Frequencies --  3206.1305              3206.3959              3215.0658
 Red. masses --     1.0929                 1.0928                 1.0930
 Frc consts  --     6.6191                 6.6197                 6.6567
 IR Inten    --    55.3728                18.9128                15.9642

                   103                    104                    105
                     A                      A                      A
 Frequencies --  3215.3961              3217.6305              3217.9289
 Red. masses --     1.0929                 1.0957                 1.0955
 Frc consts  --     6.6574                 6.6838                 6.6838
 IR Inten    --    14.2294                 2.4267                 0.9260

                   106                    107                    108
                     A                      A                      A
 Frequencies --  3219.9167              3224.6962              3244.6364
 Red. masses --     1.0913                 1.0948                 1.0892
 Frc consts  --     6.6660                 6.7073                 6.7559
 IR Inten    --     9.4074                 5.4189                 2.5201

 - Thermochemistry -
 -------------------
 Temperature   298.150 Kelvin.  Pressure   1.00000 Atm.
 Atom     1 has atomic number  6 and mass  12.00000

 Molecular mass:   275.13101 amu.
 Principal axes and moments of inertia in atomic units:
                           1         2         3
     Eigenvalues --  4802.066646899.88317**********
           X            0.99977   0.02092   0.00393
           Y           -0.02093   0.99978   0.00298
           Z           -0.00387  -0.00306   0.99999
 This molecule is an asymmetric top.
 Rotational symmetry number  1.
 Warning -- assumption of classical behavior for rotation
           may cause significant error
 Rotational temperatures (Kelvin)      0.01804     0.01255     0.00837
 Rotational constants (GHZ):           0.37583     0.26156     0.17445
 Zero-point vibrational energy     818313.8 (Joules/Mol)
                                  195.58168 (Kcal/Mol)
 Warning -- explicit consideration of  25 degrees of freedom as
           vibrations may cause significant error
 Vibrational temperatures:     32.99    48.32    67.68    91.51   103.65
          (Kelvin)            113.52   142.78   246.04   293.53   329.75
                              352.08   365.41   403.26   411.94   478.64
                              513.63   605.66   611.17   620.95   665.30
                              684.07   739.94   752.25   809.32   867.53
                              906.73   911.47   918.08   944.05  1014.62
                             1020.61  1023.78  1030.98  1106.81  1108.64
                             1137.05  1204.06  1217.02  1223.10  1240.82
                             1268.67  1310.86  1318.18  1355.32  1387.12
                             1388.64  1391.19  1419.11  1420.34  1445.49
                             1457.35  1461.63  1461.84  1521.10  1523.67
                             1555.89  1601.15  1603.34  1607.92  1703.96
                             1710.96  1713.16  1714.71  1721.70  1740.68
                             1743.66  1758.48  1829.03  1886.95  1891.76
                             1912.64  1940.14  1955.14  1967.86  1973.50
                             1982.12  2126.87  2154.99  2164.63  2172.34
                             2187.64  2204.38  2217.51  2220.31  2224.92
                             2348.19  2359.78  2362.92  2377.49  2378.66
                             2395.86  4353.50  4438.18  4541.11  4578.94
                             4579.18  4590.19  4590.30  4590.76  4612.90
                             4613.28  4625.76  4626.23  4629.45  4629.88
                             4632.74  4639.61  4668.30

 Zero-point correction=                           0.311679 (Hartree/Particle)
 Thermal correction to Energy=                    0.329103
 Thermal correction to Enthalpy=                  0.330047
 Thermal correction to Gibbs Free Energy=         0.264572
 Sum of electronic and zero-point Energies=           -863.908463
 Sum of electronic and thermal Energies=              -863.891039
 Sum of electronic and thermal Enthalpies=            -863.890095
 Sum of electronic and thermal Free Energies=         -863.955570

                     E (Thermal)             CV                S
                      KCal/Mol        Cal/Mol-Kelvin    Cal/Mol-Kelvin
 Total                  206.515             69.088            137.805
 Electronic               0.000              0.000              0.000
 Translational            0.889              2.981             42.735
 Rotational               0.889              2.981             34.193
 Vibrational            204.738             63.127             60.877
 Vibration     1          0.593              1.985              6.363
 Vibration     2          0.594              1.983              5.606
 Vibration     3          0.595              1.979              4.938
 Vibration     4          0.597              1.972              4.342
 Vibration     5          0.598              1.967              4.097
 Vibration     6          0.600              1.963              3.918
 Vibration     7          0.604              1.950              3.469
 Vibration     8          0.626              1.878              2.424
 Vibration     9          0.640              1.834              2.097
 Vibration    10          0.652              1.796              1.885
 Vibration    11          0.660              1.772              1.768
 Vibration    12          0.665              1.756              1.703
 Vibration    13          0.680              1.710              1.532
 Vibration    14          0.684              1.699              1.496
 Vibration    15          0.715              1.610              1.247
 Vibration    16          0.732              1.561              1.135
 Vibration    17          0.783              1.425              0.889
 Vibration    18          0.787              1.416              0.876
 Vibration    19          0.793              1.401              0.854
 Vibration    20          0.820              1.333              0.759
 Vibration    21          0.832              1.305              0.722
 Vibration    22          0.869              1.218              0.623
 Vibration    23          0.878              1.199              0.603
 Vibration    24          0.918              1.112              0.519
 Vibration    25          0.961              1.026              0.445

 Optimization completed.
    -- Stationary point found.
 Normal termination of Gaussian 09 at Tue Sep 28 23:57:21 2021.
 Gaussian 09:  AM64L-G09RevA.02 11-Jun-2009

 ----------------------------------------------------------------------
 #p TD(NStates=10, Root=1) b3lyp/6-31G* volume pop=NPA density=current
 Geom=AllCheck Guess=Read
 ----------------------------------------------------------------------

 COc1ccc(cc1)N(c1ccccc1)c1ccccc1_conf_0
 --------------------------------------
 Redundant internal coordinates taken from checkpoint file:
 C19H17NO_878f_conf_0.chk
 Charge =  0 Multiplicity = 1

                         Standard orientation:
 ---------------------------------------------------------------------
 Center     Atomic      Atomic             Coordinates (Angstroms)
 Number     Number       Type             X           Y           Z
 ---------------------------------------------------------------------
      1          6           0        4.301390    0.442235    1.462767
      2          8           0        4.234452   -0.721675    0.654672
      3          6           0        3.034399   -1.053923    0.092797
      4          6           0        3.037429   -2.206004   -0.708048
      5          6           0        1.854214   -2.615999   -1.311172
      6          6           0        0.668701   -1.896787   -1.145147
      7          6           0        0.664709   -0.751647   -0.339081
      8          6           0        1.852813   -0.335330    0.288617
      9          7           0       -0.530304   -0.004908   -0.145175
     10          6           0       -0.490276    1.415866   -0.159371
     11          6           0        0.284658    2.098192   -1.111770
     12          6           0        0.330004    3.490980   -1.115130
     13          6           0       -0.406834    4.228864   -0.186017
     14          6           0       -1.185903    3.553772    0.756084
     15          6           0       -1.223131    2.160784    0.779219
     16          6           0       -1.765134   -0.678258    0.061305
     17          6           0       -1.830598   -1.813871    0.885249
     18          6           0       -3.042550   -2.473852    1.078322
     19          6           0       -4.211228   -2.007321    0.472549
     20          6           0       -4.150928   -0.873542   -0.340316
     21          6           0       -2.940290   -0.217420   -0.554503
     22          1           0        4.020580    1.342350    0.900170
     23          1           0        5.342227    0.525237    1.781392
     24          1           0        3.657716    0.357891    2.348580
     25          1           0        3.966676   -2.750219   -0.840309
     26          1           0        1.854419   -3.503694   -1.938226
     27          1           0       -0.244572   -2.215236   -1.635630
     28          1           0        1.829352    0.543230    0.920402
     29          1           0        0.846791    1.529818   -1.845859
     30          1           0        0.934292    4.001431   -1.860734
     31          1           0       -0.375132    5.314642   -0.196736
     32          1           0       -1.759999    4.113171    1.490297
     33          1           0       -1.819944    1.641551    1.522373
     34          1           0       -0.928183   -2.173995    1.368697
     35          1           0       -3.073569   -3.351202    1.719310
     36          1           0       -5.155411   -2.520433    0.631440
     37          1           0       -5.049875   -0.502054   -0.825545
     38          1           0       -2.897520    0.654840   -1.198907
 ---------------------------------------------------------------------

 SCF Done:  E(RB3LYP) =  -864.220142024     A.U. after    1 cycles

 Excitation energies and oscillator strengths:

 Excited State   1:      Singlet-A      3.9708 eV  312.24 nm  f=0.0313  <S**2>=0.000
      73 -> 74         0.48639
      73 -> 75        -0.37982
      73 -> 76        -0.32096
 This state for optimization and/or second-order correction.
 Total Energy, E(TD-HF/TD-KS) =  -864.074219539
 Copying the excited state density for this state as the 1-particle RhoCI density.

 Excited State   2:      Singlet-A      4.0787 eV  303.98 nm  f=0.2259  <S**2>=0.000
      73 -> 74         0.48216
      73 -> 75         0.47875
      73 -> 76         0.16315

 Excited State   3:      Singlet-A      4.1317 eV  300.08 nm  f=0.2456  <S**2>=0.000
      73 -> 74         0.12992
      73 -> 75        -0.33889
      73 -> 76         0.59288

 Excited State   4:      Singlet-A      4.4676 eV  277.52 nm  f=0.0272  <S**2>=0.000
      73 -> 77         0.68185

 Excited State   5:      Singlet-A      4.6483 eV  266.73 nm  f=0.0103  <S**2>=0.000
      72 -> 74         0.20560
      72 -> 76         0.17310
      73 -> 78         0.62675

 Excited State   6:      Singlet-A      5.1220 eV  242.06 nm  f=0.0182  <S**2>=0.000
      72 -> 74         0.55928
      72 -> 75         0.37753
      73 -> 78        -0.13051

 Excited State   7:      Singlet-A      5.1559 eV  240.47 nm  f=0.0456  <S**2>=0.000
      72 -> 74        -0.29999
      72 -> 75         0.56774
      73 -> 78         0.19999
      73 -> 79         0.14574

 Excited State   8:      Singlet-A      5.2463 eV  236.33 nm  f=0.0507  <S**2>=0.000
      72 -> 75         0.10642
      72 -> 76         0.61638
      73 -> 78        -0.13944
      73 -> 79        -0.20013

 Excited State   9:      Singlet-A      5.4513 eV  227.44 nm  f=0.0213  <S**2>=0.000
      72 -> 74         0.13182
      72 -> 76         0.18119
      73 -> 79         0.61045

 Excited State  10:      Singlet-A      5.5755 eV  222.37 nm  f=0.0074  <S**2>=0.000
      68 -> 74         0.12002
      68 -> 76        -0.14723
      69 -> 74         0.15097
      70 -> 75         0.26749
      71 -> 74        -0.23513
      71 -> 76        -0.17810
      72 -> 77         0.47400

 The electronic state is 1-A.
 Alpha  occ. eigenvalues --  -19.17494 -14.36128 -10.24478 -10.23866 -10.22781
 Alpha  occ. eigenvalues --  -10.22771 -10.22664 -10.18955 -10.18951 -10.18785
 Alpha  occ. eigenvalues --  -10.18778 -10.18773 -10.18614 -10.18599 -10.18521
 Alpha  occ. eigenvalues --  -10.18454 -10.18444 -10.18342 -10.18199 -10.17760
 Alpha  occ. eigenvalues --  -10.17748  -1.06060  -0.96075  -0.85118  -0.84930
 Alpha  occ. eigenvalues --   -0.82992  -0.75856  -0.75394  -0.74363  -0.74119
 Alpha  occ. eigenvalues --   -0.73920  -0.71046  -0.68853  -0.62497  -0.62033
 Alpha  occ. eigenvalues --   -0.60038  -0.59808  -0.58928  -0.56753  -0.53698
 Alpha  occ. eigenvalues --   -0.53097  -0.50258  -0.48751  -0.48102  -0.47470
 Alpha  occ. eigenvalues --   -0.46876  -0.46551  -0.45312  -0.44294  -0.43749
 Alpha  occ. eigenvalues --   -0.43012  -0.42507  -0.41926  -0.41729  -0.41000
 Alpha  occ. eigenvalues --   -0.37690  -0.37373  -0.36846  -0.36372  -0.36155
 Alpha  occ. eigenvalues --   -0.35874  -0.35247  -0.34310  -0.34066  -0.32831
 Alpha  occ. eigenvalues --   -0.32400  -0.29540  -0.25610  -0.25502  -0.24904
 Alpha  occ. eigenvalues --   -0.24385  -0.21921  -0.18076
 Alpha virt. eigenvalues --   -0.00966  -0.00879  -0.00666   0.00930   0.01839
 Alpha virt. eigenvalues --    0.03769   0.09397   0.09938   0.10094   0.11052
 Alpha virt. eigenvalues --    0.13318   0.14349   0.14623   0.15311   0.15579

 Mulliken atomic charges:
              1
     1  C   -0.219931
     2  O   -0.508436
     3  C    0.372057
     4  C   -0.150987
     5  C   -0.162660
     6  C   -0.152934
     7  C    0.275195
     8  C   -0.245104
     9  N   -0.580778
    10  C    0.267615
    11  C   -0.181303
    12  C   -0.168610
    13  C   -0.103973
    14  C   -0.174568
    15  C   -0.170921
    16  C    0.272405
    17  C   -0.163372
    18  C   -0.168183
    19  C   -0.105463
    20  C   -0.160154
    21  C   -0.174284
    22  H    0.162167
    23  H    0.171679
    24  H    0.155438
    25  H    0.148043
    26  H    0.137692
    27  H    0.158096
    28  H    0.160497
    29  H    0.132047
    30  H    0.119025
    31  H    0.125958
    32  H    0.119018
    33  H    0.139577
    34  H    0.142177
    35  H    0.124893
    36  H    0.131416
    37  H    0.127715
    38  H    0.148949
 Sum of Mulliken atomic charges =  -0.00000

 Dipole moment (field-independent basis, Debye):
    X=              1.1854    Y=             -0.6337    Z=              0.5199  Tot=              1.4412
 Quadrupole moment (field-independent basis, Debye-Ang):
   XX=           -115.5205   YY=           -117.8562   ZZ=           -119.4241
   XY=              4.0528   XZ=              2.1828   YZ=              2.2166

 Summary of Natural Population Analysis:

                                       Natural Population
                Natural  -----------------------------------------------
    Atom  No    Charge         Core      Valence    Rydberg      Total
 -----------------------------------------------------------------------
      C    1   -0.31925      1.99943     4.30571    0.01411     6.31925
      O    2   -0.51690      1.99974     6.50538    0.01177     8.51690
      C    3    0.31280      1.99880     3.66582    0.02258     5.68720
      C    4   -0.23264      1.99903     4.21939    0.01422     6.23264
      C    5   -0.25977      1.99912     4.24505    0.01559     6.25977
      C    6   -0.23769      1.99901     4.22500    0.01368     6.23769
      C    7    0.15868      1.99896     3.82386    0.01849     5.84132
      C    8   -0.34494      1.99895     4.33230    0.01368     6.34494
      N    9   -0.26419      1.99923     5.25027    0.01469     7.26419
      C   10    0.12867      1.99894     3.85399    0.01840     5.87133
      C   11   -0.28768      1.99902     4.27197    0.01669     6.28768
      C   12   -0.28498      1.99911     4.26933    0.01654     6.28498
      C   13   -0.18822      1.99910     4.17541    0.01371     6.18822
      C   14   -0.29810      1.99911     4.28201    0.01699     6.29810
      C   15   -0.26568      1.99902     4.25050    0.01616     6.26568
      C   16    0.13544      1.99894     3.84745    0.01817     5.86456
      C   17   -0.25080      1.99902     4.23695    0.01482     6.25080
      C   18   -0.28682      1.99911     4.27123    0.01648     6.28682
      C   19   -0.19130      1.99910     4.17849    0.01372     6.19130
      C   20   -0.26776      1.99911     4.25269    0.01596     6.26776
      C   21   -0.27394      1.99902     4.25832    0.01660     6.27394
      H   22    0.20800      0.00000     0.79026    0.00174     0.79200
      H   23    0.22975      0.00000     0.76973    0.00052     0.77025
      H   24    0.20411      0.00000     0.79415    0.00174     0.79589
      H   25    0.24977      0.00000     0.74908    0.00115     0.75023
      H   26    0.24322      0.00000     0.75603    0.00075     0.75678
      H   27    0.25466      0.00000     0.74451    0.00083     0.74534
      H   28    0.25703      0.00000     0.74202    0.00095     0.74297
      H   29    0.24099      0.00000     0.75803    0.00098     0.75901
      H   30    0.23283      0.00000     0.76633    0.00084     0.76717
      H   31    0.23296      0.00000     0.76620    0.00084     0.76704
      H   32    0.23305      0.00000     0.76613    0.00082     0.76695
      H   33    0.24476      0.00000     0.75424    0.00100     0.75524
      H   34    0.24498      0.00000     0.75410    0.00092     0.75502
      H   35    0.23581      0.00000     0.76337    0.00082     0.76419
      H   36    0.23566      0.00000     0.76352    0.00081     0.76434
      H   37    0.23704      0.00000     0.76214    0.00082     0.76296
      H   38    0.25043      0.00000     0.74866    0.00090     0.74957
 =======================================================================
   * Total *    0.00000     41.98089   103.66964    0.34947   146.00000

 Normal termination of Gaussian 09 at Wed Sep 29 06:40:13 2021.
