 Gaussian 09, Revision A.02,

 -----------------------------------
 #p opt b3lyp/6-31G* scf=(xqc,tight)
 -----------------------------------

 -------------------------------------
 COc1ccc(cc1)c1ccc(cc1)c1ccccc1_conf_0
 -------------------------------------
 Symbolic Z-matrix:
 Charge =  0 Multiplicity = 1

 SCF Done:  E(RB3LYP) =  -808.883939698     A.U. after   14 cycles
 SCF Done:  E(RB3LYP) =  -808.886188833     A.U. after   12 cycles
 SCF Done:  E(RB3LYP) =  -808.886460795     A.U. after   12 cycles
 SCF Done:  E(RB3LYP) =  -808.886490311     A.U. after   10 cycles
 SCF Done:  E(RB3LYP) =  -808.886493022     A.U. after    8 cycles
 SCF Done:  E(RB3LYP) =  -808.886493348     A.U. after    7 cycles
 SCF Done:  E(RB3LYP) =  -808.886493420     A.U. after    7 cycles
 SCF Done:  E(RB3LYP) =  -808.886493471     A.U. after    6 cycles
 Optimization completed.
    -- Stationary point found.
 Normal termination of Gaussian 09 at Thu Sep 30 20:54:18 2021.

 ----------------------------------------------------------------------
 #p freq b3lyp/6-31G* volume NMR pop=NPA density=current Geom=AllCheck
 Guess=Read
 ----------------------------------------------------------------------

 COc1ccc(cc1)c1ccc(cc1)c1ccccc1_conf_0
 -------------------------------------
 Redundant internal coordinates taken from checkpoint file:
 C19H16O_3e18_conf_0.chk
 Charge =  0 Multiplicity = 1

 SCF Done:  E(RB3LYP) =  -808.886493471     A.U. after    1 cycles

  1  C    Isotropic =   137.4432   Anisotropy =    65.1595

  2  O    Isotropic =   237.1251   Anisotropy =    80.0963

  3  C    Isotropic =    39.2904   Anisotropy =   127.0480

  4  C    Isotropic =    85.9687   Anisotropy =   142.5052

  5  C    Isotropic =    67.6882   Anisotropy =   152.8149

  6  C    Isotropic =    61.8362   Anisotropy =   164.8763

  7  C    Isotropic =    67.5148   Anisotropy =   153.0396

  8  C    Isotropic =    77.6632   Anisotropy =   134.8805

  9  C    Isotropic =    55.1306   Anisotropy =   175.3142

 10  C    Isotropic =    68.6323   Anisotropy =   150.3526

 11  C    Isotropic =    68.0808   Anisotropy =   151.2294

 12  C    Isotropic =    55.5772   Anisotropy =   173.7968

 13  C    Isotropic =    68.0508   Anisotropy =   151.3879

 14  C    Isotropic =    68.5646   Anisotropy =   150.9539

 15  C    Isotropic =    54.0109   Anisotropy =   176.5741

 16  C    Isotropic =    68.9879   Anisotropy =   154.6135

 17  C    Isotropic =    67.8118   Anisotropy =   164.6692

 18  C    Isotropic =    69.6346   Anisotropy =   164.7381

 19  C    Isotropic =    67.8112   Anisotropy =   164.6795

 20  C    Isotropic =    68.9729   Anisotropy =   154.6196

 21  H    Isotropic =    28.2669   Anisotropy =     8.1174

 22  H    Isotropic =    28.6023   Anisotropy =     7.9087

 23  H    Isotropic =    28.5971   Anisotropy =     8.0305

 24  H    Isotropic =    25.7100   Anisotropy =     7.5634

 25  H    Isotropic =    24.8656   Anisotropy =     8.8393

 26  H    Isotropic =    24.8473   Anisotropy =     8.4117

 27  H    Isotropic =    25.4065   Anisotropy =     5.9597

 28  H    Isotropic =    24.8332   Anisotropy =     8.8328

 29  H    Isotropic =    24.8083   Anisotropy =     8.6115

 30  H    Isotropic =    24.7932   Anisotropy =     8.5740

 31  H    Isotropic =    24.8322   Anisotropy =     8.8310

 32  H    Isotropic =    24.8091   Anisotropy =     8.6857

 33  H    Isotropic =    24.8938   Anisotropy =     4.9591

 34  H    Isotropic =    25.0381   Anisotropy =     4.0913

 35  H    Isotropic =    24.8927   Anisotropy =     4.9565

 36  H    Isotropic =    24.8065   Anisotropy =     8.6907

  Exact polarizability: 394.091   1.049 165.217   0.104   4.073 104.171
 Approx polarizability: 504.923  -2.780 304.525   3.760   6.839 173.656

                     1                      2                      3
                     A                      A                      A
 Frequencies --    29.5912                45.6417                51.9630
 Red. masses --     5.2175                 3.6626                 4.7736
 Frc consts  --     0.0027                 0.0045                 0.0076
 IR Inten    --     0.3048                 0.4651                 0.1529

                     4                      5                      6
                     A                      A                      A
 Frequencies --    81.2424                90.1369               112.7426
 Red. masses --     3.7650                 3.8133                 4.7233
 Frc consts  --     0.0146                 0.0183                 0.0354
 IR Inten    --     1.1640                 0.2304                 1.1051

                     7                      8                      9
                     A                      A                      A
 Frequencies --   125.9575               188.2775               202.0995
 Red. masses --     4.4758                 5.5281                 3.3374
 Frc consts  --     0.0418                 0.1155                 0.0803
 IR Inten    --     1.2474                 0.1021                 0.6193

                    10                     11                     12
                     A                      A                      A
 Frequencies --   230.1331               259.9450               285.4740
 Red. masses --     2.4696                 1.6657                 3.7157
 Frc consts  --     0.0771                 0.0663                 0.1784
 IR Inten    --     0.9906                 0.9568                 1.2966

                    13                     14                     15
                     A                      A                      A
 Frequencies --   352.6930               376.4811               416.7037
 Red. masses --     4.5690                 6.4371                 3.5048
 Frc consts  --     0.3349                 0.5376                 0.3586
 IR Inten    --     1.1714                 3.0246                 0.3348

                    16                     17                     18
                     A                      A                      A
 Frequencies --   418.3395               423.0607               427.9425
 Red. masses --     4.1195                 3.1225                 3.2073
 Frc consts  --     0.4248                 0.3293                 0.3461
 IR Inten    --     2.7039                 0.6978                 1.0132

                    19                     20                     21
                     A                      A                      A
 Frequencies --   442.7122               493.1301               529.6848
 Red. masses --     4.5937                 4.1143                 3.5352
 Frc consts  --     0.5305                 0.5895                 0.5844
 IR Inten    --     0.1229                 3.7194                 6.4106

                    22                     23                     24
                     A                      A                      A
 Frequencies --   546.9525               583.4296               591.1265
 Red. masses --     2.6437                 2.4635                 5.7380
 Frc consts  --     0.4660                 0.4941                 1.1813
 IR Inten    --     6.9996                 1.2221                 8.7507

                    25                     26                     27
                     A                      A                      A
 Frequencies --   633.0799               648.6480               660.0219
 Red. masses --     6.4053                 6.8418                 6.7104
 Frc consts  --     1.5125                 1.6961                 1.7223
 IR Inten    --     0.0325                 0.7341                 0.1502

                    28                     29                     30
                     A                      A                      A
 Frequencies --   682.0921               715.1116               727.8463
 Red. masses --     5.8875                 1.9439                 3.9610
 Frc consts  --     1.6139                 0.5857                 1.2363
 IR Inten    --    18.7623                19.6882                 0.9339

                    31                     32                     33
                     A                      A                      A
 Frequencies --   749.1193               773.2265               781.3318
 Red. masses --     3.0299                 5.7961                 2.0889
 Frc consts  --     1.0018                 2.0417                 0.7514
 IR Inten    --    12.3898                 0.2417                36.5121

                    34                     35                     36
                     A                      A                      A
 Frequencies --   825.0289               828.0353               842.4796
 Red. masses --     1.3625                 4.8388                 1.5390
 Frc consts  --     0.5464                 1.9547                 0.6436
 IR Inten    --    11.6872                 5.9435                58.9122

                    37                     38                     39
                     A                      A                      A
 Frequencies --   856.0726               861.8087               867.0462
 Red. masses --     1.2523                 1.2459                 1.7020
 Frc consts  --     0.5407                 0.5452                 0.7539
 IR Inten    --     0.7163                 0.1101                 5.4024

                    40                     41                     42
                     A                      A                      A
 Frequencies --   929.9806               947.1939               962.9589
 Red. masses --     1.4142                 1.3140                 1.2936
 Frc consts  --     0.7206                 0.6946                 0.7067
 IR Inten    --     1.1287                 0.3503                 0.2943

                    43                     44                     45
                     A                      A                      A
 Frequencies --   967.9475               970.5667               974.1665
 Red. masses --     1.3339                 1.3432                 1.2998
 Frc consts  --     0.7363                 0.7455                 0.7268
 IR Inten    --     0.3468                 0.1754                 0.0605

                    46                     47                     48
                     A                      A                      A
 Frequencies --   994.8699              1015.9602              1019.0674
 Red. masses --     1.2446                 6.0229                 5.4844
 Frc consts  --     0.7258                 3.6627                 3.3557
 IR Inten    --     0.1308                 6.1438                 5.8878

                    49                     50                     51
                     A                      A                      A
 Frequencies --  1024.5719              1039.2715              1059.0857
 Red. masses --     5.8867                 3.1182                 2.5833
 Frc consts  --     3.6409                 1.9843                 1.7072
 IR Inten    --     3.0902                 1.0549                 9.4174

                    52                     53                     54
                     A                      A                      A
 Frequencies --  1073.0665              1083.7387              1113.6104
 Red. masses --     2.0095                 3.9289                 1.6059
 Frc consts  --     1.3633                 2.7188                 1.1734
 IR Inten    --     4.3339                51.7827                 3.3360

                    55                     56                     57
                     A                      A                      A
 Frequencies --  1146.4177              1151.7383              1185.7759
 Red. masses --     1.3409                 1.3875                 1.2705
 Frc consts  --     1.0384                 1.0844                 1.0525
 IR Inten    --     8.4368                 2.6656                 0.7566

                    58                     59                     60
                     A                      A                      A
 Frequencies --  1193.1548              1212.4253              1216.1600
 Red. masses --     1.0963                 1.1579                 1.1397
 Frc consts  --     0.9195                 1.0029                 0.9932
 IR Inten    --     0.0596                46.2097                14.1940

                    61                     62                     63
                     A                      A                      A
 Frequencies --  1218.5991              1229.0453              1297.5837
 Red. masses --     1.3842                 1.1355                 4.3932
 Frc consts  --     1.2111                 1.0106                 4.3582
 IR Inten    --    12.1666                 5.8768               256.7259

                    64                     65                     66
                     A                      A                      A
 Frequencies --  1307.2704              1314.9332              1317.9541
 Red. masses --     3.3404                 4.6141                 2.5366
 Frc consts  --     3.3634                 4.7005                 2.5959
 IR Inten    --    65.4199                 6.2317                 0.6711

                    67                     68                     69
                     A                      A                      A
 Frequencies --  1325.4500              1347.2526              1350.4550
 Red. masses --     2.2178                 2.2539                 2.2405
 Frc consts  --     2.2956                 2.4103                 2.4075
 IR Inten    --    41.6245                33.0244                 3.2810

                    70                     71                     72
                     A                      A                      A
 Frequencies --  1359.7951              1369.8671              1446.5728
 Red. masses --     2.1495                 1.7814                 2.8660
 Frc consts  --     2.3417                 1.9695                 3.5336
 IR Inten    --    32.2071                 2.4271                 5.2090

                    73                     74                     75
                     A                      A                      A
 Frequencies --  1466.5864              1495.7508              1500.0464
 Red. masses --     2.9349                 2.3470                 1.2087
 Frc consts  --     3.7192                 3.0937                 1.6025
 IR Inten    --     2.0835                 2.4898                32.7773

                    76                     77                     78
                     A                      A                      A
 Frequencies --  1520.7642              1534.4845              1538.5244
 Red. masses --     1.0481                 1.1243                 1.9052
 Frc consts  --     1.4281                 1.5597                 2.6570
 IR Inten    --     5.4692               107.2111                44.3375

                    79                     80                     81
                     A                      A                      A
 Frequencies --  1557.4875              1576.5336              1600.5717
 Red. masses --     2.3345                 2.7536                 5.5316
 Frc consts  --     3.3365                 4.0324                 8.3493
 IR Inten    --    73.7671                27.2496                 2.4593

                    82                     83                     84
                     A                      A                      A
 Frequencies --  1627.4386              1638.3705              1660.9146
 Red. masses --     6.5262                 5.7823                 5.4868
 Frc consts  --    10.1840                 9.1448                 8.9179
 IR Inten    --    11.3833                 2.2803                35.9105

                    85                     86                     87
                     A                      A                      A
 Frequencies --  1666.8425              1674.2850              3025.1027
 Red. masses --     5.6547                 5.7789                 1.0348
 Frc consts  --     9.2565                 9.5445                 5.5793
 IR Inten    --    21.6042                56.4559                71.0077

                    88                     89                     90
                     A                      A                      A
 Frequencies --  3083.8055              3157.2061              3180.0452
 Red. masses --     1.1067                 1.0997                 1.0846
 Frc consts  --     6.2008                 6.4582                 6.4620
 IR Inten    --    43.7822                32.4418                 9.0508

                    91                     92                     93
                     A                      A                      A
 Frequencies --  3185.1871              3186.0561              3188.1404
 Red. masses --     1.0870                 1.0868                 1.0875
 Frc consts  --     6.4974                 6.4999                 6.5123
 IR Inten    --     2.1399                36.8529                 5.1431

                    94                     95                     96
                     A                      A                      A
 Frequencies --  3194.4239              3194.9259              3197.8063
 Red. masses --     1.0883                 1.0885                 1.0905
 Frc consts  --     6.5431                 6.5466                 6.5699
 IR Inten    --     3.1357                 1.6258                19.1971

                    97                     98                     99
                     A                      A                      A
 Frequencies --  3201.9964              3204.9841              3205.9400
 Red. masses --     1.0935                 1.0929                 1.0941
 Frc consts  --     6.6055                 6.6142                 6.6253
 IR Inten    --     9.5179                53.4555                 1.2996

                   100                    101                    102
                     A                      A                      A
 Frequencies --  3211.3832              3215.7653              3224.4207
 Red. masses --     1.0975                 1.0939                 1.0920
 Frc consts  --     6.6689                 6.6651                 6.6890
 IR Inten    --    24.1457                11.0182                16.0335

 - Thermochemistry -
 -------------------
 Temperature   298.150 Kelvin.  Pressure   1.00000 Atm.
 Atom     1 has atomic number  6 and mass  12.00000

 Molecular mass:   260.12012 amu.
 Principal axes and moments of inertia in atomic units:
                           1         2         3
     Eigenvalues --  1010.81033********************
           X            0.99999   0.00349  -0.00219
           Y           -0.00348   0.99999   0.00061
           Z            0.00219  -0.00060   1.00000
 This molecule is an asymmetric top.
 Rotational symmetry number  1.
 Warning -- assumption of classical behavior for rotation
           may cause significant error
 Rotational temperatures (Kelvin)      0.08569     0.00510     0.00495
 Rotational constants (GHZ):           1.78544     0.10627     0.10321
 Zero-point vibrational energy     776607.9 (Joules/Mol)
                                  185.61375 (Kcal/Mol)
 Warning -- explicit consideration of  24 degrees of freedom as
           vibrations may cause significant error
 Vibrational temperatures:     42.58    65.67    74.76   116.89   129.69
          (Kelvin)            162.21   181.22   270.89   290.78   331.11
                              374.00   410.73   507.45   541.67   599.54
                              601.90   608.69   615.71   636.96   709.50
                              762.10   786.94   839.42   850.50   910.86
                              933.26   949.62   981.38  1028.88  1047.21
                             1077.81  1112.50  1124.16  1187.03  1191.36
                             1212.14  1231.70  1239.95  1247.48  1338.03
                             1362.80  1385.48  1392.66  1396.43  1401.61
                             1431.39  1461.74  1466.21  1474.13  1495.28
                             1523.79  1543.90  1559.26  1602.23  1649.44
                             1657.09  1706.06  1716.68  1744.41  1749.78
                             1753.29  1768.32  1866.93  1880.87  1891.89
                             1896.24  1907.02  1938.39  1943.00  1956.44
                             1970.93  2081.29  2110.09  2152.05  2158.23
                             2188.04  2207.78  2213.59  2240.87  2268.28
                             2302.86  2341.52  2357.25  2389.68  2398.21
                             2408.92  4352.44  4436.90  4542.51  4575.37
                             4582.77  4584.02  4587.02  4596.06  4596.78
                             4600.92  4606.95  4611.25  4612.63  4620.46
                             4626.76  4639.22

 Zero-point correction=                           0.295794 (Hartree/Particle)
 Thermal correction to Energy=                    0.311961
 Thermal correction to Enthalpy=                  0.312905
 Thermal correction to Gibbs Free Energy=         0.250888
 Sum of electronic and zero-point Energies=           -808.590699
 Sum of electronic and thermal Energies=              -808.574532
 Sum of electronic and thermal Enthalpies=            -808.573588
 Sum of electronic and thermal Free Energies=         -808.635605

                     E (Thermal)             CV                S
                      KCal/Mol        Cal/Mol-Kelvin    Cal/Mol-Kelvin
 Total                  195.759             64.628            130.525
 Electronic               0.000              0.000              0.000
 Translational            0.889              2.981             42.568
 Rotational               0.889              2.981             34.061
 Vibrational            193.981             58.666             53.896
 Vibration     1          0.593              1.984              5.857
 Vibration     2          0.595              1.979              4.998
 Vibration     3          0.596              1.977              4.741
 Vibration     4          0.600              1.962              3.861
 Vibration     5          0.602              1.956              3.657
 Vibration     6          0.607              1.939              3.221
 Vibration     7          0.611              1.927              3.007
 Vibration     8          0.633              1.856              2.245
 Vibration     9          0.639              1.837              2.114
 Vibration    10          0.652              1.795              1.878
 Vibration    11          0.668              1.746              1.662
 Vibration    12          0.683              1.701              1.501
 Vibration    13          0.729              1.570              1.154
 Vibration    14          0.747              1.520              1.053
 Vibration    15          0.780              1.434              0.903
 Vibration    16          0.781              1.430              0.898
 Vibration    17          0.785              1.420              0.882
 Vibration    18          0.789              1.409              0.865
 Vibration    19          0.802              1.377              0.818
 Vibration    20          0.849              1.265              0.676
 Vibration    21          0.885              1.184              0.588
 Vibration    22          0.902              1.146              0.551
 Vibration    23          0.940              1.067              0.479
 Vibration    24          0.949              1.051              0.465

 Normal termination of Gaussian 09 at Thu Sep 30 22:21:05 2021.
 Gaussian 09:  AM64L-G09RevA.02 11-Jun-2009

 ----------------------------------------------------------------------
 #p TD(NStates=10, Root=1) b3lyp/6-31G* volume pop=NPA density=current
 Geom=AllCheck Guess=Read
 ----------------------------------------------------------------------

 COc1ccc(cc1)c1ccc(cc1)c1ccccc1_conf_0
 -------------------------------------
 Redundant internal coordinates taken from checkpoint file:
 C19H16O_3e18_conf_0.chk
 Charge =  0 Multiplicity = 1

                         Standard orientation:
 ---------------------------------------------------------------------
 Center     Atomic      Atomic             Coordinates (Angstroms)
 Number     Number       Type             X           Y           Z
 ---------------------------------------------------------------------
      1          6           0       -7.013832   -0.672889    0.454598
      2          8           0       -6.210160    0.300975   -0.191511
      3          6           0       -4.853211    0.174740   -0.111789
      4          6           0       -4.183814   -0.848667    0.568490
      5          6           0       -2.787956   -0.872288    0.581384
      6          6           0       -2.024303    0.104537   -0.072054
      7          6           0       -2.721455    1.123545   -0.750298
      8          6           0       -4.107942    1.162354   -0.772685
      9          6           0       -0.542149    0.069293   -0.049912
     10          6           0        0.161378   -1.146461   -0.097620
     11          6           0        1.552107   -1.178632   -0.073323
     12          6           0        2.307994    0.003557   -0.004942
     13          6           0        1.605716    1.219430    0.040199
     14          6           0        0.214908    1.251326    0.019982
     15          6           0        3.791663   -0.030841    0.018756
     16          6           0        4.506082   -0.965784   -0.750154
     17          6           0        5.899498   -0.999414   -0.726967
     18          6           0        6.612232   -0.097452    0.065236
     19          6           0        5.917158    0.837883    0.834086
     20          6           0        4.523700    0.870116    0.811296
     21          1           0       -8.048461   -0.383583    0.261203
     22          1           0       -6.838624   -0.687252    1.538611
     23          1           0       -6.836700   -1.677690    0.048335
     24          1           0       -4.731566   -1.620264    1.097498
     25          1           0       -2.285934   -1.658317    1.138669
     26          1           0       -2.164424    1.883385   -1.291209
     27          1           0       -4.640438    1.944057   -1.305608
     28          1           0       -0.389609   -2.080038   -0.172169
     29          1           0        2.061655   -2.138158   -0.092503
     30          1           0        2.157872    2.154598    0.075744
     31          1           0       -0.294338    2.209499    0.076593
     32          1           0        3.963216   -1.654651   -1.391464
     33          1           0        6.429682   -1.726559   -1.336659
     34          1           0        7.698445   -0.123141    0.083170
     35          1           0        6.460706    1.539742    1.461383
     36          1           0        3.993151    1.584460    1.434802
 ---------------------------------------------------------------------

 SCF Done:  E(RB3LYP) =  -808.886493471     A.U. after    2 cycles

 Excitation energies and oscillator strengths:

 Excited State   1:      Singlet-A      4.2047 eV  294.87 nm  f=0.9488  <S**2>=0.000
      69 -> 70         0.70311
 This state for optimization and/or second-order correction.
 Total Energy, E(TD-HF/TD-KS) =  -808.731973195
 Copying the excited state density for this state as the 1-particle RhoCI density.

 Excited State   2:      Singlet-A      4.6341 eV  267.55 nm  f=0.0014  <S**2>=0.000
      66 -> 70        -0.22045
      67 -> 70         0.21322
      69 -> 71         0.59464
      69 -> 73         0.16179

 Excited State   3:      Singlet-A      4.7742 eV  259.69 nm  f=0.0110  <S**2>=0.000
      65 -> 70         0.26805
      65 -> 74         0.12991
      67 -> 70         0.15958
      69 -> 71        -0.17428
      69 -> 72         0.50757
      69 -> 73         0.26670

 Excited State   4:      Singlet-A      4.8747 eV  254.34 nm  f=0.0008  <S**2>=0.000
      66 -> 70        -0.31051
      67 -> 70        -0.19814
      68 -> 72         0.13081
      68 -> 73        -0.11927
      69 -> 71        -0.11320
      69 -> 72        -0.29422
      69 -> 73         0.46008

 Excited State   5:      Singlet-A      5.0253 eV  246.72 nm  f=0.1267  <S**2>=0.000
      68 -> 70         0.63119
      69 -> 74        -0.29218

 Excited State   6:      Singlet-A      5.3035 eV  233.78 nm  f=0.0060  <S**2>=0.000
      64 -> 73        -0.10042
      66 -> 70         0.13669
      67 -> 70         0.50407
      68 -> 71        -0.13474
      68 -> 72        -0.19091
      69 -> 71        -0.16850
      69 -> 72        -0.29957
      69 -> 73         0.17598

 Excited State   7:      Singlet-A      5.3621 eV  231.22 nm  f=0.0099  <S**2>=0.000
      65 -> 70         0.13434
      65 -> 71         0.10136
      66 -> 70         0.11290
      68 -> 70         0.26295
      69 -> 74         0.58177

 Excited State   8:      Singlet-A      5.4118 eV  229.10 nm  f=0.0307  <S**2>=0.000
      65 -> 70         0.10484
      66 -> 70         0.45769
      67 -> 70        -0.14657
      68 -> 71         0.15438
      68 -> 73         0.24321
      69 -> 71         0.17035
      69 -> 73         0.31097
      69 -> 74        -0.13398

 Excited State   9:      Singlet-A      5.4777 eV  226.34 nm  f=0.0221  <S**2>=0.000
      65 -> 70         0.52903
      68 -> 71        -0.31331
      68 -> 72         0.11680
      69 -> 71         0.12870
      69 -> 72        -0.17104
      69 -> 73        -0.16914
      69 -> 74        -0.14761

 Excited State  10:      Singlet-A      5.7770 eV  214.62 nm  f=0.0453  <S**2>=0.000
      65 -> 70         0.25653
      65 -> 74        -0.11804
      66 -> 70        -0.10459
      67 -> 70         0.20651
      68 -> 71         0.54939
      69 -> 73        -0.11771

 The electronic state is 1-A.
 Alpha  occ. eigenvalues --  -19.17865 -10.24681 -10.24229 -10.19619 -10.19541
 Alpha  occ. eigenvalues --  -10.19476 -10.19124 -10.19014 -10.18888 -10.18799
 Alpha  occ. eigenvalues --  -10.18793 -10.18777 -10.18690 -10.18655 -10.18647
 Alpha  occ. eigenvalues --  -10.18635 -10.18633 -10.18575 -10.18563 -10.18387
 Alpha  occ. eigenvalues --   -1.06431  -0.86647  -0.85379  -0.83736  -0.78372
 Alpha  occ. eigenvalues --   -0.75349  -0.74735  -0.74335  -0.73691  -0.71817
 Alpha  occ. eigenvalues --   -0.68683  -0.62427  -0.62016  -0.60498  -0.58763
 Alpha  occ. eigenvalues --   -0.58363  -0.56615  -0.53635  -0.52352  -0.49808
 Alpha  occ. eigenvalues --   -0.48280  -0.47362  -0.46907  -0.45567  -0.44812
 Alpha  occ. eigenvalues --   -0.43699  -0.43461  -0.43087  -0.42259  -0.41863
 Alpha  occ. eigenvalues --   -0.41340  -0.40945  -0.39098  -0.38042  -0.36959
 Alpha  occ. eigenvalues --   -0.36306  -0.35332  -0.35143  -0.34630  -0.33266
 Alpha  occ. eigenvalues --   -0.33111  -0.32254  -0.31875  -0.27168  -0.25040
 Alpha  occ. eigenvalues --   -0.24774  -0.24709  -0.23359  -0.20008
 Alpha virt. eigenvalues --   -0.03205  -0.00300   0.00078   0.00421   0.01016
 Alpha virt. eigenvalues --    0.04925   0.09421   0.09897   0.10558   0.11447
 Alpha virt. eigenvalues --    0.12513   0.13644   0.13978   0.14273   0.15342

 Mulliken atomic charges:
              1
     1  C   -0.231201
     2  O   -0.470555
     3  C    0.378136
     4  C   -0.182819
     5  C   -0.176612
     6  C    0.105205
     7  C   -0.169965
     8  C   -0.163050
     9  C    0.067519
    10  C   -0.181917
    11  C   -0.183244
    12  C    0.080696
    13  C   -0.184138
    14  C   -0.181243
    15  C    0.074410
    16  C   -0.180517
    17  C   -0.134575
    18  C   -0.147237
    19  C   -0.134511
    20  C   -0.180560
    21  H    0.186444
    22  H    0.169580
    23  H    0.169073
    24  H    0.149951
    25  H    0.156866
    26  H    0.157388
    27  H    0.159335
    28  H    0.116285
    29  H    0.127467
    30  H    0.127735
    31  H    0.118165
    32  H    0.112833
    33  H    0.111985
    34  H    0.108124
    35  H    0.112040
    36  H    0.112909
 Sum of Mulliken atomic charges =  -0.00000

 Dipole moment (field-independent basis, Debye):
    X=             -9.8091    Y=             -0.9219    Z=              0.6288  Tot=              9.8723
 Quadrupole moment (field-independent basis, Debye-Ang):
   XX=            -92.5305   YY=           -108.4767   ZZ=           -117.7486
   XY=              7.5638   XZ=             -4.9340   YZ=             -0.7398

 Summary of Natural Population Analysis:

                                       Natural Population
                Natural  -----------------------------------------------
    Atom  No    Charge         Core      Valence    Rydberg      Total
 -----------------------------------------------------------------------
      C    1   -0.32498      1.99942     4.31131    0.01424     6.32498
      O    2   -0.46792      1.99975     6.45634    0.01184     8.46792
      C    3    0.33678      1.99878     3.64240    0.02204     5.66322
      C    4   -0.29053      1.99903     4.27917    0.01233     6.29053
      C    5   -0.19919      1.99906     4.18591    0.01421     6.19919
      C    6    0.02039      1.99902     3.96465    0.01594     5.97961
      C    7   -0.20873      1.99906     4.19629    0.01338     6.20873
      C    8   -0.24257      1.99904     4.22880    0.01473     6.24257
      C    9   -0.12587      1.99900     4.11064    0.01622     6.12587
      C   10   -0.21138      1.99906     4.19848    0.01385     6.21138
      C   11   -0.22909      1.99906     4.21592    0.01411     6.22909
      C   12   -0.04368      1.99901     4.02796    0.01672     6.04368
      C   13   -0.23094      1.99906     4.21770    0.01418     6.23094
      C   14   -0.20892      1.99906     4.19610    0.01376     6.20892
      C   15   -0.08951      1.99901     4.07430    0.01619     6.08951
      C   16   -0.23267      1.99905     4.22025    0.01337     6.23267
      C   17   -0.23585      1.99910     4.22241    0.01434     6.23585
      C   18   -0.27243      1.99909     4.25798    0.01536     6.27243
      C   19   -0.23575      1.99910     4.22231    0.01434     6.23575
      C   20   -0.23274      1.99905     4.22031    0.01338     6.23274
      H   21    0.23772      0.00000     0.76178    0.00050     0.76228
      H   22    0.21340      0.00000     0.78483    0.00177     0.78660
      H   23    0.21318      0.00000     0.78494    0.00187     0.78682
      H   24    0.24561      0.00000     0.75352    0.00087     0.75439
      H   25    0.24955      0.00000     0.74934    0.00111     0.75045
      H   26    0.25120      0.00000     0.74776    0.00104     0.74880
      H   27    0.25522      0.00000     0.74364    0.00115     0.74478
      H   28    0.22649      0.00000     0.77237    0.00114     0.77351
      H   29    0.23619      0.00000     0.76271    0.00110     0.76381
      H   30    0.23634      0.00000     0.76256    0.00110     0.76366
      H   31    0.22728      0.00000     0.77162    0.00110     0.77272
      H   32    0.22617      0.00000     0.77266    0.00117     0.77383
      H   33    0.22778      0.00000     0.77127    0.00095     0.77222
      H   34    0.22546      0.00000     0.77358    0.00096     0.77454
      H   35    0.22780      0.00000     0.77125    0.00095     0.77220
      H   36    0.22622      0.00000     0.77261    0.00118     0.77378
 =======================================================================
   * Total *   -0.00000     39.98183    97.70566    0.31251   138.00000

 Normal termination of Gaussian 09 at Fri Oct  1 04:15:40 2021.
