 Gaussian 09, Revision A.02,

 -----------------------------------
 #p opt b3lyp/6-31G* scf=(xqc,tight)
 -----------------------------------

 --------------------------------------------
 O=C(N(C)C)Oc1ccc2c(c1)ccc(c2)c1ccccc1_conf_0
 --------------------------------------------
 Symbolic Z-matrix:
 Charge =  0 Multiplicity = 1

 SCF Done:  E(RB3LYP) =  -939.487140188     A.U. after   15 cycles
 SCF Done:  E(RB3LYP) =  -939.493980823     A.U. after   12 cycles
 SCF Done:  E(RB3LYP) =  -939.494346195     A.U. after   12 cycles
 SCF Done:  E(RB3LYP) =  -939.494591247     A.U. after   12 cycles
 SCF Done:  E(RB3LYP) =  -939.494947662     A.U. after   11 cycles
 SCF Done:  E(RB3LYP) =  -939.495036893     A.U. after   11 cycles
 SCF Done:  E(RB3LYP) =  -939.495147480     A.U. after   10 cycles
 SCF Done:  E(RB3LYP) =  -939.495281277     A.U. after   11 cycles
 SCF Done:  E(RB3LYP) =  -939.495356284     A.U. after   11 cycles
 SCF Done:  E(RB3LYP) =  -939.495389981     A.U. after   11 cycles
 SCF Done:  E(RB3LYP) =  -939.495448048     A.U. after   10 cycles
 SCF Done:  E(RB3LYP) =  -939.495473588     A.U. after   10 cycles
 SCF Done:  E(RB3LYP) =  -939.495485417     A.U. after   10 cycles
 SCF Done:  E(RB3LYP) =  -939.495487701     A.U. after    9 cycles
 SCF Done:  E(RB3LYP) =  -939.495490848     A.U. after    9 cycles
 SCF Done:  E(RB3LYP) =  -939.495491357     A.U. after    8 cycles
 SCF Done:  E(RB3LYP) =  -939.495491521     A.U. after    8 cycles
 SCF Done:  E(RB3LYP) =  -939.495491557     A.U. after    7 cycles
 Optimization completed.
    -- Stationary point found.
 Normal termination of Gaussian 09 at Thu Sep 30 07:35:23 2021.

 ----------------------------------------------------------------------
 #p freq b3lyp/6-31G* volume NMR pop=NPA density=current Geom=AllCheck
 Guess=Read
 ----------------------------------------------------------------------

 O=C(N(C)C)Oc1ccc2c(c1)ccc(c2)c1ccccc1_conf_0
 --------------------------------------------
 Redundant internal coordinates taken from checkpoint file:
 C19H17NO2_13b5_conf_0.chk
 Charge =  0 Multiplicity = 1

 SCF Done:  E(RB3LYP) =  -939.495491557     A.U. after    1 cycles

  1  O    Isotropic =    68.1468   Anisotropy =   389.4599

  2  C    Isotropic =    47.0199   Anisotropy =    79.4488

  3  N    Isotropic =   179.6320   Anisotropy =    82.7952

  4  C    Isotropic =   155.2809   Anisotropy =    51.1530

  5  C    Isotropic =   155.6591   Anisotropy =    49.6287

  6  O    Isotropic =   146.3667   Anisotropy =   139.4531

  7  C    Isotropic =    46.7760   Anisotropy =   104.8941

  8  C    Isotropic =    75.9026   Anisotropy =   135.9615

  9  C    Isotropic =    66.7842   Anisotropy =   142.6420

 10  C    Isotropic =    65.8191   Anisotropy =   192.7330

 11  C    Isotropic =    63.4593   Anisotropy =   192.5115

 12  C    Isotropic =    75.7254   Anisotropy =   133.7022

 13  C    Isotropic =    66.6559   Anisotropy =   143.6676

 14  C    Isotropic =    69.5204   Anisotropy =   150.0455

 15  C    Isotropic =    56.7561   Anisotropy =   169.1371

 16  C    Isotropic =    69.1434   Anisotropy =   133.3109

 17  C    Isotropic =    53.7993   Anisotropy =   176.3291

 18  C    Isotropic =    68.4151   Anisotropy =   155.2682

 19  C    Isotropic =    67.7215   Anisotropy =   164.5964

 20  C    Isotropic =    69.6687   Anisotropy =   165.0009

 21  C    Isotropic =    67.7079   Anisotropy =   164.3646

 22  C    Isotropic =    68.5008   Anisotropy =   153.3985

 23  H    Isotropic =    28.0897   Anisotropy =     6.9524

 24  H    Isotropic =    29.8349   Anisotropy =     9.4366

 25  H    Isotropic =    29.8904   Anisotropy =     9.1803

 26  H    Isotropic =    28.1996   Anisotropy =     5.5556

 27  H    Isotropic =    29.7407   Anisotropy =     8.8960

 28  H    Isotropic =    29.5859   Anisotropy =     9.3141

 29  H    Isotropic =    25.2136   Anisotropy =     7.2102

 30  H    Isotropic =    24.5588   Anisotropy =     7.5662

 31  H    Isotropic =    24.2585   Anisotropy =    11.3657

 32  H    Isotropic =    24.5073   Anisotropy =     8.0678

 33  H    Isotropic =    24.6302   Anisotropy =     8.8519

 34  H    Isotropic =    24.5257   Anisotropy =    10.4661

 35  H    Isotropic =    24.7425   Anisotropy =     9.0095

 36  H    Isotropic =    24.8493   Anisotropy =     5.0080

 37  H    Isotropic =    24.9764   Anisotropy =     4.1792

 38  H    Isotropic =    24.8520   Anisotropy =     5.1171

 39  H    Isotropic =    24.6891   Anisotropy =     9.1264

  Exact polarizability: 401.090 -14.856 198.258  -4.026  -3.830  95.894
 Approx polarizability: 521.080 -35.018 364.252  -7.763 -10.507 154.224

                     1                      2                      3
                     A                      A                      A
 Frequencies --    21.7990                26.6931                46.7513
 Red. masses --     4.8714                 3.7253                 3.4849
 Frc consts  --     0.0014                 0.0016                 0.0045
 IR Inten    --     0.2168                 2.7533                 0.5774

                     4                      5                      6
                     A                      A                      A
 Frequencies --    59.4029                62.3789                68.8015
 Red. masses --     1.6919                 3.3998                 4.4347
 Frc consts  --     0.0035                 0.0078                 0.0124
 IR Inten    --     0.0625                 0.3094                 0.3079

                     7                      8                      9
                     A                      A                      A
 Frequencies --    96.9398               115.2402               138.9827
 Red. masses --     3.7422                 2.3508                 1.7619
 Frc consts  --     0.0207                 0.0184                 0.0201
 IR Inten    --     0.5008                 1.4119                 0.8390

                    10                     11                     12
                     A                      A                      A
 Frequencies --   153.2899               190.5137               193.7731
 Red. masses --     3.5974                 4.9544                 3.9201
 Frc consts  --     0.0498                 0.1059                 0.0867
 IR Inten    --     0.6282                 0.4819                 0.3364

                    13                     14                     15
                     A                      A                      A
 Frequencies --   225.8337               235.2781               279.5880
 Red. masses --     2.0981                 5.0851                 6.0550
 Frc consts  --     0.0630                 0.1658                 0.2789
 IR Inten    --     4.2108                 0.3965                 0.2131

                    16                     17                     18
                     A                      A                      A
 Frequencies --   309.7768               342.7409               386.9827
 Red. masses --     5.8012                 4.4138                 3.7309
 Frc consts  --     0.3280                 0.3055                 0.3292
 IR Inten    --     4.2657                 0.2240                17.4002

                    19                     20                     21
                     A                      A                      A
 Frequencies --   410.5247               415.2072               420.5720
 Red. masses --     4.0236                 4.2951                 3.0707
 Frc consts  --     0.3995                 0.4363                 0.3200
 IR Inten    --     1.2489                 0.6744                 0.1612

                    22                     23                     24
                     A                      A                      A
 Frequencies --   443.7738               459.6727               490.3492
 Red. masses --     3.4016                 4.2322                 2.6939
 Frc consts  --     0.3947                 0.5269                 0.3816
 IR Inten    --     4.5476                 6.3719                 6.8664

                    25                     26                     27
                     A                      A                      A
 Frequencies --   528.5605               530.1784               579.3632
 Red. masses --     4.0485                 5.7119                 5.4245
 Frc consts  --     0.6664                 0.9460                 1.0728
 IR Inten    --     4.9573                 2.4253                 1.7295

                    28                     29                     30
                     A                      A                      A
 Frequencies --   590.8768               626.3695               634.1000
 Red. masses --     3.8842                 5.4252                 6.3080
 Frc consts  --     0.7990                 1.2541                 1.4944
 IR Inten    --     2.0057                 3.7210                 0.3203

                    31                     32                     33
                     A                      A                      A
 Frequencies --   651.5717               678.3838               706.8916
 Red. masses --     5.9683                 4.1399                 6.2082
 Frc consts  --     1.4929                 1.1225                 1.8278
 IR Inten    --     3.8473                 4.8823                 8.9379

                    34                     35                     36
                     A                      A                      A
 Frequencies --   715.5580               737.1636               764.7366
 Red. masses --     1.8294                12.0490                 2.8787
 Frc consts  --     0.5519                 3.8577                 0.9919
 IR Inten    --    22.7542                19.3926                 4.5753

                    37                     38                     39
                     A                      A                      A
 Frequencies --   775.4696               778.6657               823.7147
 Red. masses --     4.9405                 2.1199                 1.6891
 Frc consts  --     1.7505                 0.7573                 0.6752
 IR Inten    --     7.7498                23.4438                18.3003

                    40                     41                     42
                     A                      A                      A
 Frequencies --   831.8677               835.8470               858.8023
 Red. masses --     1.5434                 3.5309                 4.2416
 Frc consts  --     0.6293                 1.4534                 1.8432
 IR Inten    --     6.9701                 2.0662                26.0336

                    43                     44                     45
                     A                      A                      A
 Frequencies --   862.0455               898.1360               911.4449
 Red. masses --     1.2575                 1.6131                 1.4422
 Frc consts  --     0.5506                 0.7666                 0.7059
 IR Inten    --     0.2048                20.7037                22.9154

                    46                     47                     48
                     A                      A                      A
 Frequencies --   932.6128               936.5718               959.4460
 Red. masses --     1.6848                 3.6340                 1.2942
 Frc consts  --     0.8634                 1.8781                 0.7019
 IR Inten    --     5.9991                16.5501                 0.6423

                    49                     50                     51
                     A                      A                      A
 Frequencies --   970.0008               974.0762               984.2992
 Red. masses --     1.3406                 1.3082                 3.9698
 Frc consts  --     0.7432                 0.7313                 2.2661
 IR Inten    --     1.0675                 0.2979                14.3672

                    52                     53                     54
                     A                      A                      A
 Frequencies --   995.5758              1017.1986              1043.7011
 Red. masses --     1.2501                 5.9555                 2.8667
 Frc consts  --     0.7300                 3.6306                 1.8398
 IR Inten    --     0.1787                 0.5869                 5.3723

                    55                     56                     57
                     A                      A                      A
 Frequencies --  1048.0247              1071.8075              1093.9846
 Red. masses --     3.0267                 1.8998                 1.3656
 Frc consts  --     1.9586                 1.2858                 0.9629
 IR Inten    --     5.0947                 1.7621                 8.4842

                    58                     59                     60
                     A                      A                      A
 Frequencies --  1114.3968              1143.7168              1156.4954
 Red. masses --     1.5958                 1.2171                 1.4994
 Frc consts  --     1.1676                 0.9380                 1.1816
 IR Inten    --     3.1090                 0.2829                 4.0704

                    61                     62                     63
                     A                      A                      A
 Frequencies --  1180.1817              1188.9740              1192.3732
 Red. masses --     1.5920                 1.4300                 1.3426
 Frc consts  --     1.3065                 1.1911                 1.1246
 IR Inten    --   108.5150               156.0976                60.0848

                    64                     65                     66
                     A                      A                      A
 Frequencies --  1193.6637              1203.9648              1217.9002
 Red. masses --     1.1587                 2.2179                 1.1607
 Frc consts  --     0.9727                 1.8942                 1.0144
 IR Inten    --    36.2273               788.1428                 9.7600

                    67                     68                     69
                     A                      A                      A
 Frequencies --  1232.2262              1276.4456              1297.4488
 Red. masses --     2.2109                 2.6817                 3.6262
 Frc consts  --     1.9779                 2.5743                 3.5965
 IR Inten    --   160.7520               228.0765                11.3284

                    70                     71                     72
                     A                      A                      A
 Frequencies --  1301.6864              1311.1246              1330.2194
 Red. masses --     2.2609                 2.3748                 2.9875
 Frc consts  --     2.2571                 2.4053                 3.1147
 IR Inten    --    10.2171                15.6267                 1.4180

                    73                     74                     75
                     A                      A                      A
 Frequencies --  1367.9690              1379.2699              1416.8751
 Red. masses --     1.8806                 1.9514                 3.9674
 Frc consts  --     2.0734                 2.1873                 4.6926
 IR Inten    --     2.3977                 4.0934                19.7563

                    76                     77                     78
                     A                      A                      A
 Frequencies --  1425.3764              1439.1045              1450.1222
 Red. masses --     4.4727                 2.7877                 4.0206
 Frc consts  --     5.3540                 3.4015                 4.9814
 IR Inten    --   183.5484               268.6886                 2.6724

                    79                     80                     81
                     A                      A                      A
 Frequencies --  1460.1691              1489.7864              1494.9657
 Red. masses --     1.1859                 1.2158                 2.3512
 Frc consts  --     1.4898                 1.5899                 3.0960
 IR Inten    --    34.6161                80.7458                 4.8013

                    82                     83                     84
                     A                      A                      A
 Frequencies --  1519.1143              1524.3487              1530.7724
 Red. masses --     1.0497                 2.2277                 1.0504
 Frc consts  --     1.4272                 3.0498                 1.4502
 IR Inten    --     3.2553                 3.2770                13.9686

                    85                     86                     87
                     A                      A                      A
 Frequencies --  1531.2974              1548.4285              1555.6974
 Red. masses --     1.0465                 2.5126                 3.2426
 Frc consts  --     1.4459                 3.5494                 4.6238
 IR Inten    --    18.7662                66.7832                 4.9138

                    88                     89                     90
                     A                      A                      A
 Frequencies --  1565.5504              1623.1612              1636.5581
 Red. masses --     1.2447                 6.4432                 5.6948
 Frc consts  --     1.7975                10.0017                 8.9865
 IR Inten    --    48.2503                 0.6648                 5.2353

                    91                     92                     93
                     A                      A                      A
 Frequencies --  1660.8764              1661.9263              1684.4516
 Red. masses --     5.7632                 5.5119                 6.2904
 Frc consts  --     9.3668                 8.9696                10.5159
 IR Inten    --    72.8740                 3.8098                 9.6558

                    94                     95                     96
                     A                      A                      A
 Frequencies --  1816.0628              3028.2600              3035.6577
 Red. masses --    10.8549                 1.0417                 1.0424
 Frc consts  --    21.0930                 5.6282                 5.6594
 IR Inten    --   360.4778                28.4646               139.1467

                    97                     98                     99
                     A                      A                      A
 Frequencies --  3076.4323              3080.7633              3180.0665
 Red. masses --     1.1019                 1.1039                 1.0847
 Frc consts  --     6.1443                 6.1728                 6.4628
 IR Inten    --    61.4576                13.7339                 8.1542

                   100                    101                    102
                     A                      A                      A
 Frequencies --  3183.7510              3184.3581              3187.4351
 Red. masses --     1.0870                 1.0891                 1.0879
 Frc consts  --     6.4918                 6.5068                 6.5121
 IR Inten    --     5.0494                 5.5118                11.3780

                   103                    104                    105
                     A                      A                      A
 Frequencies --  3189.2846              3195.4623              3197.4752
 Red. masses --     1.0885                 1.0961                 1.0911
 Frc consts  --     6.5236                 6.5943                 6.5723
 IR Inten    --     9.4324                 0.8485                19.2214

                   106                    107                    108
                     A                      A                      A
 Frequencies --  3202.7857              3205.5815              3211.3105
 Red. masses --     1.0941                 1.0936                 1.0977
 Frc consts  --     6.6128                 6.6210                 6.6693
 IR Inten    --    14.9108                34.6896                24.7630

                   109                    110                    111
                     A                      A                      A
 Frequencies --  3211.9909              3216.3889              3253.1477
 Red. masses --     1.0943                 1.0940                 1.0915
 Frc consts  --     6.6516                 6.6684                 6.8060
 IR Inten    --     3.5037                12.0324                 1.9134

 - Thermochemistry -
 -------------------
 Temperature   298.150 Kelvin.  Pressure   1.00000 Atm.
 Atom     1 has atomic number  8 and mass  15.99491

 Molecular mass:   291.12593 amu.
 Principal axes and moments of inertia in atomic units:
                           1         2         3
     Eigenvalues --  1453.18069********************
           X            1.00000  -0.00079  -0.00132
           Y            0.00078   1.00000  -0.00240
           Z            0.00132   0.00240   1.00000
 This molecule is an asymmetric top.
 Rotational symmetry number  1.
 Warning -- assumption of classical behavior for rotation
           may cause significant error
 Rotational temperatures (Kelvin)      0.05960     0.00448     0.00423
 Rotational constants (GHZ):           1.24192     0.09328     0.08814
 Zero-point vibrational energy     830835.0 (Joules/Mol)
                                  198.57433 (Kcal/Mol)
 Warning -- explicit consideration of  28 degrees of freedom as
           vibrations may cause significant error
 Vibrational temperatures:     31.36    38.41    67.26    85.47    89.75
          (Kelvin)             98.99   139.47   165.80   199.96   220.55
                              274.11   278.80   324.92   338.51   402.26
                              445.70   493.13   556.78   590.65   597.39
                              605.11   638.49   661.37   705.50   760.48
                              762.81   833.57   850.14   901.20   912.33
                              937.47   976.04  1017.06  1029.53  1060.61
                             1100.28  1115.73  1120.32  1185.14  1196.87
                             1202.60  1235.62  1240.29  1292.22  1311.36
                             1341.82  1347.52  1380.43  1395.61  1401.48
                             1416.19  1432.41  1463.52  1501.65  1507.87
                             1542.09  1574.00  1603.37  1645.55  1663.94
                             1698.02  1710.67  1715.56  1717.41  1732.23
                             1752.28  1772.90  1836.52  1866.74  1872.83
                             1886.41  1913.89  1968.20  1984.46  2038.56
                             2050.80  2070.55  2086.40  2100.86  2143.47
                             2150.92  2185.66  2193.20  2202.44  2203.19
                             2227.84  2238.30  2252.47  2335.36  2354.64
                             2389.63  2391.14  2423.55  2612.91  4356.99
                             4367.63  4426.29  4432.53  4575.40  4580.70
                             4581.58  4586.00  4588.66  4597.55  4600.45
                             4608.09  4612.11  4620.35  4621.33  4627.66
                             4680.55

 Zero-point correction=                           0.316448 (Hartree/Particle)
 Thermal correction to Energy=                    0.335519
 Thermal correction to Enthalpy=                  0.336463
 Thermal correction to Gibbs Free Energy=         0.266701
 Sum of electronic and zero-point Energies=           -939.179043
 Sum of electronic and thermal Energies=              -939.159972
 Sum of electronic and thermal Enthalpies=            -939.159028
 Sum of electronic and thermal Free Energies=         -939.228790

                     E (Thermal)             CV                S
                      KCal/Mol        Cal/Mol-Kelvin    Cal/Mol-Kelvin
 Total                  210.542             73.163            146.827
 Electronic               0.000              0.000              0.000
 Translational            0.889              2.981             42.903
 Rotational               0.889              2.981             34.709
 Vibrational            208.764             67.202             69.215
 Vibration     1          0.593              1.985              6.463
 Vibration     2          0.593              1.984              6.061
 Vibration     3          0.595              1.979              4.950
 Vibration     4          0.597              1.974              4.477
 Vibration     5          0.597              1.972              4.380
 Vibration     6          0.598              1.969              4.187
 Vibration     7          0.603              1.951              3.515
 Vibration     8          0.608              1.937              3.179
 Vibration     9          0.615              1.914              2.818
 Vibration    10          0.619              1.899              2.631
 Vibration    11          0.634              1.853              2.223
 Vibration    12          0.635              1.849              2.191
 Vibration    13          0.650              1.802              1.912
 Vibration    14          0.655              1.787              1.838
 Vibration    15          0.680              1.711              1.536
 Vibration    16          0.699              1.655              1.364
 Vibration    17          0.722              1.590              1.199
 Vibration    18          0.755              1.498              1.012
 Vibration    19          0.775              1.447              0.925
 Vibration    20          0.779              1.437              0.908
 Vibration    21          0.783              1.426              0.890
 Vibration    22          0.803              1.375              0.815
 Vibration    23          0.818              1.339              0.767
 Vibration    24          0.846              1.271              0.683
 Vibration    25          0.884              1.187              0.590
 Vibration    26          0.885              1.183              0.587
 Vibration    27          0.936              1.076              0.487
 Vibration    28          0.948              1.051              0.466

 Normal termination of Gaussian 09 at Thu Sep 30 10:16:50 2021.
 Gaussian 09:  AM64L-G09RevA.02 11-Jun-2009

 ----------------------------------------------------------------------
 #p TD(NStates=10, Root=1) b3lyp/6-31G* volume pop=NPA density=current
 Geom=AllCheck Guess=Read
 ----------------------------------------------------------------------

 O=C(N(C)C)Oc1ccc2c(c1)ccc(c2)c1ccccc1_conf_0
 --------------------------------------------
 Redundant internal coordinates taken from checkpoint file:
 C19H17NO2_13b5_conf_0.chk
 Charge =  0 Multiplicity = 1

                         Standard orientation:
 ---------------------------------------------------------------------
 Center     Atomic      Atomic             Coordinates (Angstroms)
 Number     Number       Type             X           Y           Z
 ---------------------------------------------------------------------
      1          8           0       -4.025876   -1.494266   -0.611871
      2          6           0       -4.453577   -0.438843   -0.184694
      3          7           0       -5.769100   -0.160523    0.054390
      4          6           0       -6.760847   -1.174832   -0.266610
      5          6           0       -6.281189    1.120851    0.515656
      6          8           0       -3.665743    0.648408    0.128462
      7          6           0       -2.280585    0.592507    0.017096
      8          6           0       -1.681175    1.801367   -0.411648
      9          6           0       -0.312676    1.900068   -0.487506
     10          6           0        0.518821    0.799772   -0.143854
     11          6           0       -0.103213   -0.417790    0.281580
     12          6           0       -1.517816   -0.498599    0.365463
     13          6           0        0.733147   -1.516462    0.617505
     14          6           0        2.101308   -1.417630    0.536286
     15          6           0        2.735263   -0.211730    0.114744
     16          6           0        1.932928    0.867813   -0.216446
     17          6           0        4.215451   -0.127263    0.032918
     18          6           0        4.978413   -1.221389   -0.410172
     19          6           0        6.367722   -1.140610   -0.493616
     20          6           0        7.027114    0.036301   -0.134668
     21          6           0        6.283347    1.131228    0.309480
     22          6           0        4.894442    1.049167    0.394135
     23          1           0       -6.247982   -2.084398   -0.574882
     24          1           0       -7.415321   -0.833970   -1.080511
     25          1           0       -7.384359   -1.384810    0.611825
     26          1           0       -5.460694    1.779137    0.789323
     27          1           0       -6.924026    0.969182    1.392285
     28          1           0       -6.882165    1.603163   -0.267984
     29          1           0       -2.324751    2.635470   -0.673086
     30          1           0        0.148847    2.828394   -0.814850
     31          1           0       -1.986156   -1.422001    0.679945
     32          1           0        0.271292   -2.443024    0.949613
     33          1           0        2.718522   -2.264245    0.822932
     34          1           0        2.387429    1.790329   -0.569475
     35          1           0        4.475332   -2.134116   -0.717322
     36          1           0        6.935417   -1.997285   -0.847622
     37          1           0        8.110094    0.098997   -0.198452
     38          1           0        6.786386    2.049432    0.601701
     39          1           0        4.327529    1.896715    0.769210
 ---------------------------------------------------------------------

 SCF Done:  E(RB3LYP) =  -939.495491557     A.U. after    1 cycles

 Excitation energies and oscillator strengths:

 Excited State   1:      Singlet-A      4.0585 eV  305.49 nm  f=0.1439  <S**2>=0.000
      76 -> 78         0.19135
      76 -> 79         0.12727
      77 -> 78         0.61903
      77 -> 79        -0.22866
 This state for optimization and/or second-order correction.
 Total Energy, E(TD-HF/TD-KS) =  -939.346345271
 Copying the excited state density for this state as the 1-particle RhoCI density.

 Excited State   2:      Singlet-A      4.2012 eV  295.11 nm  f=0.0801  <S**2>=0.000
      76 -> 78        -0.42601
      77 -> 78         0.30267
      77 -> 79         0.46232

 Excited State   3:      Singlet-A      4.8462 eV  255.84 nm  f=0.0117  <S**2>=0.000
      74 -> 78        -0.40811
      74 -> 79        -0.15701
      76 -> 80         0.10623
      77 -> 80         0.51932

 Excited State   4:      Singlet-A      4.9222 eV  251.89 nm  f=1.1761  <S**2>=0.000
      73 -> 78        -0.11900
      76 -> 78         0.49737
      77 -> 79         0.45041
      77 -> 81        -0.10381

 Excited State   5:      Singlet-A      5.0655 eV  244.76 nm  f=0.0018  <S**2>=0.000
      73 -> 78         0.17327
      75 -> 78         0.64977
      77 -> 81        -0.16907

 Excited State   6:      Singlet-A      5.1671 eV  239.95 nm  f=0.0116  <S**2>=0.000
      74 -> 78         0.53129
      76 -> 80        -0.11724
      77 -> 80         0.42554

 Excited State   7:      Singlet-A      5.1961 eV  238.61 nm  f=0.0024  <S**2>=0.000
      73 -> 78         0.57091
      75 -> 78        -0.24653
      76 -> 79         0.20264
      77 -> 81        -0.21799

 Excited State   8:      Singlet-A      5.3225 eV  232.94 nm  f=0.0264  <S**2>=0.000
      76 -> 79         0.54044
      77 -> 81         0.41641

 Excited State   9:      Singlet-A      5.5109 eV  224.98 nm  f=0.0005  <S**2>=0.000
      73 -> 80         0.11900
      74 -> 78        -0.15798
      74 -> 79         0.47685
      76 -> 80        -0.43107
      77 -> 80         0.15593

 Excited State  10:      Singlet-A      5.6114 eV  220.95 nm  f=0.0096  <S**2>=0.000
      71 -> 78         0.11642
      72 -> 78         0.59057
      75 -> 79         0.18936
      76 -> 81        -0.10016
      77 -> 82         0.24687

 The electronic state is 1-A.
 Alpha  occ. eigenvalues --  -19.19738 -19.11797 -14.37204 -10.33560 -10.25093
 Alpha  occ. eigenvalues --  -10.22430 -10.21864 -10.19679 -10.19667 -10.19638
 Alpha  occ. eigenvalues --  -10.19501 -10.19294 -10.19203 -10.18818 -10.18801
 Alpha  occ. eigenvalues --  -10.18789 -10.18747 -10.18721 -10.18719 -10.18668
 Alpha  occ. eigenvalues --  -10.18661 -10.18579  -1.10731  -1.01652  -0.94347
 Alpha  occ. eigenvalues --   -0.87333  -0.85290  -0.82037  -0.77478  -0.76454
 Alpha  occ. eigenvalues --   -0.74185  -0.73291  -0.72727  -0.71997  -0.69558
 Alpha  occ. eigenvalues --   -0.64322  -0.62098  -0.60814  -0.59440  -0.58733
 Alpha  occ. eigenvalues --   -0.56052  -0.53567  -0.52199  -0.50991  -0.49600
 Alpha  occ. eigenvalues --   -0.48896  -0.47976  -0.46962  -0.45420  -0.44706
 Alpha  occ. eigenvalues --   -0.44285  -0.43920  -0.43018  -0.42511  -0.41907
 Alpha  occ. eigenvalues --   -0.41588  -0.41006  -0.40850  -0.40710  -0.39940
 Alpha  occ. eigenvalues --   -0.38853  -0.37917  -0.37660  -0.36451  -0.35779
 Alpha  occ. eigenvalues --   -0.34403  -0.33876  -0.33275  -0.32510  -0.30609
 Alpha  occ. eigenvalues --   -0.28360  -0.27138  -0.25410  -0.24759  -0.24476
 Alpha  occ. eigenvalues --   -0.22771  -0.20356
 Alpha virt. eigenvalues --   -0.03998  -0.01859   0.00154   0.01758   0.03716
 Alpha virt. eigenvalues --    0.05320   0.08939   0.09867   0.10001   0.10719
 Alpha virt. eigenvalues --    0.11865   0.12750   0.13114   0.14153   0.14478

 Mulliken atomic charges:
              1
     1  O   -0.504576
     2  C    0.785795
     3  N   -0.434130
     4  C   -0.318783
     5  C   -0.317173
     6  O   -0.541748
     7  C    0.365981
     8  C   -0.188114
     9  C   -0.221483
    10  C    0.163203
    11  C    0.137095
    12  C   -0.234544
    13  C   -0.214536
    14  C   -0.189691
    15  C    0.103603
    16  C   -0.278346
    17  C    0.086529
    18  C   -0.161951
    19  C   -0.133880
    20  C   -0.120414
    21  C   -0.132883
    22  C   -0.164246
    23  H    0.207169
    24  H    0.156744
    25  H    0.155837
    26  H    0.200732
    27  H    0.158046
    28  H    0.158045
    29  H    0.123932
    30  H    0.121304
    31  H    0.159274
    32  H    0.126182
    33  H    0.120542
    34  H    0.125163
    35  H    0.145297
    36  H    0.137833
    37  H    0.138403
    38  H    0.137462
    39  H    0.142328
 Sum of Mulliken atomic charges =  -0.00000

 Dipole moment (field-independent basis, Debye):
    X=             -0.5579    Y=              1.4400    Z=              0.8168  Tot=              1.7470
 Quadrupole moment (field-independent basis, Debye-Ang):
   XX=            -76.6662   YY=           -120.7683   ZZ=           -131.0254
   XY=             -5.0041   XZ=             -4.7691   YZ=             -1.4951

 Summary of Natural Population Analysis:

                                       Natural Population
                Natural  -----------------------------------------------
    Atom  No    Charge         Core      Valence    Rydberg      Total
 -----------------------------------------------------------------------
      O    1   -0.64254      1.99978     6.62363    0.01914     8.64254
      C    2    0.94138      1.99937     3.01449    0.04476     5.05862
      N    3   -0.48174      1.99932     5.47143    0.01098     7.48174
      C    4   -0.46966      1.99947     4.45830    0.01190     6.46966
      C    5   -0.47105      1.99946     4.46010    0.01149     6.47105
      O    6   -0.53644      1.99969     6.52647    0.01028     8.53644
      C    7    0.35442      1.99871     3.62491    0.02196     5.64558
      C    8   -0.30940      1.99903     4.29452    0.01585     6.30940
      C    9   -0.23439      1.99907     4.21994    0.01539     6.23439
      C   10   -0.04045      1.99903     4.02636    0.01506     6.04045
      C   11   -0.02634      1.99903     4.01236    0.01495     6.02634
      C   12   -0.27670      1.99896     4.26321    0.01453     6.27670
      C   13   -0.23177      1.99906     4.21697    0.01574     6.23177
      C   14   -0.25907      1.99907     4.24549    0.01452     6.25907
      C   15   -0.01216      1.99901     3.99710    0.01604     6.01216
      C   16   -0.22501      1.99901     4.21150    0.01450     6.22501
      C   17   -0.03015      1.99901     4.01544    0.01570     6.03015
      C   18   -0.20162      1.99905     4.18980    0.01277     6.20162
      C   19   -0.23258      1.99910     4.21939    0.01409     6.23258
      C   20   -0.21112      1.99909     4.19819    0.01383     6.21112
      C   21   -0.23043      1.99910     4.21730    0.01402     6.23043
      C   22   -0.20875      1.99904     4.19663    0.01307     6.20875
      H   23    0.26407      0.00000     0.73442    0.00151     0.73593
      H   24    0.22019      0.00000     0.77838    0.00142     0.77981
      H   25    0.22158      0.00000     0.77715    0.00127     0.77842
      H   26    0.25782      0.00000     0.74135    0.00082     0.74218
      H   27    0.22377      0.00000     0.77479    0.00143     0.77623
      H   28    0.22098      0.00000     0.77741    0.00162     0.77902
      H   29    0.24028      0.00000     0.75863    0.00109     0.75972
      H   30    0.23061      0.00000     0.76829    0.00110     0.76939
      H   31    0.25740      0.00000     0.74113    0.00147     0.74260
      H   32    0.23299      0.00000     0.76593    0.00107     0.76701
      H   33    0.23232      0.00000     0.76673    0.00095     0.76768
      H   34    0.22906      0.00000     0.76954    0.00140     0.77094
      H   35    0.24360      0.00000     0.75506    0.00134     0.75640
      H   36    0.24046      0.00000     0.75870    0.00083     0.75954
      H   37    0.23842      0.00000     0.76073    0.00085     0.76158
      H   38    0.24022      0.00000     0.75893    0.00085     0.75978
      H   39    0.24181      0.00000     0.75683    0.00136     0.75819
 =======================================================================
   * Total *    0.00000     43.98147   109.64755    0.37098   154.00000

 Normal termination of Gaussian 09 at Thu Sep 30 17:45:40 2021.
