 Gaussian 09, Revision A.02,

 -----------------------------------
 #p opt b3lyp/6-31G* scf=(xqc,tight)
 -----------------------------------

 ----------------------------------------
 CCN(C(=O)Oc1c2ccccc2cc2c1cccc2)CC_conf_0
 ----------------------------------------
 Symbolic Z-matrix:
 Charge =  0 Multiplicity = 1

 SCF Done:  E(RB3LYP) =  -940.684796529     A.U. after   16 cycles
 SCF Done:  E(RB3LYP) =  -940.699100008     A.U. after   14 cycles
 SCF Done:  E(RB3LYP) =  -940.703287762     A.U. after   15 cycles
 SCF Done:  E(RB3LYP) =  -940.704301743     A.U. after   17 cycles
 SCF Done:  E(RB3LYP) =  -940.704453692     A.U. after   12 cycles
 SCF Done:  E(RB3LYP) =  -940.705051809     A.U. after   13 cycles
 SCF Done:  E(RB3LYP) =  -940.705223440     A.U. after   12 cycles
 SCF Done:  E(RB3LYP) =  -940.705266075     A.U. after   12 cycles
 SCF Done:  E(RB3LYP) =  -940.705271743     A.U. after   11 cycles
 SCF Done:  E(RB3LYP) =  -940.705274829     A.U. after   10 cycles
 SCF Done:  E(RB3LYP) =  -940.705275399     A.U. after    8 cycles
 SCF Done:  E(RB3LYP) =  -940.705275957     A.U. after    7 cycles
 SCF Done:  E(RB3LYP) =  -940.705276232     A.U. after    7 cycles
 SCF Done:  E(RB3LYP) =  -940.705276292     A.U. after    7 cycles
 Optimization completed.
    -- Stationary point found.
 Normal termination of Gaussian 09 at Wed Sep 29 19:02:32 2021.

 ----------------------------------------------------------------------
 #p freq b3lyp/6-31G* volume NMR pop=NPA density=current Geom=AllCheck
 Guess=Read
 ----------------------------------------------------------------------

 CCN(C(=O)Oc1c2ccccc2cc2c1cccc2)CC_conf_0
 ----------------------------------------
 Redundant internal coordinates taken from checkpoint file:
 C19H19NO2_3761_conf_0.chk
 Charge =  0 Multiplicity = 1

 SCF Done:  E(RB3LYP) =  -940.705276292     A.U. after    1 cycles

  1  C    Isotropic =   175.6670   Anisotropy =    21.5684

  2  C    Isotropic =   146.4392   Anisotropy =    43.4245

  3  N    Isotropic =   159.0257   Anisotropy =    71.1309

  4  C    Isotropic =    45.4749   Anisotropy =    71.5239

  5  O    Isotropic =    54.0392   Anisotropy =   369.2676

  6  O    Isotropic =   153.5555   Anisotropy =   171.9444

  7  C    Isotropic =    50.0934   Anisotropy =    88.4251

  8  C    Isotropic =    69.9077   Anisotropy =   180.8997

  9  C    Isotropic =    71.7354   Anisotropy =   157.7396

 10  C    Isotropic =    70.5785   Anisotropy =   159.5938

 11  C    Isotropic =    70.6332   Anisotropy =   159.7807

 12  C    Isotropic =    67.1398   Anisotropy =   142.6903

 13  C    Isotropic =    64.5958   Anisotropy =   192.3251

 14  C    Isotropic =    70.3876   Anisotropy =   123.8125

 15  C    Isotropic =    64.6974   Anisotropy =   192.3524

 16  C    Isotropic =    70.3928   Anisotropy =   180.0286

 17  C    Isotropic =    72.1303   Anisotropy =   157.5875

 18  C    Isotropic =    70.6369   Anisotropy =   159.6906

 19  C    Isotropic =    70.6605   Anisotropy =   159.3772

 20  C    Isotropic =    67.0750   Anisotropy =   142.8400

 21  C    Isotropic =   147.0472   Anisotropy =    39.9319

 22  C    Isotropic =   174.2506   Anisotropy =    22.6055

 23  H    Isotropic =    31.3729   Anisotropy =    11.1351

 24  H    Isotropic =    30.9691   Anisotropy =     6.9906

 25  H    Isotropic =    30.6269   Anisotropy =     6.3440

 26  H    Isotropic =    29.3920   Anisotropy =     7.0237

 27  H    Isotropic =    28.2970   Anisotropy =     5.9665

 28  H    Isotropic =    24.1191   Anisotropy =    11.0883

 29  H    Isotropic =    24.7540   Anisotropy =     6.7639

 30  H    Isotropic =    24.7582   Anisotropy =     5.0597

 31  H    Isotropic =    24.3405   Anisotropy =     7.2925

 32  H    Isotropic =    24.1343   Anisotropy =     8.5876

 33  H    Isotropic =    24.1558   Anisotropy =    11.2266

 34  H    Isotropic =    24.7442   Anisotropy =     6.7218

 35  H    Isotropic =    24.7992   Anisotropy =     5.0183

 36  H    Isotropic =    24.3483   Anisotropy =     7.2834

 37  H    Isotropic =    27.9853   Anisotropy =     4.7725

 38  H    Isotropic =    29.0982   Anisotropy =     6.7909

 39  H    Isotropic =    30.3697   Anisotropy =     7.3038

 40  H    Isotropic =    31.2009   Anisotropy =    10.4235

 41  H    Isotropic =    30.7525   Anisotropy =     7.4477

  Exact polarizability: 251.214   3.754 306.541  17.229   9.928 113.075
 Approx polarizability: 388.767   5.336 521.180  42.880  24.492 178.994

                     1                      2                      3
                     A                      A                      A
 Frequencies --    17.3510                27.4566                46.3916
 Red. masses --     4.0794                 4.1441                 3.7011
 Frc consts  --     0.0007                 0.0018                 0.0047
 IR Inten    --     0.0689                 0.8884                 0.4092

                     4                      5                      6
                     A                      A                      A
 Frequencies --    66.6994                73.3365                86.6402
 Red. masses --     2.7131                 3.2523                 4.3476
 Frc consts  --     0.0071                 0.0103                 0.0192
 IR Inten    --     0.1922                 0.4622                 2.2956

                     7                      8                      9
                     A                      A                      A
 Frequencies --    89.0033               109.8040               124.8598
 Red. masses --     6.3105                 4.0003                 3.6840
 Frc consts  --     0.0295                 0.0284                 0.0338
 IR Inten    --     1.2481                 0.0291                 0.0138

                    10                     11                     12
                     A                      A                      A
 Frequencies --   178.3309               182.6436               229.5773
 Red. masses --     2.8974                 3.9406                 1.0934
 Frc consts  --     0.0543                 0.0775                 0.0340
 IR Inten    --     0.1186                 1.1479                 0.5478

                    13                     14                     15
                     A                      A                      A
 Frequencies --   238.6068               244.1208               283.9849
 Red. masses --     4.8357                 1.4698                 2.6084
 Frc consts  --     0.1622                 0.0516                 0.1239
 IR Inten    --     0.0010                 0.9175                 0.7634

                    16                     17                     18
                     A                      A                      A
 Frequencies --   307.2949               320.7600               330.0258
 Red. masses --     5.8008                 4.0251                 3.0900
 Frc consts  --     0.3227                 0.2440                 0.1983
 IR Inten    --     1.5689                 0.4871                 1.3041

                    19                     20                     21
                     A                      A                      A
 Frequencies --   366.7128               401.0258               418.1667
 Red. masses --     2.9146                 6.3080                 3.6388
 Frc consts  --     0.2309                 0.5977                 0.3749
 IR Inten    --    14.0391                 0.0364                 3.1125

                    22                     23                     24
                     A                      A                      A
 Frequencies --   429.5631               437.4746               485.2922
 Red. masses --     5.5084                 3.1497                 2.8907
 Frc consts  --     0.5989                 0.3552                 0.4011
 IR Inten    --     0.5146                 3.7446                 0.0141

                    25                     26                     27
                     A                      A                      A
 Frequencies --   502.9810               507.0576               557.5196
 Red. masses --     3.2149                 3.6548                 3.3392
 Frc consts  --     0.4792                 0.5536                 0.6115
 IR Inten    --     4.0897                 0.0289                 6.0334

                    28                     29                     30
                     A                      A                      A
 Frequencies --   581.0321               595.4774               618.4274
 Red. masses --     5.9832                 4.2412                 5.2263
 Frc consts  --     1.1901                 0.8861                 1.1777
 IR Inten    --     0.3388                 2.4164                 6.3948

                    31                     32                     33
                     A                      A                      A
 Frequencies --   626.3802               653.5555               663.3708
 Red. masses --     6.9558                 5.5772                 4.5692
 Frc consts  --     1.6080                 1.4036                 1.1847
 IR Inten    --     6.2921                 2.0628                 4.1801

                    34                     35                     36
                     A                      A                      A
 Frequencies --   722.3212               744.1828               751.0079
 Red. masses --     5.4061                 9.3776                 1.3036
 Frc consts  --     1.6619                 3.0598                 0.4332
 IR Inten    --     1.6557                17.0661                52.6005

                    37                     38                     39
                     A                      A                      A
 Frequencies --   755.1617               773.9216               778.9000
 Red. masses --     4.0419                 1.3447                 2.7511
 Frc consts  --     1.3580                 0.4745                 0.9834
 IR Inten    --     0.3470                 0.2092                16.1284

                    40                     41                     42
                     A                      A                      A
 Frequencies --   795.3837               798.6722               839.7300
 Red. masses --     1.1861                 1.3836                 2.0793
 Frc consts  --     0.4421                 0.5200                 0.8639
 IR Inten    --     5.4125                 8.7822                 2.4018

                    43                     44                     45
                     A                      A                      A
 Frequencies --   865.3856               869.6098               875.2320
 Red. masses --     1.9148                 1.5694                 4.4749
 Frc consts  --     0.8449                 0.6992                 2.0197
 IR Inten    --     9.7384                 0.2874                 0.4297

                    46                     47                     48
                     A                      A                      A
 Frequencies --   880.4020               896.5908               943.8217
 Red. masses --     5.3865                 1.6589                 6.6448
 Frc consts  --     2.4599                 0.7857                 3.4875
 IR Inten    --     7.1301                21.2345                 0.6537

                    49                     50                     51
                     A                      A                      A
 Frequencies --   944.5115               958.3327               961.4047
 Red. masses --     2.5132                 1.3159                 1.3661
 Frc consts  --     1.3210                 0.7121                 0.7440
 IR Inten    --    17.2348                 0.1226                 2.5530

                    52                     53                     54
                     A                      A                      A
 Frequencies --   964.5435               988.7540               990.3453
 Red. masses --     2.4423                 1.2702                 1.2791
 Frc consts  --     1.3387                 0.7316                 0.7392
 IR Inten    --    23.0125                 0.0595                 0.1823

                    55                     56                     57
                     A                      A                      A
 Frequencies --  1041.6815              1044.4359              1044.5865
 Red. masses --     2.7795                 2.7832                 2.1745
 Frc consts  --     1.7770                 1.7888                 1.3980
 IR Inten    --     1.3919                 2.9315                 4.9626

                    58                     59                     60
                     A                      A                      A
 Frequencies --  1100.8226              1105.9692              1120.0631
 Red. masses --     2.2793                 2.5824                 2.0584
 Frc consts  --     1.6274                 1.8610                 1.5215
 IR Inten    --    93.9759                82.3437                26.4037

                    61                     62                     63
                     A                      A                      A
 Frequencies --  1128.0011              1137.0918              1180.6307
 Red. masses --     1.7337                 2.1968                 1.6456
 Frc consts  --     1.2997                 1.6735                 1.3515
 IR Inten    --    14.3781                 0.3385               216.3334

                    64                     65                     66
                     A                      A                      A
 Frequencies --  1181.3539              1193.3552              1202.8952
 Red. masses --     1.6826                 1.3130                 1.1396
 Frc consts  --     1.3836                 1.1017                 0.9715
 IR Inten    --   235.1589                 8.7121                 0.7830

                    67                     68                     69
                     A                      A                      A
 Frequencies --  1214.1365              1259.7187              1261.2255
 Red. masses --     1.3118                 1.6953                 2.7759
 Frc consts  --     1.1393                 1.5850                 2.6016
 IR Inten    --     0.8591                 1.4749                43.7438

                    70                     71                     72
                     A                      A                      A
 Frequencies --  1298.6778              1302.7278              1318.5457
 Red. masses --     2.0361                 1.8022                 2.2258
 Frc consts  --     2.0233                 1.8020                 2.2799
 IR Inten    --    22.8627               344.3067                 3.4479

                    73                     74                     75
                     A                      A                      A
 Frequencies --  1356.9802              1375.1936              1383.5464
 Red. masses --     1.3030                 2.8901                 3.8355
 Frc consts  --     1.4136                 3.2203                 4.3257
 IR Inten    --    35.2488                 0.9237                98.3326

                    76                     77                     78
                     A                      A                      A
 Frequencies --  1400.9133              1421.7608              1423.8305
 Red. masses --     1.2779                 1.2807                 4.4002
 Frc consts  --     1.4776                 1.5252                 5.2558
 IR Inten    --    19.0881                 9.7930                 3.3988

                    79                     80                     81
                     A                      A                      A
 Frequencies --  1426.8128              1437.3339              1439.9790
 Red. masses --     1.6935                 1.3167                 1.2586
 Frc consts  --     2.0312                 1.6027                 1.5377
 IR Inten    --     0.1396                17.1213                23.0074

                    82                     83                     84
                     A                      A                      A
 Frequencies --  1445.7248              1468.7401              1494.5869
 Red. masses --     4.3848                 2.5784                 2.0527
 Frc consts  --     5.3997                 3.2771                 2.7016
 IR Inten    --   107.8285                77.6568                 5.5062

                    85                     86                     87
                     A                      A                      A
 Frequencies --  1501.2899              1506.9614              1520.5988
 Red. masses --     2.7865                 1.0699                 1.0458
 Frc consts  --     3.7003                 1.4315                 1.4247
 IR Inten    --     0.0136                 6.6244                 2.8604

                    88                     89                     90
                     A                      A                      A
 Frequencies --  1522.4493              1526.6872              1534.2944
 Red. masses --     1.0652                 1.0970                 1.3373
 Frc consts  --     1.4547                 1.5065                 1.8547
 IR Inten    --     1.2391                23.9977                 7.1786

                    91                     92                     93
                     A                      A                      A
 Frequencies --  1534.6218              1537.4249              1589.7078
 Red. masses --     1.2881                 1.4191                 5.9841
 Frc consts  --     1.7873                 1.9763                 8.9101
 IR Inten    --     6.3478                16.3272                 1.3294

                    94                     95                     96
                     A                      A                      A
 Frequencies --  1610.1415              1635.7442              1682.7769
 Red. masses --     7.3102                 5.5342                 6.1233
 Frc consts  --    11.1663                 8.7244                10.2162
 IR Inten    --     1.9329                 2.4037                 0.6144

                    97                     98                     99
                     A                      A                      A
 Frequencies --  1687.4222              1822.2539              3051.7010
 Red. masses --     5.6290                11.4833                 1.0365
 Frc consts  --     9.4434                22.4665                 5.6874
 IR Inten    --     9.2567               360.1773                16.9736

                   100                    101                    102
                     A                      A                      A
 Frequencies --  3053.6224              3061.6193              3071.3808
 Red. masses --     1.0358                 1.0683                 1.0682
 Frc consts  --     5.6908                 5.9001                 5.9369
 IR Inten    --    17.2359                27.4375                37.9529

                   103                    104                    105
                     A                      A                      A
 Frequencies --  3112.5877              3116.1579              3131.7894
 Red. masses --     1.1018                 1.1019                 1.0984
 Frc consts  --     6.2894                 6.3045                 6.3475
 IR Inten    --    19.2197                19.8172                23.8827

                   106                    107                    108
                     A                      A                      A
 Frequencies --  3133.6174              3145.6480              3147.2767
 Red. masses --     1.0979                 1.1021                 1.1018
 Frc consts  --     6.3521                 6.4251                 6.4302
 IR Inten    --    20.5557                17.6576                41.6279

                   109                    110                    111
                     A                      A                      A
 Frequencies --  3178.2579              3180.9405              3182.7919
 Red. masses --     1.0885                 1.0859                 1.0873
 Frc consts  --     6.4781                 6.4736                 6.4897
 IR Inten    --     1.6855                 0.0392                 6.2753

                   112                    113                    114
                     A                      A                      A
 Frequencies --  3191.8641              3192.2168              3206.3664
 Red. masses --     1.0894                 1.0895                 1.0948
 Frc consts  --     6.5391                 6.5412                 6.6316
 IR Inten    --     4.8027                28.7071                48.8410

                   115                    116                    117
                     A                      A                      A
 Frequencies --  3206.7584              3223.8101              3225.2429
 Red. masses --     1.0949                 1.0937                 1.0936
 Frc consts  --     6.6337                 6.6971                 6.7025
 IR Inten    --    26.6739                20.6381                16.2707

 - Thermochemistry -
 -------------------
 Temperature   298.150 Kelvin.  Pressure   1.00000 Atm.
 Atom     1 has atomic number  6 and mass  12.00000

 Molecular mass:   293.14158 amu.
 Principal axes and moments of inertia in atomic units:
                           1         2         3
     Eigenvalues --  4965.361637810.60629**********
           X            0.99999   0.00071   0.00448
           Y           -0.00068   0.99997  -0.00788
           Z           -0.00448   0.00788   0.99996
 This molecule is an asymmetric top.
 Rotational symmetry number  1.
 Warning -- assumption of classical behavior for rotation
           may cause significant error
 Rotational temperatures (Kelvin)      0.01744     0.01109     0.00767
 Rotational constants (GHZ):           0.36347     0.23106     0.15986
 Zero-point vibrational energy     892034.3 (Joules/Mol)
                                  213.20130 (Kcal/Mol)
 Warning -- explicit consideration of  30 degrees of freedom as
           vibrations may cause significant error
 Vibrational temperatures:     24.96    39.50    66.75    95.97   105.51
          (Kelvin)            124.66   128.06   157.98   179.65   256.58
                              262.78   330.31   343.30   351.23   408.59
                              442.13   461.50   474.83   527.62   576.99
                              601.65   618.04   629.43   698.23   723.68
                              729.54   802.15   835.97   856.76   889.78
                              901.22   940.32   954.44  1039.26  1070.71
                             1080.53  1086.51  1113.50  1120.66  1144.38
                             1149.11  1208.18  1245.10  1251.17  1259.26
                             1266.70  1289.99  1357.95  1358.94  1378.83
                             1383.25  1387.76  1422.59  1424.88  1498.75
                             1502.71  1502.93  1583.84  1591.24  1611.52
                             1622.94  1636.02  1698.66  1699.70  1716.97
                             1730.70  1746.87  1812.45  1814.62  1868.51
                             1874.33  1897.09  1952.39  1978.59  1990.61
                             2015.60  2045.59  2048.57  2052.86  2068.00
                             2071.81  2080.07  2113.19  2150.37  2160.02
                             2168.18  2187.80  2190.46  2196.56  2207.50
                             2207.98  2212.01  2287.23  2316.63  2353.47
                             2421.14  2427.82  2621.81  4390.71  4393.48
                             4404.98  4419.03  4478.31  4483.45  4505.94
                             4508.57  4525.88  4528.22  4572.80  4576.66
                             4579.32  4592.37  4592.88  4613.24  4613.80
                             4638.34  4640.40

 Zero-point correction=                           0.339758 (Hartree/Particle)
 Thermal correction to Energy=                    0.359169
 Thermal correction to Enthalpy=                  0.360113
 Thermal correction to Gibbs Free Energy=         0.290129
 Sum of electronic and zero-point Energies=           -940.365518
 Sum of electronic and thermal Energies=              -940.346107
 Sum of electronic and thermal Enthalpies=            -940.345163
 Sum of electronic and thermal Free Energies=         -940.415148

                     E (Thermal)             CV                S
                      KCal/Mol        Cal/Mol-Kelvin    Cal/Mol-Kelvin
 Total                  225.382             75.336            147.294
 Electronic               0.000              0.000              0.000
 Translational            0.889              2.981             42.924
 Rotational               0.889              2.981             34.437
 Vibrational            223.604             69.375             69.934
 Vibration     1          0.593              1.986              6.916
 Vibration     2          0.593              1.984              6.005
 Vibration     3          0.595              1.979              4.966
 Vibration     4          0.598              1.970              4.248
 Vibration     5          0.599              1.967              4.062
 Vibration     6          0.601              1.959              3.735
 Vibration     7          0.602              1.957              3.682
 Vibration     8          0.606              1.941              3.272
 Vibration     9          0.610              1.928              3.024
 Vibration    10          0.629              1.869              2.346
 Vibration    11          0.630              1.863              2.301
 Vibration    12          0.652              1.796              1.882
 Vibration    13          0.657              1.781              1.813
 Vibration    14          0.659              1.772              1.773
 Vibration    15          0.682              1.703              1.510
 Vibration    16          0.697              1.660              1.377
 Vibration    17          0.706              1.634              1.306
 Vibration    18          0.713              1.616              1.260
 Vibration    19          0.740              1.541              1.094
 Vibration    20          0.767              1.468              0.959
 Vibration    21          0.781              1.431              0.898
 Vibration    22          0.791              1.406              0.860
 Vibration    23          0.798              1.388              0.835
 Vibration    24          0.841              1.283              0.696
 Vibration    25          0.858              1.243              0.651
 Vibration    26          0.862              1.234              0.641
 Vibration    27          0.913              1.123              0.529
 Vibration    28          0.938              1.072              0.483
 Vibration    29          0.953              1.041              0.458
 Vibration    30          0.978              0.993              0.419

 Optimization completed.
    -- Stationary point found.
 Normal termination of Gaussian 09 at Wed Sep 29 22:35:41 2021.
 Gaussian 09:  AM64L-G09RevA.02 11-Jun-2009

 ----------------------------------------------------------------------
 #p TD(NStates=10, Root=1) b3lyp/6-31G* volume pop=NPA density=current
 Geom=AllCheck Guess=Read
 ----------------------------------------------------------------------

 CCN(C(=O)Oc1c2ccccc2cc2c1cccc2)CC_conf_0
 ----------------------------------------
 Redundant internal coordinates taken from checkpoint file:
 C19H19NO2_3761_conf_0.chk
 Charge =  0 Multiplicity = 1

                         Standard orientation:
 ---------------------------------------------------------------------
 Center     Atomic      Atomic             Coordinates (Angstroms)
 Number     Number       Type             X           Y           Z
 ---------------------------------------------------------------------
      1          6           0        4.507376    1.253202   -1.485623
      2          6           0        4.057445   -0.144202   -1.052810
      3          7           0        2.994285   -0.117529   -0.042366
      4          6           0        1.708041   -0.084356   -0.490070
      5          8           0        1.360316   -0.050295   -1.653171
      6          8           0        0.817922   -0.102361    0.575157
      7          6           0       -0.541073   -0.012965    0.272060
      8          6           0       -1.267567   -1.196513    0.077310
      9          6           0       -0.664539   -2.491485    0.107577
     10          6           0       -1.417614   -3.618692   -0.090223
     11          6           0       -2.819168   -3.523657   -0.330668
     12          6           0       -3.432360   -2.299818   -0.363694
     13          6           0       -2.688582   -1.095538   -0.160892
     14          6           0       -3.296273    0.164621   -0.186593
     15          6           0       -2.562170    1.337854    0.019594
     16          6           0       -1.140469    1.254998    0.259637
     17          6           0       -0.406607    2.461684    0.476308
     18          6           0       -1.036952    3.677885    0.452039
     19          6           0       -2.438805    3.764899    0.210410
     20          6           0       -3.175326    2.629462    0.001900
     21          6           0        3.366789   -0.120598    1.376135
     22          6           0        3.488340   -1.526682    1.970492
     23          1           0        5.315653    1.182354   -2.222756
     24          1           0        4.875872    1.838041   -0.634691
     25          1           0        3.672044    1.792217   -1.942618
     26          1           0        4.897562   -0.707620   -0.631029
     27          1           0        3.684571   -0.700017   -1.915816
     28          1           0        0.401216   -2.568414    0.292449
     29          1           0       -0.945609   -4.597133   -0.065128
     30          1           0       -3.398023   -4.429838   -0.486954
     31          1           0       -4.501503   -2.220571   -0.545365
     32          1           0       -4.366555    0.233677   -0.368378
     33          1           0        0.659506    2.398393    0.664975
     34          1           0       -0.466470    4.587706    0.617994
     35          1           0       -2.919530    4.739217    0.193689
     36          1           0       -4.245482    2.689295   -0.181316
     37          1           0        2.630212    0.460169    1.934147
     38          1           0        4.323215    0.408751    1.458031
     39          1           0        2.521981   -2.039553    1.942238
     40          1           0        3.815806   -1.471749    3.015279
     41          1           0        4.216722   -2.131563    1.418597
 ---------------------------------------------------------------------

 SCF Done:  E(RB3LYP) =  -940.705276292     A.U. after    1 cycles

 Excitation energies and oscillator strengths:

 Excited State   1:      Singlet-A      3.2048 eV  386.88 nm  f=0.0908  <S**2>=0.000
      78 -> 79         0.70076
 This state for optimization and/or second-order correction.
 Total Energy, E(TD-HF/TD-KS) =  -940.587503583
 Copying the excited state density for this state as the 1-particle RhoCI density.

 Excited State   2:      Singlet-A      3.8820 eV  319.39 nm  f=0.0002  <S**2>=0.000
      76 -> 79        -0.12097
      77 -> 79        -0.48896
      78 -> 80         0.49396

 Excited State   3:      Singlet-A      4.3175 eV  287.17 nm  f=0.0008  <S**2>=0.000
      76 -> 79         0.67394
      77 -> 79        -0.20508

 Excited State   4:      Singlet-A      4.5571 eV  272.07 nm  f=0.0000  <S**2>=0.000
      75 -> 79         0.57219
      78 -> 81         0.41103

 Excited State   5:      Singlet-A      4.9311 eV  251.44 nm  f=0.0002  <S**2>=0.000
      75 -> 79        -0.40062
      78 -> 81         0.56004

 Excited State   6:      Singlet-A      4.9508 eV  250.43 nm  f=0.0034  <S**2>=0.000
      74 -> 79         0.69937

 Excited State   7:      Singlet-A      5.2502 eV  236.15 nm  f=1.7032  <S**2>=0.000
      76 -> 79         0.16902
      77 -> 79         0.46450
      78 -> 80         0.50205

 Excited State   8:      Singlet-A      5.4321 eV  228.24 nm  f=0.0006  <S**2>=0.000
      73 -> 79         0.58927
      78 -> 82        -0.37177

 Excited State   9:      Singlet-A      5.5770 eV  222.32 nm  f=0.0004  <S**2>=0.000
      72 -> 79         0.34476
      75 -> 80         0.44142
      76 -> 80         0.18781
      77 -> 81         0.31279
      78 -> 82        -0.11569
      78 -> 84        -0.16299

 Excited State  10:      Singlet-A      5.6212 eV  220.57 nm  f=0.0288  <S**2>=0.000
      71 -> 79         0.69524

 The electronic state is 1-A.
 Alpha  occ. eigenvalues --  -19.19069 -19.11342 -14.36377 -10.32768 -10.24652
 Alpha  occ. eigenvalues --  -10.22795 -10.22218 -10.19847 -10.19833 -10.19793
 Alpha  occ. eigenvalues --  -10.19774 -10.19018 -10.18986 -10.18979 -10.18939
 Alpha  occ. eigenvalues --  -10.18934 -10.18899 -10.18888 -10.18836 -10.18809
 Alpha  occ. eigenvalues --  -10.18469 -10.17929  -1.10155  -1.01095  -0.93988
 Alpha  occ. eigenvalues --   -0.87603  -0.84659  -0.79831  -0.78165  -0.77200
 Alpha  occ. eigenvalues --   -0.74947  -0.74529  -0.73699  -0.70281  -0.66004
 Alpha  occ. eigenvalues --   -0.64542  -0.63897  -0.61791  -0.60145  -0.58885
 Alpha  occ. eigenvalues --   -0.55576  -0.53216  -0.52852  -0.52585  -0.49368
 Alpha  occ. eigenvalues --   -0.48805  -0.46994  -0.46270  -0.45948  -0.45023
 Alpha  occ. eigenvalues --   -0.44543  -0.44231  -0.43452  -0.42674  -0.42223
 Alpha  occ. eigenvalues --   -0.41237  -0.40844  -0.39722  -0.39338  -0.38912
 Alpha  occ. eigenvalues --   -0.38433  -0.37724  -0.37579  -0.37246  -0.35816
 Alpha  occ. eigenvalues --   -0.35696  -0.34999  -0.34564  -0.33871  -0.33061
 Alpha  occ. eigenvalues --   -0.29994  -0.29901  -0.28806  -0.26842  -0.25293
 Alpha  occ. eigenvalues --   -0.24065  -0.23723  -0.18979
 Alpha virt. eigenvalues --   -0.06011  -0.01067   0.00914   0.04922   0.05415
 Alpha virt. eigenvalues --    0.06749   0.07526   0.09494   0.09963   0.10821
 Alpha virt. eigenvalues --    0.11623   0.12932   0.13680   0.14079   0.14541

 Mulliken atomic charges:
              1
     1  C   -0.444740
     2  C   -0.144875
     3  N   -0.444318
     4  C    0.791855
     5  O   -0.505047
     6  O   -0.579865
     7  C    0.168826
     8  C    0.150131
     9  C   -0.192788
    10  C   -0.138756
    11  C   -0.131806
    12  C   -0.200740
    13  C    0.142869
    14  C   -0.283179
    15  C    0.142827
    16  C    0.150583
    17  C   -0.193973
    18  C   -0.137743
    19  C   -0.132103
    20  C   -0.201648
    21  C   -0.142625
    22  C   -0.447417
    23  H    0.147620
    24  H    0.143227
    25  H    0.176040
    26  H    0.143147
    27  H    0.182910
    28  H    0.140852
    29  H    0.129754
    30  H    0.130437
    31  H    0.130646
    32  H    0.132452
    33  H    0.134681
    34  H    0.128960
    35  H    0.129955
    36  H    0.130072
    37  H    0.177002
    38  H    0.149145
    39  H    0.168897
    40  H    0.148695
    41  H    0.150038
 Sum of Mulliken atomic charges =  -0.00000

 Dipole moment (field-independent basis, Debye):
    X=              1.7318    Y=             -0.1113    Z=              1.8870  Tot=              2.5637
 Quadrupole moment (field-independent basis, Debye-Ang):
   XX=           -104.4786   YY=           -117.4061   ZZ=           -135.1951
   XY=             -0.4757   XZ=              4.8010   YZ=              0.8927

 Summary of Natural Population Analysis:

                                       Natural Population
                Natural  -----------------------------------------------
    Atom  No    Charge         Core      Valence    Rydberg      Total
 -----------------------------------------------------------------------
      C    1   -0.68873      1.99945     4.68185    0.00743     6.68873
      C    2   -0.25426      1.99935     4.23951    0.01539     6.25426
      N    3   -0.50478      1.99929     5.49198    0.01352     7.50478
      C    4    0.93635      1.99936     3.01774    0.04655     5.06365
      O    5   -0.63421      1.99977     6.61520    0.01924     8.63421
      O    6   -0.57001      1.99970     6.56019    0.01013     8.57001
      C    7    0.36597      1.99861     3.61158    0.02384     5.63403
      C    8   -0.07810      1.99894     4.06433    0.01484     6.07810
      C    9   -0.20916      1.99906     4.19475    0.01535     6.20916
      C   10   -0.22749      1.99910     4.21355    0.01484     6.22749
      C   11   -0.22927      1.99910     4.21544    0.01473     6.22927
      C   12   -0.21113      1.99906     4.19750    0.01457     6.21113
      C   13   -0.05130      1.99903     4.03734    0.01492     6.05130
      C   14   -0.17103      1.99901     4.15844    0.01358     6.17103
      C   15   -0.05064      1.99903     4.03668    0.01493     6.05064
      C   16   -0.07822      1.99894     4.06452    0.01477     6.07822
      C   17   -0.21402      1.99906     4.19971    0.01525     6.21402
      C   18   -0.22843      1.99910     4.21446    0.01486     6.22843
      C   19   -0.22939      1.99910     4.21555    0.01473     6.22939
      C   20   -0.21374      1.99906     4.20009    0.01460     6.21374
      C   21   -0.25905      1.99934     4.24451    0.01519     6.25905
      C   22   -0.68712      1.99945     4.68018    0.00749     6.68712
      H   23    0.23511      0.00000     0.76402    0.00087     0.76489
      H   24    0.22332      0.00000     0.77574    0.00094     0.77668
      H   25    0.24412      0.00000     0.75461    0.00127     0.75588
      H   26    0.22648      0.00000     0.77217    0.00135     0.77352
      H   27    0.25801      0.00000     0.74003    0.00196     0.74199
      H   28    0.23782      0.00000     0.76101    0.00118     0.76218
      H   29    0.23596      0.00000     0.76323    0.00081     0.76404
      H   30    0.23640      0.00000     0.76278    0.00082     0.76360
      H   31    0.23284      0.00000     0.76606    0.00110     0.76716
      H   32    0.23272      0.00000     0.76594    0.00133     0.76728
      H   33    0.23757      0.00000     0.76115    0.00128     0.76243
      H   34    0.23561      0.00000     0.76357    0.00081     0.76439
      H   35    0.23620      0.00000     0.76298    0.00082     0.76380
      H   36    0.23266      0.00000     0.76624    0.00110     0.76734
      H   37    0.25277      0.00000     0.74567    0.00156     0.74723
      H   38    0.23069      0.00000     0.76784    0.00147     0.76931
      H   39    0.23608      0.00000     0.76250    0.00141     0.76392
      H   40    0.23574      0.00000     0.76333    0.00093     0.76426
      H   41    0.22765      0.00000     0.77142    0.00092     0.77235
 =======================================================================
   * Total *   -0.00000     43.98191   111.64539    0.37271   156.00000

 Normal termination of Gaussian 09 at Thu Sep 30 06:54:41 2021.
