 Gaussian 09, Revision A.02,

 -----------------------------------
 #p opt b3lyp/6-31G* scf=(xqc,tight)
 -----------------------------------

 --------------------------------------
 COc1cccc(c1)N(c1ccccc1)c1ccccc1_conf_0
 --------------------------------------
 Symbolic Z-matrix:
 Charge =  0 Multiplicity = 1

 SCF Done:  E(RB3LYP) =  -864.213149349     A.U. after   15 cycles
 SCF Done:  E(RB3LYP) =  -864.218499512     A.U. after   14 cycles
 SCF Done:  E(RB3LYP) =  -864.219635597     A.U. after   13 cycles
 SCF Done:  E(RB3LYP) =  -864.219896600     A.U. after   12 cycles
 SCF Done:  E(RB3LYP) =  -864.220032993     A.U. after   11 cycles
 SCF Done:  E(RB3LYP) =  -864.220129279     A.U. after   11 cycles
 SCF Done:  E(RB3LYP) =  -864.220139101     A.U. after   10 cycles
 SCF Done:  E(RB3LYP) =  -864.220141102     A.U. after    8 cycles
 SCF Done:  E(RB3LYP) =  -864.220141431     A.U. after    8 cycles
 SCF Done:  E(RB3LYP) =  -864.220141781     A.U. after    8 cycles
 SCF Done:  E(RB3LYP) =  -864.220141959     A.U. after    7 cycles
 Optimization completed.
    -- Stationary point found.
 Normal termination of Gaussian 09 at Tue Sep 28 20:59:18 2021.

 ----------------------------------------------------------------------
 #p freq b3lyp/6-31G* volume NMR pop=NPA density=current Geom=AllCheck
 Guess=Read
 ----------------------------------------------------------------------

 COc1cccc(c1)N(c1ccccc1)c1ccccc1_conf_0
 --------------------------------------
 Redundant internal coordinates taken from checkpoint file:
 C19H17NO_1979_conf_0.chk
 Charge =  0 Multiplicity = 1

 SCF Done:  E(RB3LYP) =  -864.220141959     A.U. after    1 cycles

  1  C    Isotropic =   137.7020   Anisotropy =    63.7724

  2  O    Isotropic =   236.7540   Anisotropy =    79.5059

  3  C    Isotropic =    38.0035   Anisotropy =   125.2887

  4  C    Isotropic =    83.3613   Anisotropy =   128.9723

  5  C    Isotropic =    66.5253   Anisotropy =   163.6014

  6  C    Isotropic =    79.2043   Anisotropy =   143.7157

  7  C    Isotropic =    47.0782   Anisotropy =   138.1019

  8  C    Isotropic =    88.6175   Anisotropy =   132.6463

  9  N    Isotropic =   149.3825   Anisotropy =     8.4656

 10  C    Isotropic =    48.1683   Anisotropy =   142.8838

 11  C    Isotropic =    70.9109   Anisotropy =   156.0367

 12  C    Isotropic =    67.3220   Anisotropy =   164.0405

 13  C    Isotropic =    74.0422   Anisotropy =   158.7941

 14  C    Isotropic =    67.2866   Anisotropy =   164.0507

 15  C    Isotropic =    71.2904   Anisotropy =   155.4316

 16  C    Isotropic =    48.3490   Anisotropy =   141.7375

 17  C    Isotropic =    71.3076   Anisotropy =   155.2565

 18  C    Isotropic =    67.2892   Anisotropy =   163.7904

 19  C    Isotropic =    74.0865   Anisotropy =   158.6858

 20  C    Isotropic =    67.3296   Anisotropy =   163.7935

 21  C    Isotropic =    71.6913   Anisotropy =   154.5141

 22  H    Isotropic =    28.4478   Anisotropy =     8.1557

 23  H    Isotropic =    28.7996   Anisotropy =     6.8152

 24  H    Isotropic =    28.9531   Anisotropy =     6.6914

 25  H    Isotropic =    25.8808   Anisotropy =     4.3087

 26  H    Isotropic =    25.2349   Anisotropy =     4.4382

 27  H    Isotropic =    25.7668   Anisotropy =     9.4834

 28  H    Isotropic =    26.1769   Anisotropy =    12.6624

 29  H    Isotropic =    25.2739   Anisotropy =    10.0765

 30  H    Isotropic =    25.1027   Anisotropy =     4.9717

 31  H    Isotropic =    25.3971   Anisotropy =     2.8406

 32  H    Isotropic =    25.1146   Anisotropy =     4.8976

 33  H    Isotropic =    25.3035   Anisotropy =    10.0851

 34  H    Isotropic =    25.2914   Anisotropy =    10.5147

 35  H    Isotropic =    25.1176   Anisotropy =     5.0994

 36  H    Isotropic =    25.3950   Anisotropy =     2.9039

 37  H    Isotropic =    25.1288   Anisotropy =     5.0109

 38  H    Isotropic =    25.3523   Anisotropy =    10.4185

  Exact polarizability: 255.959   7.076 244.723  -8.927   2.122 138.224
 Approx polarizability: 380.855   4.953 374.902 -16.896   1.652 235.314

                     1                      2                      3
                     A                      A                      A
 Frequencies --    22.9195                33.5785                47.0162
 Red. masses --     4.2665                 3.9464                 4.9094
 Frc consts  --     0.0013                 0.0026                 0.0064
 IR Inten    --     1.0415                 1.5227                 0.2116

                     4                      5                      6
                     A                      A                      A
 Frequencies --    63.5868                72.0389                78.8781
 Red. masses --     4.0126                 4.1928                 4.5503
 Frc consts  --     0.0096                 0.0128                 0.0167
 IR Inten    --     0.7325                 1.0899                 0.0494

                     7                      8                      9
                     A                      A                      A
 Frequencies --    99.2261               171.0163               204.0448
 Red. masses --     3.4955                 3.9972                 1.8438
 Frc consts  --     0.0203                 0.0689                 0.0452
 IR Inten    --     3.4813                 1.9282                 0.9178

                    10                     11                     12
                     A                      A                      A
 Frequencies --   229.1902               244.7123               253.9858
 Red. masses --     3.7084                 4.0092                 4.3020
 Frc consts  --     0.1148                 0.1415                 0.1635
 IR Inten    --     0.6813                 2.1993                 1.8932

                    13                     14                     15
                     A                      A                      A
 Frequencies --   280.3063               286.3297               332.6682
 Red. masses --     2.1762                 4.0124                 4.5621
 Frc consts  --     0.1007                 0.1938                 0.2975
 IR Inten    --     1.3647                 0.0370                 0.3740

                    16                     17                     18
                     A                      A                      A
 Frequencies --   357.0015               420.9577               424.7830
 Red. masses --     4.2320                 3.0734                 3.0913
 Frc consts  --     0.3178                 0.3209                 0.3286
 IR Inten    --     1.9732                 2.9348                 1.0947

                    19                     20                     21
                     A                      A                      A
 Frequencies --   431.5922               462.4061               475.4560
 Red. masses --     5.5010                 3.8182                 4.0946
 Frc consts  --     0.6037                 0.4810                 0.5454
 IR Inten    --     0.2683                 1.9913                 3.2522

                    22                     23                     24
                     A                      A                      A
 Frequencies --   514.2867               522.8337               562.5039
 Red. masses --     3.5546                 3.4386                 4.9795
 Frc consts  --     0.5539                 0.5538                 0.9283
 IR Inten    --    12.9987                 9.1059                 5.8799

                    25                     26                     27
                     A                      A                      A
 Frequencies --   602.9695               630.2092               633.5054
 Red. masses --     5.6074                 5.8839                 6.2729
 Frc consts  --     1.2012                 1.3768                 1.4833
 IR Inten    --     0.1318                 1.4265                 0.5119

                    28                     29                     30
                     A                      A                      A
 Frequencies --   638.0976               656.1519               705.2025
 Red. masses --     6.4644                 5.0711                 2.7089
 Frc consts  --     1.5508                 1.2864                 0.7937
 IR Inten    --    10.9662                10.5486                12.4371

                    31                     32                     33
                     A                      A                      A
 Frequencies --   709.3694               711.5676               716.5687
 Red. masses --     2.4953                 2.0950                 3.5131
 Frc consts  --     0.7398                 0.6250                 1.0628
 IR Inten    --    15.5904                32.4301                21.4646

                    34                     35                     36
                     A                      A                      A
 Frequencies --   769.2676               770.5429               790.2768
 Red. masses --     1.8588                 1.7058                 1.4041
 Frc consts  --     0.6481                 0.5967                 0.5167
 IR Inten    --     5.6412                50.6936                22.5956

                    37                     38                     39
                     A                      A                      A
 Frequencies --   836.8659               845.8627               850.0870
 Red. masses --     4.3659                 1.2736                 1.2710
 Frc consts  --     1.8015                 0.5369                 0.5411
 IR Inten    --    13.6482                 1.0972                 0.9830

                    40                     41                     42
                     A                      A                      A
 Frequencies --   862.4069               881.7479               911.0765
 Red. masses --     1.5191                 1.4203                 1.4948
 Frc consts  --     0.6657                 0.6506                 0.7311
 IR Inten    --    15.9885                 1.3317                 3.6613

                    43                     44                     45
                     A                      A                      A
 Frequencies --   916.1667               941.9999               964.1003
 Red. masses --     1.4702                 4.4898                 1.3418
 Frc consts  --     0.7271                 2.3474                 0.7348
 IR Inten    --     1.8211                 0.6898                 0.7376

                    46                     47                     48
                     A                      A                      A
 Frequencies --   965.1583               966.9325               986.3390
 Red. masses --     1.3259                 1.2564                 1.2369
 Frc consts  --     0.7277                 0.6921                 0.7090
 IR Inten    --     0.1942                 0.2383                 0.1313

                    49                     50                     51
                     A                      A                      A
 Frequencies --   987.1900              1004.6806              1012.9128
 Red. masses --     1.2360                 3.8910                 5.9654
 Frc consts  --     0.7097                 2.3140                 3.6060
 IR Inten    --     0.0255                18.7065                 0.0361

                    52                     53                     54
                     A                      A                      A
 Frequencies --  1015.8832              1016.0369              1057.2087
 Red. masses --     6.0178                 5.9976                 2.1715
 Frc consts  --     3.6591                 3.6480                 1.4300
 IR Inten    --     0.4477                 0.6912                 3.2483

                    55                     56                     57
                     A                      A                      A
 Frequencies --  1058.9965              1081.4065              1112.8442
 Red. masses --     2.0361                 3.9242                 1.5594
 Frc consts  --     1.3454                 2.7038                 1.1378
 IR Inten    --     4.7330                39.5648                 9.0182

                    58                     59                     60
                     A                      A                      A
 Frequencies --  1114.3616              1117.5445              1184.3098
 Red. masses --     1.5451                 1.5202                 1.2723
 Frc consts  --     1.1305                 1.1186                 1.0514
 IR Inten    --     1.2809                 3.8726                 0.7864

                    61                     62                     63
                     A                      A                      A
 Frequencies --  1189.1852              1190.7025              1191.7794
 Red. masses --     1.4559                 1.1094                 1.0937
 Frc consts  --     1.2130                 0.9267                 0.9153
 IR Inten    --    52.0943                 1.3014                 0.3031

                    64                     65                     66
                     A                      A                      A
 Frequencies --  1196.6534              1209.8286              1211.9066
 Red. masses --     1.4452                 1.1391                 1.1770
 Frc consts  --     1.2193                 0.9823                 1.0185
 IR Inten    --     2.8353                 5.3315                 9.7645

                    67                     68                     69
                     A                      A                      A
 Frequencies --  1222.2201              1271.2321              1311.5191
 Red. masses --     1.5269                 3.2134                 2.9859
 Frc consts  --     1.3438                 3.0596                 3.0261
 IR Inten    --     0.0776               249.9587               172.4383

                    70                     71                     72
                     A                      A                      A
 Frequencies --  1314.8575              1329.3735              1348.4703
 Red. masses --     3.1591                 3.2826                 2.5550
 Frc consts  --     3.2179                 3.4179                 2.7373
 IR Inten    --    16.0747                72.2752                58.3465

                    73                     74                     75
                     A                      A                      A
 Frequencies --  1358.9111              1367.7220              1371.6474
 Red. masses --     5.6271                 1.6844                 1.8502
 Frc consts  --     6.1224                 1.8564                 2.0510
 IR Inten    --    24.5207                13.4058                 7.9141

                    76                     77                     78
                     A                      A                      A
 Frequencies --  1377.6299              1478.2530              1497.7914
 Red. masses --     3.0259                 2.2539                 1.9152
 Frc consts  --     3.3835                 2.9019                 2.5314
 IR Inten    --    60.6649                11.8854                 2.8834

                    79                     80                     81
                     A                      A                      A
 Frequencies --  1504.4951              1509.8559              1520.4769
 Red. masses --     1.9548                 1.9363                 1.0484
 Frc consts  --     2.6069                 2.6007                 1.4280
 IR Inten    --    15.6899                27.7732                 6.4592

                    82                     83                     84
                     A                      A                      A
 Frequencies --  1532.1339              1541.2501              1543.2008
 Red. masses --     1.2209                 2.1327                 2.1518
 Frc consts  --     1.6886                 2.9848                 3.0193
 IR Inten    --   102.1687               147.2910                75.2643

                    85                     86                     87
                     A                      A                      A
 Frequencies --  1546.4028              1632.0722              1640.1289
 Red. masses --     2.0233                 5.4137                 5.9104
 Frc consts  --     2.8507                 8.4962                 9.3675
 IR Inten    --    27.7926                19.2181                55.6413

                    88                     89                     90
                     A                      A                      A
 Frequencies --  1642.3295              1652.4397              1653.2402
 Red. masses --     6.1786                 5.5535                 5.5811
 Frc consts  --     9.8188                 8.9345                 8.9875
 IR Inten    --    97.9465               232.3873                69.6827

                    91                     92                     93
                     A                      A                      A
 Frequencies --  1665.2174              3025.8151              3084.6481
 Red. masses --     5.6126                 1.0347                 1.1066
 Frc consts  --     9.1697                 5.5812                 6.2037
 IR Inten    --     9.7883                43.2768                37.7198

                    94                     95                     96
                     A                      A                      A
 Frequencies --  3156.2562              3182.5244              3182.6877
 Red. masses --     1.0999                 1.0850                 1.0850
 Frc consts  --     6.4557                 6.4748                 6.4756
 IR Inten    --    31.5112                 6.0997                 1.8726

                    97                     98                     99
                     A                      A                      A
 Frequencies --  3190.3275              3190.4000              3190.7091
 Red. masses --     1.0892                 1.0892                 1.0879
 Frc consts  --     6.5318                 6.5321                 6.5252
 IR Inten    --    17.9296                 9.6642                18.1826

                   100                    101                    102
                     A                      A                      A
 Frequencies --  3206.1635              3206.4288              3215.1104
 Red. masses --     1.0929                 1.0928                 1.0930
 Frc consts  --     6.6193                 6.6199                 6.6569
 IR Inten    --    55.3263                18.9432                15.9584

                   103                    104                    105
                     A                      A                      A
 Frequencies --  3215.4356              3217.6667              3217.9591
 Red. masses --     1.0929                 1.0957                 1.0955
 Frc consts  --     6.6575                 6.6839                 6.6838
 IR Inten    --    14.1699                 2.4099                 0.8994

                   106                    107                    108
                     A                      A                      A
 Frequencies --  3219.9648              3224.7138              3244.6297
 Red. masses --     1.0912                 1.0948                 1.0892
 Frc consts  --     6.6661                 6.7074                 6.7559
 IR Inten    --     9.3883                 5.4155                 2.5193

 - Thermochemistry -
 -------------------
 Temperature   298.150 Kelvin.  Pressure   1.00000 Atm.
 Atom     1 has atomic number  6 and mass  12.00000

 Molecular mass:   275.13101 amu.
 Principal axes and moments of inertia in atomic units:
                           1         2         3
     Eigenvalues --  4802.148006899.60221**********
           X            0.99977   0.02092   0.00394
           Y           -0.02094   0.99978   0.00298
           Z           -0.00387  -0.00306   0.99999
 This molecule is an asymmetric top.
 Rotational symmetry number  1.
 Warning -- assumption of classical behavior for rotation
           may cause significant error
 Rotational temperatures (Kelvin)      0.01804     0.01255     0.00837
 Rotational constants (GHZ):           0.37582     0.26157     0.17446
 Zero-point vibrational energy     818314.7 (Joules/Mol)
                                  195.58190 (Kcal/Mol)
 Warning -- explicit consideration of  25 degrees of freedom as
           vibrations may cause significant error
 Vibrational temperatures:     32.98    48.31    67.65    91.49   103.65
          (Kelvin)            113.49   142.76   246.05   293.57   329.75
                              352.09   365.43   403.30   411.96   478.63
                              513.64   605.66   611.17   620.96   665.30
                              684.07   739.94   752.24   809.32   867.54
                              906.73   911.47   918.08   944.06  1014.63
                             1020.62  1023.79  1030.98  1106.80  1108.64
                             1137.03  1204.06  1217.01  1223.08  1240.81
                             1268.64  1310.83  1318.16  1355.33  1387.12
                             1388.65  1391.20  1419.12  1420.34  1445.51
                             1457.35  1461.63  1461.85  1521.09  1523.66
                             1555.90  1601.13  1603.32  1607.90  1703.96
                             1710.97  1713.15  1714.70  1721.72  1740.67
                             1743.66  1758.50  1829.02  1886.98  1891.78
                             1912.67  1940.15  1955.17  1967.84  1973.49
                             1982.10  2126.87  2154.99  2164.63  2172.34
                             2187.62  2204.40  2217.51  2220.32  2224.93
                             2348.18  2359.78  2362.94  2377.49  2378.64
                             2395.87  4353.47  4438.12  4541.14  4578.94
                             4579.17  4590.16  4590.27  4590.71  4612.95
                             4613.33  4625.82  4626.29  4629.50  4629.92
                             4632.81  4639.64  4668.29

 Zero-point correction=                           0.311680 (Hartree/Particle)
 Thermal correction to Energy=                    0.329104
 Thermal correction to Enthalpy=                  0.330048
 Thermal correction to Gibbs Free Energy=         0.264571
 Sum of electronic and zero-point Energies=           -863.908462
 Sum of electronic and thermal Energies=              -863.891038
 Sum of electronic and thermal Enthalpies=            -863.890094
 Sum of electronic and thermal Free Energies=         -863.955571

                     E (Thermal)             CV                S
                      KCal/Mol        Cal/Mol-Kelvin    Cal/Mol-Kelvin
 Total                  206.516             69.088            137.808
 Electronic               0.000              0.000              0.000
 Translational            0.889              2.981             42.735
 Rotational               0.889              2.981             34.193
 Vibrational            204.738             63.127             60.879
 Vibration     1          0.593              1.985              6.364
 Vibration     2          0.594              1.983              5.606
 Vibration     3          0.595              1.979              4.939
 Vibration     4          0.597              1.972              4.343
 Vibration     5          0.598              1.967              4.097
 Vibration     6          0.600              1.963              3.919
 Vibration     7          0.604              1.950              3.469
 Vibration     8          0.626              1.878              2.424
 Vibration     9          0.640              1.834              2.096
 Vibration    10          0.652              1.796              1.885
 Vibration    11          0.660              1.772              1.768
 Vibration    12          0.665              1.756              1.703
 Vibration    13          0.680              1.710              1.532
 Vibration    14          0.684              1.699              1.496
 Vibration    15          0.715              1.610              1.247
 Vibration    16          0.732              1.561              1.135
 Vibration    17          0.783              1.425              0.889
 Vibration    18          0.787              1.416              0.876
 Vibration    19          0.793              1.401              0.853
 Vibration    20          0.820              1.333              0.759
 Vibration    21          0.832              1.305              0.722
 Vibration    22          0.869              1.218              0.623
 Vibration    23          0.878              1.199              0.603
 Vibration    24          0.918              1.112              0.519
 Vibration    25          0.961              1.026              0.445

 Optimization completed.
    -- Stationary point found.
 Normal termination of Gaussian 09 at Tue Sep 28 23:16:39 2021.
 Gaussian 09:  AM64L-G09RevA.02 11-Jun-2009

 ----------------------------------------------------------------------
 #p TD(NStates=10, Root=1) b3lyp/6-31G* volume pop=NPA density=current
 Geom=AllCheck Guess=Read
 ----------------------------------------------------------------------

 COc1cccc(c1)N(c1ccccc1)c1ccccc1_conf_0
 --------------------------------------
 Redundant internal coordinates taken from checkpoint file:
 C19H17NO_1979_conf_0.chk
 Charge =  0 Multiplicity = 1

                         Standard orientation:
 ---------------------------------------------------------------------
 Center     Atomic      Atomic             Coordinates (Angstroms)
 Number     Number       Type             X           Y           Z
 ---------------------------------------------------------------------
      1          6           0        4.301251    0.442004    1.462701
      2          8           0        4.234347   -0.721840    0.654513
      3          6           0        3.034234   -1.054176    0.092735
      4          6           0        3.037182   -2.206403   -0.707871
      5          6           0        1.853898   -2.616312   -1.310952
      6          6           0        0.668478   -1.896940   -1.145061
      7          6           0        0.664576   -0.751695   -0.339119
      8          6           0        1.852733   -0.335440    0.288513
      9          7           0       -0.530336   -0.004864   -0.145286
     10          6           0       -0.490145    1.415909   -0.159419
     11          6           0        0.284552    2.098129   -1.112082
     12          6           0        0.330104    3.490904   -1.115410
     13          6           0       -0.406263    4.228883   -0.185983
     14          6           0       -1.185064    3.553863    0.756387
     15          6           0       -1.222525    2.160877    0.779487
     16          6           0       -1.765216   -0.678066    0.061296
     17          6           0       -1.830733   -1.813656    0.885270
     18          6           0       -3.042726   -2.473540    1.078363
     19          6           0       -4.211395   -2.006974    0.472577
     20          6           0       -4.151004   -0.873223   -0.340318
     21          6           0       -2.940335   -0.217164   -0.554523
     22          1           0        5.342080    0.524944    1.781358
     23          1           0        3.657483    0.357617    2.348438
     24          1           0        4.020491    1.342188    0.900170
     25          1           0        3.966355   -2.750760   -0.840006
     26          1           0        1.853973   -3.504127   -1.937843
     27          1           0       -0.244815   -2.215333   -1.635543
     28          1           0        1.829370    0.543089    0.920345
     29          1           0        0.846329    1.529675   -1.846373
     30          1           0        0.934181    4.001272   -1.861243
     31          1           0       -0.374403    5.314653   -0.196671
     32          1           0       -1.758778    4.113304    1.490870
     33          1           0       -1.819146    1.641708    1.522831
     34          1           0       -0.928333   -2.173819    1.368708
     35          1           0       -3.073782   -3.350869    1.719381
     36          1           0       -5.155600   -2.520032    0.631480
     37          1           0       -5.049908   -0.501685   -0.825597
     38          1           0       -2.897521    0.655071   -1.198948
 ---------------------------------------------------------------------

 SCF Done:  E(RB3LYP) =  -864.220141959     A.U. after    1 cycles

 Excitation energies and oscillator strengths:

 Excited State   1:      Singlet-A      3.9708 eV  312.24 nm  f=0.0313  <S**2>=0.000
      73 -> 74         0.48565
      73 -> 75        -0.38051
      73 -> 76        -0.32126
 This state for optimization and/or second-order correction.
 Total Energy, E(TD-HF/TD-KS) =  -864.074218066
 Copying the excited state density for this state as the 1-particle RhoCI density.

 Excited State   2:      Singlet-A      4.0786 eV  303.99 nm  f=0.2258  <S**2>=0.000
      73 -> 74         0.48310
      73 -> 75         0.47768
      73 -> 76         0.16352

 Excited State   3:      Singlet-A      4.1317 eV  300.08 nm  f=0.2458  <S**2>=0.000
      73 -> 74         0.12926
      73 -> 75        -0.33959
      73 -> 76         0.59262

 Excited State   4:      Singlet-A      4.4675 eV  277.52 nm  f=0.0272  <S**2>=0.000
      73 -> 77         0.68186

 Excited State   5:      Singlet-A      4.6484 eV  266.72 nm  f=0.0103  <S**2>=0.000
      72 -> 74         0.20541
      72 -> 76         0.17320
      73 -> 78         0.62671

 Excited State   6:      Singlet-A      5.1219 eV  242.07 nm  f=0.0182  <S**2>=0.000
      72 -> 74         0.56034
      72 -> 75         0.37600
      73 -> 78        -0.13050

 Excited State   7:      Singlet-A      5.1559 eV  240.47 nm  f=0.0455  <S**2>=0.000
      72 -> 74        -0.29842
      72 -> 75         0.56854
      73 -> 78         0.20001
      73 -> 79         0.14584

 Excited State   8:      Singlet-A      5.2462 eV  236.33 nm  f=0.0507  <S**2>=0.000
      72 -> 75         0.10652
      72 -> 76         0.61637
      73 -> 78        -0.13958
      73 -> 79        -0.20011

 Excited State   9:      Singlet-A      5.4513 eV  227.44 nm  f=0.0213  <S**2>=0.000
      72 -> 74         0.13173
      72 -> 76         0.18115
      73 -> 79         0.61045

 Excited State  10:      Singlet-A      5.5754 eV  222.38 nm  f=0.0075  <S**2>=0.000
      68 -> 74         0.11978
      68 -> 76        -0.14728
      69 -> 74         0.15107
      70 -> 75         0.26730
      71 -> 74        -0.23520
      71 -> 76        -0.17803
      72 -> 77         0.47420

 The electronic state is 1-A.
 Alpha  occ. eigenvalues --  -19.17493 -14.36127 -10.24477 -10.23865 -10.22781
 Alpha  occ. eigenvalues --  -10.22771 -10.22664 -10.18956 -10.18951 -10.18785
 Alpha  occ. eigenvalues --  -10.18778 -10.18772 -10.18615 -10.18599 -10.18522
 Alpha  occ. eigenvalues --  -10.18454 -10.18444 -10.18342 -10.18199 -10.17759
 Alpha  occ. eigenvalues --  -10.17747  -1.06058  -0.96076  -0.85118  -0.84930
 Alpha  occ. eigenvalues --   -0.82992  -0.75855  -0.75394  -0.74362  -0.74120
 Alpha  occ. eigenvalues --   -0.73920  -0.71046  -0.68852  -0.62497  -0.62033
 Alpha  occ. eigenvalues --   -0.60038  -0.59809  -0.58928  -0.56753  -0.53698
 Alpha  occ. eigenvalues --   -0.53097  -0.50258  -0.48751  -0.48102  -0.47470
 Alpha  occ. eigenvalues --   -0.46876  -0.46550  -0.45312  -0.44294  -0.43749
 Alpha  occ. eigenvalues --   -0.43012  -0.42507  -0.41927  -0.41729  -0.40999
 Alpha  occ. eigenvalues --   -0.37690  -0.37373  -0.36846  -0.36372  -0.36156
 Alpha  occ. eigenvalues --   -0.35874  -0.35247  -0.34310  -0.34066  -0.32830
 Alpha  occ. eigenvalues --   -0.32400  -0.29539  -0.25611  -0.25503  -0.24904
 Alpha  occ. eigenvalues --   -0.24385  -0.21921  -0.18076
 Alpha virt. eigenvalues --   -0.00967  -0.00879  -0.00667   0.00929   0.01839
 Alpha virt. eigenvalues --    0.03769   0.09397   0.09938   0.10094   0.11053
 Alpha virt. eigenvalues --    0.13318   0.14348   0.14623   0.15311   0.15580

 Mulliken atomic charges:
              1
     1  C   -0.219931
     2  O   -0.508449
     3  C    0.372052
     4  C   -0.150963
     5  C   -0.162665
     6  C   -0.152926
     7  C    0.275221
     8  C   -0.245075
     9  N   -0.580761
    10  C    0.267555
    11  C   -0.181338
    12  C   -0.168610
    13  C   -0.103970
    14  C   -0.174614
    15  C   -0.170888
    16  C    0.272413
    17  C   -0.163407
    18  C   -0.168167
    19  C   -0.105446
    20  C   -0.160187
    21  C   -0.174214
    22  H    0.171680
    23  H    0.155437
    24  H    0.162174
    25  H    0.148062
    26  H    0.137699
    27  H    0.158099
    28  H    0.160514
    29  H    0.132010
    30  H    0.119009
    31  H    0.125943
    32  H    0.118992
    33  H    0.139548
    34  H    0.142178
    35  H    0.124902
    36  H    0.131431
    37  H    0.127718
    38  H    0.148974
 Sum of Mulliken atomic charges =  -0.00000

 Dipole moment (field-independent basis, Debye):
    X=              1.1847    Y=             -0.6376    Z=              0.5202  Tot=              1.4425
 Quadrupole moment (field-independent basis, Debye-Ang):
   XX=           -115.5172   YY=           -117.8615   ZZ=           -119.4230
   XY=              4.0536   XZ=              2.1842   YZ=              2.2166

 Summary of Natural Population Analysis:

                                       Natural Population
                Natural  -----------------------------------------------
    Atom  No    Charge         Core      Valence    Rydberg      Total
 -----------------------------------------------------------------------
      C    1   -0.31925      1.99943     4.30571    0.01411     6.31925
      O    2   -0.51690      1.99974     6.50539    0.01177     8.51690
      C    3    0.31279      1.99880     3.66584    0.02258     5.68721
      C    4   -0.23261      1.99903     4.21936    0.01422     6.23261
      C    5   -0.25975      1.99912     4.24504    0.01559     6.25975
      C    6   -0.23771      1.99901     4.22501    0.01368     6.23771
      C    7    0.15873      1.99896     3.82382    0.01849     5.84127
      C    8   -0.34489      1.99895     4.33226    0.01368     6.34489
      N    9   -0.26420      1.99923     5.25027    0.01469     7.26420
      C   10    0.12862      1.99894     3.85404    0.01840     5.87138
      C   11   -0.28779      1.99902     4.27207    0.01670     6.28779
      C   12   -0.28495      1.99911     4.26930    0.01654     6.28495
      C   13   -0.18824      1.99910     4.17543    0.01371     6.18824
      C   14   -0.29818      1.99911     4.28208    0.01699     6.29818
      C   15   -0.26564      1.99902     4.25047    0.01615     6.26564
      C   16    0.13548      1.99894     3.84741    0.01817     5.86452
      C   17   -0.25089      1.99902     4.23704    0.01483     6.25089
      C   18   -0.28676      1.99911     4.27117    0.01648     6.28676
      C   19   -0.19128      1.99910     4.17847    0.01371     6.19128
      C   20   -0.26780      1.99911     4.25274    0.01596     6.26780
      C   21   -0.27384      1.99902     4.25822    0.01660     6.27384
      H   22    0.22975      0.00000     0.76973    0.00052     0.77025
      H   23    0.20411      0.00000     0.79415    0.00174     0.79589
      H   24    0.20801      0.00000     0.79026    0.00174     0.79199
      H   25    0.24978      0.00000     0.74908    0.00115     0.75022
      H   26    0.24323      0.00000     0.75602    0.00075     0.75677
      H   27    0.25466      0.00000     0.74451    0.00083     0.74534
      H   28    0.25704      0.00000     0.74201    0.00095     0.74296
      H   29    0.24098      0.00000     0.75804    0.00098     0.75902
      H   30    0.23282      0.00000     0.76634    0.00084     0.76718
      H   31    0.23296      0.00000     0.76620    0.00084     0.76704
      H   32    0.23304      0.00000     0.76614    0.00082     0.76696
      H   33    0.24475      0.00000     0.75425    0.00100     0.75525
      H   34    0.24498      0.00000     0.75410    0.00092     0.75502
      H   35    0.23582      0.00000     0.76337    0.00082     0.76418
      H   36    0.23567      0.00000     0.76352    0.00081     0.76433
      H   37    0.23704      0.00000     0.76214    0.00082     0.76296
      H   38    0.25044      0.00000     0.74865    0.00090     0.74956
 =======================================================================
   * Total *    0.00000     41.98089   103.66964    0.34947   146.00000

 Normal termination of Gaussian 09 at Wed Sep 29 05:56:38 2021.
