 Gaussian 09, Revision A.02,

 -----------------------------------
 #p opt b3lyp/6-31G* scf=(xqc,tight)
 -----------------------------------

 ----------------------------------------
 CCN(C(=O)Oc1cc2ccccc2c2c1cccc2)CC_conf_0
 ----------------------------------------
 Symbolic Z-matrix:
 Charge =  0 Multiplicity = 1

 SCF Done:  E(RB3LYP) =  -940.704373753     A.U. after   15 cycles
 SCF Done:  E(RB3LYP) =  -940.713594231     A.U. after   16 cycles
 SCF Done:  E(RB3LYP) =  -940.714186039     A.U. after   12 cycles
 SCF Done:  E(RB3LYP) =  -940.714126033     A.U. after   13 cycles
 SCF Done:  E(RB3LYP) =  -940.714523695     A.U. after   12 cycles
 SCF Done:  E(RB3LYP) =  -940.714716670     A.U. after   12 cycles
 SCF Done:  E(RB3LYP) =  -940.714775990     A.U. after   11 cycles
 SCF Done:  E(RB3LYP) =  -940.714800025     A.U. after   11 cycles
 SCF Done:  E(RB3LYP) =  -940.714808270     A.U. after   10 cycles
 SCF Done:  E(RB3LYP) =  -940.714810489     A.U. after   10 cycles
 SCF Done:  E(RB3LYP) =  -940.714810831     A.U. after    7 cycles
 SCF Done:  E(RB3LYP) =  -940.714810891     A.U. after    6 cycles
 Optimization completed.
    -- Stationary point found.
 Normal termination of Gaussian 09 at Thu Sep 30 10:24:47 2021.

 ----------------------------------------------------------------------
 #p freq b3lyp/6-31G* volume NMR pop=NPA density=current Geom=AllCheck
 Guess=Read
 ----------------------------------------------------------------------

 CCN(C(=O)Oc1cc2ccccc2c2c1cccc2)CC_conf_0
 ----------------------------------------
 Redundant internal coordinates taken from checkpoint file:
 C19H19NO2_0a1a_conf_0.chk
 Charge =  0 Multiplicity = 1

 SCF Done:  E(RB3LYP) =  -940.714810891     A.U. after    1 cycles

  1  C    Isotropic =   176.0600   Anisotropy =    20.6974

  2  C    Isotropic =   146.8824   Anisotropy =    42.2759

  3  N    Isotropic =   156.9751   Anisotropy =    69.0505

  4  C    Isotropic =    46.9217   Anisotropy =    80.0515

  5  O    Isotropic =    61.8034   Anisotropy =   390.0305

  6  O    Isotropic =   150.2736   Anisotropy =   151.6877

  7  C    Isotropic =    49.8361   Anisotropy =    93.0343

  8  C    Isotropic =    76.4858   Anisotropy =   123.4310

  9  C    Isotropic =    64.0172   Anisotropy =   188.8316

 10  C    Isotropic =    66.8457   Anisotropy =   144.0883

 11  C    Isotropic =    69.7889   Anisotropy =   163.0312

 12  C    Isotropic =    70.9294   Anisotropy =   159.8104

 13  C    Isotropic =    73.1292   Anisotropy =   159.5034

 14  C    Isotropic =    68.0319   Anisotropy =   181.4213

 15  C    Isotropic =    64.2163   Anisotropy =   180.6575

 16  C    Isotropic =    69.3322   Anisotropy =   174.8086

 17  C    Isotropic =    72.6601   Anisotropy =   161.5423

 18  C    Isotropic =    70.5136   Anisotropy =   162.6960

 19  C    Isotropic =    70.1369   Anisotropy =   161.6940

 20  C    Isotropic =    72.7480   Anisotropy =   160.2887

 21  C    Isotropic =   148.2622   Anisotropy =    40.2938

 22  C    Isotropic =   174.4072   Anisotropy =    22.5773

 23  H    Isotropic =    31.3344   Anisotropy =    10.8191

 24  H    Isotropic =    30.4511   Anisotropy =     7.2582

 25  H    Isotropic =    30.9941   Anisotropy =     6.8156

 26  H    Isotropic =    28.2787   Anisotropy =     5.8750

 27  H    Isotropic =    29.4487   Anisotropy =     6.5920

 28  H    Isotropic =    24.4940   Anisotropy =    11.8458

 29  H    Isotropic =    24.5409   Anisotropy =     8.3165

 30  H    Isotropic =    24.7195   Anisotropy =     5.2446

 31  H    Isotropic =    24.6727   Anisotropy =     5.3957

 32  H    Isotropic =    23.7273   Anisotropy =     9.7438

 33  H    Isotropic =    23.9990   Anisotropy =    10.2992

 34  H    Isotropic =    24.6744   Anisotropy =     6.3656

 35  H    Isotropic =    24.5811   Anisotropy =     5.4377

 36  H    Isotropic =    23.6513   Anisotropy =     9.5715

 37  H    Isotropic =    29.2270   Anisotropy =     6.5931

 38  H    Isotropic =    28.1178   Anisotropy =     3.2162

 39  H    Isotropic =    30.7734   Anisotropy =     7.2367

 40  H    Isotropic =    31.1571   Anisotropy =    10.3609

 41  H    Isotropic =    30.5202   Anisotropy =     7.5295

  Exact polarizability: 289.117 -24.890 275.533   3.576   4.219  96.137
 Approx polarizability: 423.076 -45.646 460.847   9.356   5.279 153.745

                     1                      2                      3
                     A                      A                      A
 Frequencies --    19.6354                30.1082                50.1007
 Red. masses --     4.0055                 4.8241                 3.7435
 Frc consts  --     0.0009                 0.0026                 0.0055
 IR Inten    --     0.5432                 1.0558                 0.2112

                     4                      5                      6
                     A                      A                      A
 Frequencies --    73.2917                77.0290                95.0582
 Red. masses --     2.8499                 3.0100                 4.9533
 Frc consts  --     0.0090                 0.0105                 0.0264
 IR Inten    --     0.8702                 0.2399                 0.7998

                     7                      8                      9
                     A                      A                      A
 Frequencies --    98.7202               104.6845               118.8593
 Red. masses --     4.0891                 4.3869                 3.8044
 Frc consts  --     0.0235                 0.0283                 0.0317
 IR Inten    --     1.0242                 0.6669                 0.4515

                    10                     11                     12
                     A                      A                      A
 Frequencies --   165.0117               198.9788               232.2756
 Red. masses --     3.6407                 3.3773                 1.1122
 Frc consts  --     0.0584                 0.0788                 0.0354
 IR Inten    --     0.2968                 0.6047                 0.4568

                    13                     14                     15
                     A                      A                      A
 Frequencies --   236.0850               244.9271               274.3130
 Red. masses --     1.6879                 3.7367                 3.0832
 Frc consts  --     0.0554                 0.1321                 0.1367
 IR Inten    --     0.3301                 0.8089                 0.7530

                    16                     17                     18
                     A                      A                      A
 Frequencies --   286.9257               321.6588               330.9166
 Red. masses --     3.3842                 3.2500                 3.5429
 Frc consts  --     0.1642                 0.1981                 0.2286
 IR Inten    --     2.1302                 2.0529                 0.3395

                    19                     20                     21
                     A                      A                      A
 Frequencies --   373.3411               413.3785               428.0997
 Red. masses --     3.2929                 6.2178                 3.2720
 Frc consts  --     0.2704                 0.6260                 0.3533
 IR Inten    --    19.3960                 1.2949                 1.7902

                    22                     23                     24
                     A                      A                      A
 Frequencies --   436.7303               453.0092               462.2773
 Red. masses --     2.9055                 3.6263                 5.4078
 Frc consts  --     0.3265                 0.4385                 0.6809
 IR Inten    --     4.2476                 1.8056                 0.7946

                    25                     26                     27
                     A                      A                      A
 Frequencies --   502.8849               521.3335               563.4042
 Red. masses --     3.6381                 3.1462                 4.7722
 Frc consts  --     0.5421                 0.5038                 0.8925
 IR Inten    --     6.3567                 1.8413                 0.9103

                    28                     29                     30
                     A                      A                      A
 Frequencies --   574.6075               581.4682               617.8150
 Red. masses --     4.3518                 4.7932                 4.0529
 Frc consts  --     0.8466                 0.9548                 0.9114
 IR Inten    --     2.9739                 2.1415                 1.3415

                    31                     32                     33
                     A                      A                      A
 Frequencies --   631.9466               641.6019               687.5109
 Red. masses --     6.7992                 3.8749                 5.8631
 Frc consts  --     1.5998                 0.9398                 1.6328
 IR Inten    --     4.4220                 4.0989                 4.7145

                    34                     35                     36
                     A                      A                      A
 Frequencies --   728.4453               738.6595               742.6516
 Red. masses --     5.4864                 3.0726                 8.0459
 Frc consts  --     1.7153                 0.9878                 2.6145
 IR Inten    --     2.4524                11.4687                27.9542

                    37                     38                     39
                     A                      A                      A
 Frequencies --   757.5356               773.7124               789.2005
 Red. masses --     1.4829                 1.7287                 1.5432
 Frc consts  --     0.5014                 0.6097                 0.5663
 IR Inten    --    16.5547                41.4489                17.6008

                    40                     41                     42
                     A                      A                      A
 Frequencies --   794.4125               795.2109               812.7814
 Red. masses --     1.8174                 1.3334                 3.1034
 Frc consts  --     0.6758                 0.4968                 1.2079
 IR Inten    --     1.4001                 5.0858                 1.1556

                    43                     44                     45
                     A                      A                      A
 Frequencies --   833.3357               865.8685               876.2670
 Red. masses --     2.8666                 1.5534                 1.6298
 Frc consts  --     1.1729                 0.6862                 0.7373
 IR Inten    --     3.3022                 3.0184                 0.3853

                    46                     47                     48
                     A                      A                      A
 Frequencies --   894.5381               904.2942               937.4936
 Red. masses --     1.7715                 3.1944                 1.3675
 Frc consts  --     0.8352                 1.5391                 0.7082
 IR Inten    --    11.2132                 5.6801                 0.6528

                    49                     50                     51
                     A                      A                      A
 Frequencies --   944.7151               951.1569               965.6587
 Red. masses --     2.4151                 1.3378                 2.5460
 Frc consts  --     1.2699                 0.7131                 1.3988
 IR Inten    --    15.2878                 2.3616                24.4710

                    52                     53                     54
                     A                      A                      A
 Frequencies --   981.6178               985.0815              1017.6796
 Red. masses --     1.2827                 1.2570                 7.4727
 Frc consts  --     0.7282                 0.7187                 4.5598
 IR Inten    --     0.2413                 0.0252                 3.4417

                    55                     56                     57
                     A                      A                      A
 Frequencies --  1039.4998              1070.8092              1074.1031
 Red. masses --     3.4391                 2.0297                 2.4603
 Frc consts  --     2.1895                 1.3712                 1.6724
 IR Inten    --     5.6970                 4.5566                18.9130

                    58                     59                     60
                     A                      A                      A
 Frequencies --  1101.0843              1106.5322              1120.0503
 Red. masses --     2.0166                 2.4571                 2.0165
 Frc consts  --     1.4405                 1.7726                 1.4905
 IR Inten    --    62.7621                77.2492                11.4011

                    61                     62                     63
                     A                      A                      A
 Frequencies --  1128.1257              1140.0798              1180.5882
 Red. masses --     1.7352                 2.3004                 1.4427
 Frc consts  --     1.3011                 1.7617                 1.1847
 IR Inten    --    31.3839                26.5057                32.5051

                    64                     65                     66
                     A                      A                      A
 Frequencies --  1187.8152              1194.0663              1199.3522
 Red. masses --     2.6586                 1.2378                 1.0785
 Frc consts  --     2.2100                 1.0398                 0.9140
 IR Inten    --   561.3977                 0.6493                 0.8848

                    67                     68                     69
                     A                      A                      A
 Frequencies --  1230.1535              1258.6861              1264.9348
 Red. masses --     1.4818                 3.0765                 2.7531
 Frc consts  --     1.3212                 2.8717                 2.5954
 IR Inten    --    28.2772               183.2543                40.8660

                    70                     71                     72
                     A                      A                      A
 Frequencies --  1277.2643              1305.3547              1316.0942
 Red. masses --     1.5996                 1.6518                 1.7758
 Frc consts  --     1.5375                 1.6583                 1.8122
 IR Inten    --     5.7727               310.4331                51.1007

                    73                     74                     75
                     A                      A                      A
 Frequencies --  1342.4186              1358.6611              1382.1277
 Red. masses --     2.6400                 1.3431                 5.9468
 Frc consts  --     2.8030                 1.4607                 6.6932
 IR Inten    --    39.9237                13.5453                 0.7270

                    76                     77                     78
                     A                      A                      A
 Frequencies --  1391.3290              1401.3178              1421.9719
 Red. masses --     5.3175                 1.2754                 1.2927
 Frc consts  --     6.0648                 1.4756                 1.5401
 IR Inten    --     0.0967                19.2027                12.4308

                    79                     80                     81
                     A                      A                      A
 Frequencies --  1435.4416              1438.8268              1440.9229
 Red. masses --     2.0109                 1.3644                 1.2658
 Frc consts  --     2.4412                 1.6642                 1.5484
 IR Inten    --   119.1771                 3.5408                20.5449

                    82                     83                     84
                     A                      A                      A
 Frequencies --  1465.3054              1471.4263              1491.5445
 Red. masses --     2.2977                 2.4667                 2.5480
 Frc consts  --     2.9067                 3.1467                 3.3399
 IR Inten    --   210.8971                 1.2664                 1.8030

                    85                     86                     87
                     A                      A                      A
 Frequencies --  1499.3003              1507.9164              1520.4991
 Red. masses --     2.3416                 1.0706                 1.0471
 Frc consts  --     3.1013                 1.4343                 1.4263
 IR Inten    --     8.1191                 7.4532                 4.2290

                    88                     89                     90
                     A                      A                      A
 Frequencies --  1523.1777              1526.8942              1535.3596
 Red. masses --     1.0506                 1.0921                 1.0588
 Frc consts  --     1.4361                 1.5001                 1.4705
 IR Inten    --     1.1853                41.8827                 8.6848

                    91                     92                     93
                     A                      A                      A
 Frequencies --  1535.7355              1548.0192              1581.8707
 Red. masses --     1.1217                 3.0185                 3.3909
 Frc consts  --     1.5587                 4.2618                 4.9992
 IR Inten    --    30.2989                10.9465                 2.2321

                    94                     95                     96
                     A                      A                      A
 Frequencies --  1624.7970              1662.1504              1670.9751
 Red. masses --     6.8801                 5.3170                 5.8294
 Frc consts  --    10.7015                 8.6548                 9.5900
 IR Inten    --     1.1337                20.1370                 5.3423

                    97                     98                     99
                     A                      A                      A
 Frequencies --  1676.0207              1811.2342              3052.8913
 Red. masses --     6.9888                11.2601                 1.0372
 Frc consts  --    11.5668                21.7641                 5.6958
 IR Inten    --    33.9975               329.0231                15.1225

                   100                    101                    102
                     A                      A                      A
 Frequencies --  3053.4542              3059.7306              3074.2115
 Red. masses --     1.0357                 1.0698                 1.0670
 Frc consts  --     5.6896                 5.9009                 5.9412
 IR Inten    --    15.9978                36.2125                35.6228

                   103                    104                    105
                     A                      A                      A
 Frequencies --  3113.7817              3116.9530              3130.8140
 Red. masses --     1.1021                 1.1019                 1.1005
 Frc consts  --     6.2956                 6.3072                 6.3554
 IR Inten    --    17.6471                23.3138                37.3297

                   106                    107                    108
                     A                      A                      A
 Frequencies --  3134.4557              3147.0073              3153.9514
 Red. masses --     1.0981                 1.1035                 1.0969
 Frc consts  --     6.3562                 6.4392                 6.4286
 IR Inten    --    20.1963                23.3970                25.7702

                   109                    110                    111
                     A                      A                      A
 Frequencies --  3181.6143              3186.1358              3190.9009
 Red. masses --     1.0856                 1.0860                 1.0891
 Frc consts  --     6.4744                 6.4956                 6.5332
 IR Inten    --     1.5196                 1.9751                13.5880

                   112                    113                    114
                     A                      A                      A
 Frequencies --  3200.5476              3205.4021              3212.9571
 Red. masses --     1.0913                 1.0941                 1.0963
 Frc consts  --     6.5864                 6.6235                 6.6678
 IR Inten    --    39.3154                10.9655                15.9358

                   115                    116                    117
                     A                      A                      A
 Frequencies --  3226.4183              3233.5264              3248.1158
 Red. masses --     1.0903                 1.0921                 1.0915
 Frc consts  --     6.6872                 6.7278                 6.7846
 IR Inten    --    37.9694                10.5403                 2.9664

 - Thermochemistry -
 -------------------
 Temperature   298.150 Kelvin.  Pressure   1.00000 Atm.
 Atom     1 has atomic number  6 and mass  12.00000

 Molecular mass:   293.14158 amu.
 Principal axes and moments of inertia in atomic units:
                           1         2         3
     Eigenvalues --  3939.67253********************
           X            0.99999   0.00044   0.00323
           Y           -0.00044   1.00000   0.00235
           Z           -0.00323  -0.00235   0.99999
 This molecule is an asymmetric top.
 Rotational symmetry number  1.
 Warning -- assumption of classical behavior for rotation
           may cause significant error
 Rotational temperatures (Kelvin)      0.02199     0.00862     0.00636
 Rotational constants (GHZ):           0.45809     0.17964     0.13260
 Zero-point vibrational energy     893138.0 (Joules/Mol)
                                  213.46510 (Kcal/Mol)
 Warning -- explicit consideration of  30 degrees of freedom as
           vibrations may cause significant error
 Vibrational temperatures:     28.25    43.32    72.08   105.45   110.83
          (Kelvin)            136.77   142.04   150.62   171.01   237.41
                              286.29   334.19   339.67   352.40   394.67
                              412.82   462.79   476.11   537.15   594.76
                              615.94   628.36   651.78   665.11   723.54
                              750.08   810.61   826.73   836.60   888.90
                              909.23   923.12   989.17  1048.07  1062.76
                             1068.51  1089.92  1113.20  1135.48  1142.98
                             1144.13  1169.41  1198.98  1245.79  1260.75
                             1287.04  1301.08  1348.84  1359.23  1368.50
                             1389.37  1412.33  1417.31  1464.21  1495.61
                             1540.65  1545.39  1584.21  1592.05  1611.50
                             1623.12  1640.32  1698.60  1709.00  1717.99
                             1725.60  1769.91  1810.97  1819.96  1837.70
                             1878.11  1893.56  1931.44  1954.81  1988.57
                             2001.81  2016.18  2045.90  2065.28  2070.15
                             2073.16  2108.24  2117.05  2146.00  2157.16
                             2169.55  2187.66  2191.51  2196.86  2209.04
                             2209.58  2227.25  2275.96  2337.72  2391.46
                             2404.16  2411.42  2605.96  4392.42  4393.23
                             4402.26  4423.10  4480.03  4484.59  4504.54
                             4509.78  4527.84  4537.83  4577.63  4584.13
                             4590.99  4604.87  4611.85  4622.72  4642.09
                             4652.32  4673.31

 Zero-point correction=                           0.340178 (Hartree/Particle)
 Thermal correction to Energy=                    0.359529
 Thermal correction to Enthalpy=                  0.360473
 Thermal correction to Gibbs Free Energy=         0.290891
 Sum of electronic and zero-point Energies=           -940.374633
 Sum of electronic and thermal Energies=              -940.355282
 Sum of electronic and thermal Enthalpies=            -940.354338
 Sum of electronic and thermal Free Energies=         -940.423920

                     E (Thermal)             CV                S
                      KCal/Mol        Cal/Mol-Kelvin    Cal/Mol-Kelvin
 Total                  225.608             75.259            146.448
 Electronic               0.000              0.000              0.000
 Translational            0.889              2.981             42.924
 Rotational               0.889              2.981             34.642
 Vibrational            223.830             69.298             68.882
 Vibration     1          0.593              1.986              6.671
 Vibration     2          0.594              1.984              5.822
 Vibration     3          0.595              1.978              4.813
 Vibration     4          0.599              1.967              4.063
 Vibration     5          0.599              1.964              3.965
 Vibration     6          0.603              1.953              3.553
 Vibration     7          0.604              1.950              3.479
 Vibration     8          0.605              1.945              3.365
 Vibration     9          0.609              1.934              3.119
 Vibration    10          0.623              1.885              2.492
 Vibration    11          0.637              1.841              2.143
 Vibration    12          0.653              1.792              1.861
 Vibration    13          0.655              1.786              1.832
 Vibration    14          0.660              1.771              1.767
 Vibration    15          0.677              1.721              1.569
 Vibration    16          0.684              1.698              1.492
 Vibration    17          0.707              1.632              1.302
 Vibration    18          0.713              1.614              1.256
 Vibration    19          0.745              1.527              1.066
 Vibration    20          0.777              1.441              0.915
 Vibration    21          0.790              1.409              0.865
 Vibration    22          0.797              1.390              0.837
 Vibration    23          0.812              1.354              0.787
 Vibration    24          0.820              1.334              0.760
 Vibration    25          0.858              1.244              0.651
 Vibration    26          0.876              1.203              0.607
 Vibration    27          0.919              1.110              0.517
 Vibration    28          0.931              1.086              0.495
 Vibration    29          0.938              1.071              0.483
 Vibration    30          0.978              0.994              0.420

 Normal termination of Gaussian 09 at Thu Sep 30 13:17:52 2021.
 Gaussian 09:  AM64L-G09RevA.02 11-Jun-2009

 ----------------------------------------------------------------------
 #p TD(NStates=10, Root=1) b3lyp/6-31G* volume pop=NPA density=current
 Geom=AllCheck Guess=Read
 ----------------------------------------------------------------------

 CCN(C(=O)Oc1cc2ccccc2c2c1cccc2)CC_conf_0
 ----------------------------------------
 Redundant internal coordinates taken from checkpoint file:
 C19H19NO2_0a1a_conf_0.chk
 Charge =  0 Multiplicity = 1

                         Standard orientation:
 ---------------------------------------------------------------------
 Center     Atomic      Atomic             Coordinates (Angstroms)
 Number     Number       Type             X           Y           Z
 ---------------------------------------------------------------------
      1          6           0       -4.908318   -2.324868   -0.213464
      2          6           0       -4.578272   -1.066529    0.592949
      3          7           0       -3.482741   -0.283543    0.009338
      4          6           0       -2.213878   -0.628579    0.365930
      5          8           0       -1.922896   -1.541116    1.115631
      6          8           0       -1.294037    0.212109   -0.235467
      7          6           0        0.072140   -0.022118   -0.125494
      8          6           0        0.625081   -1.261558   -0.201175
      9          6           0        2.046885   -1.428547   -0.151061
     10          6           0        2.612143   -2.723966   -0.219813
     11          6           0        3.979878   -2.907387   -0.180687
     12          6           0        4.828559   -1.790204   -0.070002
     13          6           0        4.297739   -0.514803   -0.000695
     14          6           0        2.901470   -0.293242   -0.039507
     15          6           0        2.300175    1.031806    0.030186
     16          6           0        0.879332    1.165958   -0.008414
     17          6           0        0.293315    2.450588    0.064412
     18          6           0        1.076603    3.582812    0.173002
     19          6           0        2.476917    3.461849    0.209193
     20          6           0        3.068790    2.214388    0.139077
     21          6           0       -3.814947    0.794033   -0.927173
     22          6           0       -4.135208    2.121809   -0.234083
     23          1           0       -5.748418   -2.860525    0.243514
     24          1           0       -4.044050   -2.995229   -0.234309
     25          1           0       -5.184198   -2.079090   -1.245532
     26          1           0       -4.293324   -1.338846    1.611482
     27          1           0       -5.452054   -0.408720    0.656463
     28          1           0       -0.003926   -2.139081   -0.276752
     29          1           0        1.944374   -3.578068   -0.301589
     30          1           0        4.399618   -3.908241   -0.233310
     31          1           0        5.905943   -1.927707   -0.037397
     32          1           0        4.977483    0.326034    0.086000
     33          1           0       -0.786842    2.532220    0.032878
     34          1           0        0.611646    4.563259    0.230059
     35          1           0        3.098051    4.349561    0.292635
     36          1           0        4.150911    2.150575    0.169343
     37          1           0       -4.678087    0.459075   -1.515070
     38          1           0       -2.984086    0.919721   -1.622311
     39          1           0       -4.974954    2.017948    0.462324
     40          1           0       -4.403900    2.883005   -0.975693
     41          1           0       -3.269959    2.482308    0.331490
 ---------------------------------------------------------------------

 SCF Done:  E(RB3LYP) =  -940.714810891     A.U. after    2 cycles

 Excitation energies and oscillator strengths:

 Excited State   1:      Singlet-A      3.9454 eV  314.25 nm  f=0.0058  <S**2>=0.000
      77 -> 79         0.38825
      78 -> 80         0.58576
 This state for optimization and/or second-order correction.
 Total Energy, E(TD-HF/TD-KS) =  -940.569821627
 Copying the excited state density for this state as the 1-particle RhoCI density.

 Excited State   2:      Singlet-A      4.1657 eV  297.63 nm  f=0.1069  <S**2>=0.000
      77 -> 80        -0.29047
      78 -> 79         0.63522

 Excited State   3:      Singlet-A      4.7249 eV  262.41 nm  f=0.1339  <S**2>=0.000
      77 -> 79         0.54755
      78 -> 80        -0.36983
      78 -> 81        -0.16555

 Excited State   4:      Singlet-A      5.0339 eV  246.30 nm  f=0.5022  <S**2>=0.000
      75 -> 79         0.16672
      76 -> 79         0.22559
      77 -> 79        -0.10011
      77 -> 80         0.53655
      77 -> 81         0.13156
      78 -> 79         0.23423
      78 -> 81        -0.19116

 Excited State   5:      Singlet-A      5.1295 eV  241.71 nm  f=0.0320  <S**2>=0.000
      75 -> 79        -0.16942
      76 -> 79         0.64465
      77 -> 80        -0.11250
      78 -> 81         0.18924

 Excited State   6:      Singlet-A      5.1591 eV  240.32 nm  f=0.2068  <S**2>=0.000
      75 -> 79        -0.37029
      76 -> 79        -0.17366
      77 -> 80         0.26693
      77 -> 81         0.13898
      78 -> 79         0.13047
      78 -> 81         0.45055

 Excited State   7:      Singlet-A      5.2397 eV  236.63 nm  f=0.0366  <S**2>=0.000
      73 -> 79        -0.16096
      75 -> 80         0.49060
      76 -> 80         0.13361
      77 -> 80        -0.12627
      77 -> 81         0.39954
      78 -> 82        -0.11258

 Excited State   8:      Singlet-A      5.3618 eV  231.24 nm  f=0.0007  <S**2>=0.000
      75 -> 80        -0.11483
      76 -> 80         0.69038

 Excited State   9:      Singlet-A      5.6332 eV  220.09 nm  f=0.1286  <S**2>=0.000
      74 -> 79         0.52143
      75 -> 79         0.35805
      78 -> 81         0.24906

 Excited State  10:      Singlet-A      5.7539 eV  215.48 nm  f=0.0061  <S**2>=0.000
      73 -> 79         0.42772
      74 -> 79         0.25754
      75 -> 79        -0.11930
      75 -> 80         0.15063
      77 -> 81         0.11035
      78 -> 82         0.43037

 The electronic state is 1-A.
 Alpha  occ. eigenvalues --  -19.19649 -19.11714 -14.36612 -10.33263 -10.24920
 Alpha  occ. eigenvalues --  -10.22937 -10.22367 -10.20096 -10.19941 -10.19655
 Alpha  occ. eigenvalues --  -10.19581 -10.18963 -10.18904 -10.18877 -10.18784
 Alpha  occ. eigenvalues --  -10.18747 -10.18713 -10.18659 -10.18601 -10.18523
 Alpha  occ. eigenvalues --  -10.18396 -10.18060  -1.10542  -1.01592  -0.94181
 Alpha  occ. eigenvalues --   -0.87683  -0.84338  -0.80545  -0.77520  -0.77156
 Alpha  occ. eigenvalues --   -0.75738  -0.74589  -0.71990  -0.71489  -0.66628
 Alpha  occ. eigenvalues --   -0.64759  -0.62839  -0.62471  -0.60650  -0.58215
 Alpha  occ. eigenvalues --   -0.56596  -0.53545  -0.52679  -0.51677  -0.49409
 Alpha  occ. eigenvalues --   -0.48175  -0.47740  -0.47220  -0.45800  -0.44735
 Alpha  occ. eigenvalues --   -0.44315  -0.44011  -0.42985  -0.42407  -0.41957
 Alpha  occ. eigenvalues --   -0.41751  -0.41640  -0.40094  -0.39742  -0.39206
 Alpha  occ. eigenvalues --   -0.38550  -0.37732  -0.37518  -0.36380  -0.35817
 Alpha  occ. eigenvalues --   -0.35754  -0.35440  -0.35205  -0.33834  -0.32678
 Alpha  occ. eigenvalues --   -0.32326  -0.29210  -0.27767  -0.27233  -0.25553
 Alpha  occ. eigenvalues --   -0.24314  -0.22022  -0.20372
 Alpha virt. eigenvalues --   -0.03435  -0.02909   0.01073   0.03902   0.04977
 Alpha virt. eigenvalues --    0.07313   0.09029   0.09389   0.09896   0.11068
 Alpha virt. eigenvalues --    0.11997   0.12215   0.13699   0.14496   0.14844

 Mulliken atomic charges:
              1
     1  C   -0.445092
     2  C   -0.144925
     3  N   -0.438898
     4  C    0.792398
     5  O   -0.510860
     6  O   -0.555306
     7  C    0.309159
     8  C   -0.209729
     9  C    0.131498
    10  C   -0.202477
    11  C   -0.144531
    12  C   -0.127131
    13  C   -0.200790
    14  C    0.078173
    15  C    0.042820
    16  C    0.086898
    17  C   -0.198893
    18  C   -0.150371
    19  C   -0.124713
    20  C   -0.207044
    21  C   -0.147795
    22  C   -0.450267
    23  H    0.149951
    24  H    0.173766
    25  H    0.145814
    26  H    0.183963
    27  H    0.146602
    28  H    0.167192
    29  H    0.132576
    30  H    0.126162
    31  H    0.131552
    32  H    0.133759
    33  H    0.140610
    34  H    0.120101
    35  H    0.127468
    36  H    0.128950
    37  H    0.151782
    38  H    0.181337
    39  H    0.152747
    40  H    0.151835
    41  H    0.171709
 Sum of Mulliken atomic charges =  -0.00000

 Dipole moment (field-independent basis, Debye):
    X=             -2.8249    Y=              0.6527    Z=             -1.5470  Tot=              3.2863
 Quadrupole moment (field-independent basis, Debye-Ang):
   XX=           -102.8821   YY=           -122.1130   ZZ=           -133.8661
   XY=             -2.5892   XZ=              3.3316   YZ=              2.9493

 Summary of Natural Population Analysis:

                                       Natural Population
                Natural  -----------------------------------------------
    Atom  No    Charge         Core      Valence    Rydberg      Total
 -----------------------------------------------------------------------
      C    1   -0.68867      1.99945     4.68176    0.00746     6.68867
      C    2   -0.25548      1.99935     4.24069    0.01543     6.25548
      N    3   -0.49609      1.99930     5.48326    0.01353     7.49609
      C    4    0.94271      1.99936     3.01254    0.04539     5.05729
      O    5   -0.64217      1.99978     6.62327    0.01912     8.64217
      O    6   -0.54706      1.99969     6.53730    0.01007     8.54706
      C    7    0.36574      1.99867     3.61380    0.02178     5.63426
      C    8   -0.20345      1.99897     4.19109    0.01339     6.20345
      C    9   -0.06051      1.99903     4.04668    0.01479     6.06051
      C   10   -0.19496      1.99907     4.18161    0.01427     6.19496
      C   11   -0.26461      1.99911     4.24976    0.01574     6.26461
      C   12   -0.19858      1.99911     4.18485    0.01462     6.19858
      C   13   -0.22444      1.99908     4.21117    0.01419     6.22444
      C   14   -0.03769      1.99901     4.02398    0.01470     6.03769
      C   15   -0.03870      1.99903     4.02465    0.01502     6.03870
      C   16   -0.09522      1.99897     4.08152    0.01473     6.09522
      C   17   -0.21011      1.99908     4.19615    0.01488     6.21011
      C   18   -0.26615      1.99910     4.25121    0.01584     6.26615
      C   19   -0.20391      1.99911     4.19017    0.01463     6.20391
      C   20   -0.23237      1.99908     4.21901    0.01427     6.23237
      C   21   -0.26038      1.99934     4.24599    0.01505     6.26038
      C   22   -0.68717      1.99945     4.68022    0.00751     6.68717
      H   23    0.23656      0.00000     0.76261    0.00083     0.76344
      H   24    0.24302      0.00000     0.75570    0.00128     0.75698
      H   25    0.22484      0.00000     0.77423    0.00092     0.77516
      H   26    0.25832      0.00000     0.73980    0.00188     0.74168
      H   27    0.22846      0.00000     0.77025    0.00130     0.77154
      H   28    0.25889      0.00000     0.73965    0.00146     0.74111
      H   29    0.23279      0.00000     0.76615    0.00106     0.76721
      H   30    0.23456      0.00000     0.76463    0.00080     0.76544
      H   31    0.23502      0.00000     0.76416    0.00082     0.76498
      H   32    0.22917      0.00000     0.76986    0.00097     0.77083
      H   33    0.23577      0.00000     0.76306    0.00117     0.76423
      H   34    0.23171      0.00000     0.76749    0.00080     0.76829
      H   35    0.23368      0.00000     0.76549    0.00083     0.76632
      H   36    0.22713      0.00000     0.77189    0.00098     0.77287
      H   37    0.23168      0.00000     0.76684    0.00149     0.76832
      H   38    0.25611      0.00000     0.74246    0.00143     0.74389
      H   39    0.22904      0.00000     0.77009    0.00087     0.77096
      H   40    0.23761      0.00000     0.76150    0.00089     0.76239
      H   41    0.23488      0.00000     0.76393    0.00118     0.76512
 =======================================================================
   * Total *    0.00000     43.98213   111.65050    0.36737   156.00000

 Normal termination of Gaussian 09 at Thu Sep 30 21:10:22 2021.
