 Gaussian 09, Revision A.02,

 -----------------------------------
 #p opt b3lyp/6-31G* scf=(xqc,tight)
 -----------------------------------

 ----------------------------------------
 COc1ccc2c(c1)ccc(c2)/C=C/c1ccccc1_conf_0
 ----------------------------------------
 Symbolic Z-matrix:
 Charge =  0 Multiplicity = 1

 SCF Done:  E(RB3LYP) =  -808.868954112     A.U. after   14 cycles
 SCF Done:  E(RB3LYP) =  -808.874476290     A.U. after   12 cycles
 SCF Done:  E(RB3LYP) =  -808.875695433     A.U. after   14 cycles
 SCF Done:  E(RB3LYP) =  -808.876124637     A.U. after   12 cycles
 SCF Done:  E(RB3LYP) =  -808.876408153     A.U. after   14 cycles
 SCF Done:  E(RB3LYP) =  -808.876532582     A.U. after   12 cycles
 SCF Done:  E(RB3LYP) =  -808.876574470     A.U. after   11 cycles
 SCF Done:  E(RB3LYP) =  -808.876586223     A.U. after   11 cycles
 SCF Done:  E(RB3LYP) =  -808.876593336     A.U. after   15 cycles
 SCF Done:  E(RB3LYP) =  -808.876597236     A.U. after   10 cycles
 SCF Done:  E(RB3LYP) =  -808.876599568     A.U. after    9 cycles
 SCF Done:  E(RB3LYP) =  -808.876600081     A.U. after    8 cycles
 SCF Done:  E(RB3LYP) =  -808.876600112     A.U. after    7 cycles
 Optimization completed.
    -- Stationary point found.
 Normal termination of Gaussian 09 at Tue Sep 28 18:20:44 2021.

 ----------------------------------------------------------------------
 #p freq b3lyp/6-31G* volume NMR pop=NPA density=current Geom=AllCheck
 Guess=Read
 ----------------------------------------------------------------------

 COc1ccc2c(c1)ccc(c2)/C=C/c1ccccc1_conf_0
 ----------------------------------------
 Redundant internal coordinates taken from checkpoint file:
 C19H16O_a062_conf_0.chk
 Charge =  0 Multiplicity = 1

 SCF Done:  E(RB3LYP) =  -808.876600112     A.U. after    1 cycles

  1  C    Isotropic =   137.2349   Anisotropy =    65.2974

  2  O    Isotropic =   238.3149   Anisotropy =    73.0141

  3  C    Isotropic =    40.7737   Anisotropy =   122.7397

  4  C    Isotropic =    84.5400   Anisotropy =   144.5348

  5  C    Isotropic =    65.8929   Anisotropy =   144.3662

  6  C    Isotropic =    67.6784   Anisotropy =   187.7426

  7  C    Isotropic =    62.3927   Anisotropy =   191.6757

  8  C    Isotropic =    81.9958   Anisotropy =   113.3274

  9  C    Isotropic =    68.2759   Anisotropy =   139.5199

 10  C    Isotropic =    73.7834   Anisotropy =   159.0076

 11  C    Isotropic =    63.8566   Anisotropy =   170.2681

 12  C    Isotropic =    65.2355   Anisotropy =   124.7704

 13  C    Isotropic =    67.7208   Anisotropy =   119.7601

 14  C    Isotropic =    68.7847   Anisotropy =   117.3786

 15  C    Isotropic =    59.6277   Anisotropy =   179.9905

 16  C    Isotropic =    65.4375   Anisotropy =   145.0732

 17  C    Isotropic =    67.8310   Anisotropy =   163.0602

 18  C    Isotropic =    69.5726   Anisotropy =   163.1637

 19  C    Isotropic =    68.1098   Anisotropy =   163.4361

 20  C    Isotropic =    73.7589   Anisotropy =   161.4750

 21  H    Isotropic =    28.2201   Anisotropy =     8.2480

 22  H    Isotropic =    28.5155   Anisotropy =     8.2704

 23  H    Isotropic =    28.5154   Anisotropy =     8.2706

 24  H    Isotropic =    25.3885   Anisotropy =     7.9858

 25  H    Isotropic =    24.6262   Anisotropy =     7.5505

 26  H    Isotropic =    25.2511   Anisotropy =     8.0210

 27  H    Isotropic =    24.7282   Anisotropy =     7.6289

 28  H    Isotropic =    24.4630   Anisotropy =     8.9321

 29  H    Isotropic =    24.9884   Anisotropy =     8.8337

 30  H    Isotropic =    25.2816   Anisotropy =     9.5609

 31  H    Isotropic =    25.4547   Anisotropy =     9.3237

 32  H    Isotropic =    25.2294   Anisotropy =     6.9004

 33  H    Isotropic =    25.0220   Anisotropy =     4.6913

 34  H    Isotropic =    25.1549   Anisotropy =     4.1905

 35  H    Isotropic =    24.9655   Anisotropy =     5.1564

 36  H    Isotropic =    24.5250   Anisotropy =     8.4135

  Exact polarizability: 499.925  17.100 197.286   0.001   0.001  69.409
 Approx polarizability: 686.740  42.480 365.181   0.002   0.001 108.494

                     1                      2                      3
                     A                      A                      A
 Frequencies --    17.9713                32.8247                55.0309
 Red. masses --     3.9352                 4.7369                 5.0101
 Frc consts  --     0.0007                 0.0030                 0.0089
 IR Inten    --     0.1699                 0.1593                 0.1298

                     4                      5                      6
                     A                      A                      A
 Frequencies --    66.6523                80.9275               125.3832
 Red. masses --     3.7390                 3.3419                 3.6448
 Frc consts  --     0.0098                 0.0129                 0.0338
 IR Inten    --     1.2352                 1.8666                 1.7235

                     7                      8                      9
                     A                      A                      A
 Frequencies --   162.8931               184.3555               192.8474
 Red. masses --     5.1091                 3.2959                 5.1569
 Frc consts  --     0.0799                 0.0660                 0.1130
 IR Inten    --     0.7146                 0.2951                 0.4866

                    10                     11                     12
                     A                      A                      A
 Frequencies --   220.1946               253.4761               254.6820
 Red. masses --     2.0640                 1.6319                 4.2979
 Frc consts  --     0.0590                 0.0618                 0.1642
 IR Inten    --     0.0522                 0.0813                 2.8412

                    13                     14                     15
                     A                      A                      A
 Frequencies --   283.5183               346.4914               386.8202
 Red. masses --     2.6587                 4.1257                 4.2948
 Frc consts  --     0.1259                 0.2918                 0.3786
 IR Inten    --     0.7804                 0.1190                 0.1795

                    16                     17                     18
                     A                      A                      A
 Frequencies --   413.2080               414.7315               417.0000
 Red. masses --     5.4007                 3.0025                 3.5072
 Frc consts  --     0.5433                 0.3043                 0.3593
 IR Inten    --     2.1491                 0.0085                 0.0721

                    19                     20                     21
                     A                      A                      A
 Frequencies --   487.2036               492.4363               507.4394
 Red. masses --     2.6818                 4.4995                 3.1102
 Frc consts  --     0.3751                 0.6429                 0.4719
 IR Inten    --     6.3326                 2.7643                 3.3144

                    22                     23                     24
                     A                      A                      A
 Frequencies --   529.4287               543.2614               583.8849
 Red. masses --     5.5290                 5.9716                 2.8721
 Frc consts  --     0.9131                 1.0384                 0.5769
 IR Inten    --    11.2244                26.2590                 1.9301

                    25                     26                     27
                     A                      A                      A
 Frequencies --   592.2031               635.2097               652.0469
 Red. masses --     5.6552                 6.4085                 6.5430
 Frc consts  --     1.1685                 1.5235                 1.6390
 IR Inten    --     2.2612                 0.0483                 3.9973

                    28                     29                     30
                     A                      A                      A
 Frequencies --   670.8209               705.0152               722.3498
 Red. masses --     3.6914                 1.8518                 5.8383
 Frc consts  --     0.9787                 0.5423                 1.7949
 IR Inten    --     1.7211                23.4888                 7.7179

                    31                     32                     33
                     A                      A                      A
 Frequencies --   761.1326               771.1620               780.2586
 Red. masses --     2.4304                 2.0738                 5.8975
 Frc consts  --     0.8296                 0.7266                 2.1154
 IR Inten    --    13.5393                12.4667                 0.9305

                    34                     35                     36
                     A                      A                      A
 Frequencies --   815.1232               822.0431               848.9328
 Red. masses --     1.4319                 1.5211                 1.3113
 Frc consts  --     0.5606                 0.6056                 0.5568
 IR Inten    --    21.2960                 7.8765                 0.2942

                    37                     38                     39
                     A                      A                      A
 Frequencies --   849.1221               870.0608               874.1138
 Red. masses --     4.3102                 1.6756                 4.1485
 Frc consts  --     1.8310                 0.7473                 1.8676
 IR Inten    --     6.8991                 7.8516                 0.9068

                    40                     41                     42
                     A                      A                      A
 Frequencies --   887.8278               909.2986               926.4323
 Red. masses --     1.5231                 1.4830                 1.6370
 Frc consts  --     0.7073                 0.7224                 0.8278
 IR Inten    --    27.1641                13.7914                 0.0125

                    43                     44                     45
                     A                      A                      A
 Frequencies --   945.7186               950.1197               962.4381
 Red. masses --     4.9418                 1.3194                 1.3486
 Frc consts  --     2.6041                 0.7018                 0.7360
 IR Inten    --     3.3420                 0.8681                 0.7298

                    46                     47                     48
                     A                      A                      A
 Frequencies --   963.0771               981.8338               988.9287
 Red. masses --     1.2973                 3.3742                 1.2376
 Frc consts  --     0.7089                 1.9164                 0.7131
 IR Inten    --     2.4292                 0.7404                 3.2189

                    49                     50                     51
                     A                      A                      A
 Frequencies --  1008.8833              1014.9785              1059.8870
 Red. masses --     1.1315                 6.0141                 2.2205
 Frc consts  --     0.6786                 3.6503                 1.4697
 IR Inten    --    27.4598                 0.0449                 2.4070

                    52                     53                     54
                     A                      A                      A
 Frequencies --  1081.3265              1114.2584              1170.2651
 Red. masses --     3.5816                 1.6302                 1.6780
 Frc consts  --     2.4674                 1.1925                 1.3539
 IR Inten    --    59.1992                 3.6125                28.5474

                    55                     56                     57
                     A                      A                      A
 Frequencies --  1183.3141              1192.6553              1193.3972
 Red. masses --     1.2679                 1.2713                 1.2613
 Frc consts  --     1.0460                 1.0654                 1.0584
 IR Inten    --     0.7026                 9.0088                13.4380

                    58                     59                     60
                     A                      A                      A
 Frequencies --  1203.5214              1209.0926              1218.2704
 Red. masses --     1.4645                 1.4746                 1.1985
 Frc consts  --     1.2498                 1.2701                 1.0480
 IR Inten    --    67.6817                73.2979                 1.4782

                    61                     62                     63
                     A                      A                      A
 Frequencies --  1221.1619              1254.1867              1295.5251
 Red. masses --     1.6099                 1.9606                 1.6454
 Frc consts  --     1.4144                 1.8170                 1.6271
 IR Inten    --    16.9142                31.1238                 1.8003

                    64                     65                     66
                     A                      A                      A
 Frequencies --  1304.1666              1306.3328              1319.5421
 Red. masses --     1.8183                 3.5389                 3.0620
 Frc consts  --     1.8221                 3.5581                 3.1412
 IR Inten    --     7.4812                32.8691               413.1462

                    67                     68                     69
                     A                      A                      A
 Frequencies --  1356.9270              1370.2124              1379.1363
 Red. masses --     1.9570                 2.3994                 1.3455
 Frc consts  --     2.1230                 2.6541                 1.5078
 IR Inten    --     0.1038                 0.5915                 3.0516

                    70                     71                     72
                     A                      A                      A
 Frequencies --  1392.4955              1415.8055              1432.4302
 Red. masses --     2.1567                 3.1455                 3.6857
 Frc consts  --     2.4640                 3.7149                 4.4557
 IR Inten    --    14.9018                 6.5714                12.1492

                    73                     74                     75
                     A                      A                      A
 Frequencies --  1465.9423              1498.0969              1501.1377
 Red. masses --     4.4519                 1.9503                 1.3683
 Frc consts  --     5.6367                 2.5788                 1.8166
 IR Inten    --     1.4139                15.8993                28.2524

                    76                     77                     78
                     A                      A                      A
 Frequencies --  1522.9107              1532.6404              1538.4634
 Red. masses --     1.0484                 1.3639                 1.5082
 Frc consts  --     1.4326                 1.8876                 2.1032
 IR Inten    --     5.2269               114.8743                 1.0251

                    79                     80                     81
                     A                      A                      A
 Frequencies --  1548.4834              1556.8776              1616.2188
 Red. masses --     2.2406                 3.4277                 6.4360
 Frc consts  --     3.1655                 4.8951                 9.9053
 IR Inten    --     3.9390                59.1886                19.6978

                    82                     83                     84
                     A                      A                      A
 Frequencies --  1632.7917              1657.0160              1663.1523
 Red. masses --     5.0346                 5.2947                 5.6007
 Frc consts  --     7.9082                 8.5653                 9.1275
 IR Inten    --     1.3404                 6.4535               139.0621

                    85                     86                     87
                     A                      A                      A
 Frequencies --  1682.9067              1702.4583              3025.5286
 Red. masses --     5.9022                 5.1804                 1.0349
 Frc consts  --     9.8488                 8.8464                 5.5813
 IR Inten    --    97.1302                 3.2845                94.2907

                    88                     89                     90
                     A                      A                      A
 Frequencies --  3084.6921              3156.6927              3157.1167
 Red. masses --     1.1068                 1.0995                 1.0896
 Frc consts  --     6.2052                 6.4553                 6.3988
 IR Inten    --    44.7073                34.7490                 0.6167

                    91                     92                     93
                     A                      A                      A
 Frequencies --  3164.9421              3170.1114              3175.4190
 Red. masses --     1.0864                 1.0886                 1.0860
 Frc consts  --     6.4118                 6.4456                 6.4517
 IR Inten    --    13.4275                28.0178                20.8061

                    94                     95                     96
                     A                      A                      A
 Frequencies --  3181.7729              3182.9855              3183.5419
 Red. masses --     1.0880                 1.0866                 1.0889
 Frc consts  --     6.4893                 6.4863                 6.5023
 IR Inten    --     6.4911                 0.6420                12.2844

                    97                     98                     99
                     A                      A                      A
 Frequencies --  3193.2494              3203.5273              3204.3294
 Red. masses --     1.0908                 1.0927                 1.0905
 Frc consts  --     6.5535                 6.6072                 6.5972
 IR Inten    --    18.4230                36.7541                10.3318

                   100                    101                    102
                     A                      A                      A
 Frequencies --  3209.8869              3211.0111              3225.5838
 Red. masses --     1.0924                 1.0971                 1.0916
 Frc consts  --     6.6314                 6.6649                 6.6917
 IR Inten    --    21.7319                30.4034                19.3585

 - Thermochemistry -
 -------------------
 Temperature   298.150 Kelvin.  Pressure   1.00000 Atm.
 Atom     1 has atomic number  6 and mass  12.00000

 Molecular mass:   260.12012 amu.
 Principal axes and moments of inertia in atomic units:
                           1         2         3
     Eigenvalues --  1046.02121********************
           X            0.99999   0.00333  -0.00000
           Y           -0.00333   0.99999   0.00000
           Z            0.00000  -0.00000   1.00000
 This molecule is an asymmetric top.
 Rotational symmetry number  1.
 Warning -- assumption of classical behavior for rotation
           may cause significant error
 Rotational temperatures (Kelvin)      0.08280     0.00482     0.00455
 Rotational constants (GHZ):           1.72534     0.10033     0.09488
 Zero-point vibrational energy     774493.4 (Joules/Mol)
                                  185.10837 (Kcal/Mol)
 Warning -- explicit consideration of  25 degrees of freedom as
           vibrations may cause significant error
 Vibrational temperatures:     25.86    47.23    79.18    95.90   116.44
          (Kelvin)            180.40   234.37   265.25   277.46   316.81
                              364.70   366.43   407.92   498.52   556.55
                              594.51   596.71   599.97   700.98   708.51
                              730.09   761.73   781.63   840.08   852.05
                              913.92   938.15   965.16  1014.36  1039.30
                             1095.10  1109.53  1122.62  1172.78  1182.74
                             1221.42  1221.70  1251.82  1257.65  1277.38
                             1308.28  1332.93  1360.68  1367.01  1384.73
                             1385.65  1412.64  1422.85  1451.56  1460.33
                             1524.94  1555.79  1603.17  1683.75  1702.52
                             1715.96  1717.03  1731.60  1739.61  1752.82
                             1756.98  1804.49  1863.97  1876.40  1879.52
                             1898.52  1952.31  1971.43  1984.27  2003.49
                             2037.03  2060.94  2109.16  2155.42  2159.80
                             2191.13  2205.12  2213.50  2227.92  2240.00
                             2325.38  2349.22  2384.07  2392.90  2421.32
                             2449.45  4353.06  4438.18  4541.77  4542.38
                             4553.64  4561.08  4568.71  4577.86  4579.60
                             4580.40  4594.37  4609.16  4610.31  4618.31
                             4619.92  4640.89

 Zero-point correction=                           0.294989 (Hartree/Particle)
 Thermal correction to Energy=                    0.311502
 Thermal correction to Enthalpy=                  0.312446
 Thermal correction to Gibbs Free Energy=         0.249008
 Sum of electronic and zero-point Energies=           -808.581611
 Sum of electronic and thermal Energies=              -808.565098
 Sum of electronic and thermal Enthalpies=            -808.564154
 Sum of electronic and thermal Free Energies=         -808.627592

                     E (Thermal)             CV                S
                      KCal/Mol        Cal/Mol-Kelvin    Cal/Mol-Kelvin
 Total                  195.470             65.413            133.516
 Electronic               0.000              0.000              0.000
 Translational            0.889              2.981             42.568
 Rotational               0.889              2.981             34.236
 Vibrational            193.693             59.452             56.712
 Vibration     1          0.593              1.986              6.847
 Vibration     2          0.594              1.983              5.651
 Vibration     3          0.596              1.976              4.628
 Vibration     4          0.598              1.970              4.250
 Vibration     5          0.600              1.962              3.868
 Vibration     6          0.610              1.928              3.016
 Vibration     7          0.623              1.888              2.516
 Vibration     8          0.631              1.861              2.284
 Vibration     9          0.635              1.850              2.200
 Vibration    10          0.647              1.810              1.957
 Vibration    11          0.665              1.757              1.706
 Vibration    12          0.665              1.755              1.698
 Vibration    13          0.682              1.704              1.512
 Vibration    14          0.724              1.582              1.182
 Vibration    15          0.755              1.498              1.012
 Vibration    16          0.777              1.442              0.915
 Vibration    17          0.778              1.438              0.910
 Vibration    18          0.780              1.433              0.902
 Vibration    19          0.843              1.278              0.691
 Vibration    20          0.848              1.267              0.677
 Vibration    21          0.863              1.234              0.640
 Vibration    22          0.884              1.185              0.588
 Vibration    23          0.898              1.154              0.558
 Vibration    24          0.941              1.066              0.478
 Vibration    25          0.950              1.048              0.463

 Optimization completed.
    -- Stationary point found.
 Normal termination of Gaussian 09 at Tue Sep 28 19:47:37 2021.
 Gaussian 09:  AM64L-G09RevA.02 11-Jun-2009

 ----------------------------------------------------------------------
 #p TD(NStates=10, Root=1) b3lyp/6-31G* volume pop=NPA density=current
 Geom=AllCheck Guess=Read
 ----------------------------------------------------------------------

 COc1ccc2c(c1)ccc(c2)/C=C/c1ccccc1_conf_0
 ----------------------------------------
 Redundant internal coordinates taken from checkpoint file:
 C19H16O_a062_conf_0.chk
 Charge =  0 Multiplicity = 1

                         Standard orientation:
 ---------------------------------------------------------------------
 Center     Atomic      Atomic             Coordinates (Angstroms)
 Number     Number       Type             X           Y           Z
 ---------------------------------------------------------------------
      1          6           0       -7.125949   -0.485344    0.000064
      2          8           0       -6.105854    0.500214   -0.000005
      3          6           0       -4.801009    0.095620   -0.000006
      4          6           0       -4.397197   -1.264742    0.000018
      5          6           0       -3.055557   -1.583015    0.000020
      6          6           0       -2.054899   -0.579265    0.000000
      7          6           0       -2.471200    0.792453   -0.000025
      8          6           0       -3.847655    1.100832   -0.000029
      9          6           0       -1.459888    1.797864   -0.000036
     10          6           0       -0.129581    1.470236   -0.000030
     11          6           0        0.304373    0.105982   -0.000022
     12          6           0       -0.670428   -0.881675    0.000001
     13          6           0        1.713770   -0.282724   -0.000024
     14          6           0        2.786644    0.536474   -0.000043
     15          6           0        4.198826    0.144765   -0.000022
     16          6           0        5.180088    1.154485    0.000057
     17          6           0        6.539076    0.846902    0.000088
     18          6           0        6.954857   -0.484952    0.000045
     19          6           0        5.995266   -1.502303   -0.000035
     20          6           0        4.638755   -1.194252   -0.000066
     21          1           0       -8.069462    0.063684    0.000093
     22          1           0       -7.078847   -1.119831    0.895079
     23          1           0       -7.078927   -1.119873   -0.894925
     24          1           0       -5.135268   -2.058707    0.000027
     25          1           0       -2.752025   -2.627314    0.000038
     26          1           0       -4.178768    2.135324   -0.000047
     27          1           0       -1.763476    2.842096   -0.000045
     28          1           0        0.609201    2.265695   -0.000020
     29          1           0       -0.369521   -1.927905    0.000021
     30          1           0        1.877309   -1.359579    0.000013
     31          1           0        2.624435    1.613180   -0.000053
     32          1           0        4.864047    2.195421    0.000096
     33          1           0        7.273063    1.648570    0.000150
     34          1           0        8.013371   -0.730248    0.000069
     35          1           0        6.308131   -2.543367   -0.000070
     36          1           0        3.913810   -2.002902   -0.000128
 ---------------------------------------------------------------------

 SCF Done:  E(RB3LYP) =  -808.876600112     A.U. after    2 cycles

 Excitation energies and oscillator strengths:

 Excited State   1:      Singlet-A      3.5751 eV  346.80 nm  f=1.0268  <S**2>=0.000
      69 -> 70         0.69851
 This state for optimization and/or second-order correction.
 Total Energy, E(TD-HF/TD-KS) =  -808.745216964
 Copying the excited state density for this state as the 1-particle RhoCI density.

 Excited State   2:      Singlet-A      3.7129 eV  333.93 nm  f=0.0400  <S**2>=0.000
      67 -> 70         0.12135
      68 -> 70         0.30706
      69 -> 71         0.61525

 Excited State   3:      Singlet-A      4.2813 eV  289.59 nm  f=0.5200  <S**2>=0.000
      68 -> 70         0.62076
      69 -> 71        -0.31034

 Excited State   4:      Singlet-A      4.5206 eV  274.27 nm  f=0.0207  <S**2>=0.000
      66 -> 70         0.40780
      67 -> 70        -0.15537
      68 -> 72        -0.11434
      69 -> 72         0.51435

 Excited State   5:      Singlet-A      4.5754 eV  270.98 nm  f=0.0089  <S**2>=0.000
      66 -> 70         0.12703
      67 -> 70         0.56838
      68 -> 71         0.21888
      69 -> 71        -0.11167
      69 -> 72         0.10297
      69 -> 73        -0.25045

 Excited State   6:      Singlet-A      4.8111 eV  257.71 nm  f=0.0408  <S**2>=0.000
      68 -> 71         0.54400
      69 -> 73         0.41641

 Excited State   7:      Singlet-A      4.9942 eV  248.26 nm  f=0.0548  <S**2>=0.000
      66 -> 70         0.50097
      67 -> 71        -0.10095
      68 -> 71         0.11279
      68 -> 72        -0.10200
      69 -> 72        -0.43461

 Excited State   8:      Singlet-A      5.1012 eV  243.05 nm  f=0.0745  <S**2>=0.000
      67 -> 70         0.19735
      67 -> 71         0.60541
      68 -> 73         0.16864
      69 -> 73         0.15202

 Excited State   9:      Singlet-A      5.3640 eV  231.14 nm  f=0.0230  <S**2>=0.000
      64 -> 70         0.10894
      65 -> 70         0.43294
      67 -> 71         0.11066
      68 -> 71         0.10343
      69 -> 73        -0.10315
      69 -> 74         0.50071

 Excited State  10:      Singlet-A      5.5143 eV  224.84 nm  f=0.0006  <S**2>=0.000
      66 -> 70        -0.13905
      66 -> 71         0.61534
      68 -> 72        -0.26701

 The electronic state is 1-A.
 Alpha  occ. eigenvalues --  -19.17901 -10.24909 -10.24353 -10.19660 -10.19629
 Alpha  occ. eigenvalues --  -10.19555 -10.19460 -10.19306 -10.19262 -10.18941
 Alpha  occ. eigenvalues --  -10.18810 -10.18808 -10.18797 -10.18769 -10.18720
 Alpha  occ. eigenvalues --  -10.18700 -10.18652 -10.18623 -10.18607 -10.18192
 Alpha  occ. eigenvalues --   -1.06462  -0.87085  -0.85301  -0.82625  -0.78862
 Alpha  occ. eigenvalues --   -0.77266  -0.75294  -0.74104  -0.72940  -0.71616
 Alpha  occ. eigenvalues --   -0.68569  -0.63023  -0.62437  -0.60260  -0.59704
 Alpha  occ. eigenvalues --   -0.58721  -0.55447  -0.53199  -0.51617  -0.50376
 Alpha  occ. eigenvalues --   -0.49847  -0.47000  -0.46757  -0.46590  -0.44893
 Alpha  occ. eigenvalues --   -0.44555  -0.44042  -0.42393  -0.41717  -0.41569
 Alpha  occ. eigenvalues --   -0.40780  -0.40119  -0.39225  -0.39013  -0.36995
 Alpha  occ. eigenvalues --   -0.36520  -0.35554  -0.35362  -0.34184  -0.33782
 Alpha  occ. eigenvalues --   -0.33228  -0.32120  -0.31698  -0.29331  -0.27374
 Alpha  occ. eigenvalues --   -0.24730  -0.23740  -0.22141  -0.18768
 Alpha virt. eigenvalues --   -0.05023  -0.02854   0.00388   0.01419   0.03711
 Alpha virt. eigenvalues --    0.06679   0.09231   0.09625   0.09823   0.10752
 Alpha virt. eigenvalues --    0.12022   0.12759   0.12896   0.13875   0.14703

 Mulliken atomic charges:
              1
     1  C   -0.223267
     2  O   -0.485166
     3  C    0.383950
     4  C   -0.195398
     5  C   -0.204327
     6  C    0.160448
     7  C    0.144827
     8  C   -0.253534
     9  C   -0.196157
    10  C   -0.176672
    11  C    0.195743
    12  C   -0.299644
    13  C   -0.206257
    14  C   -0.195428
    15  C    0.176955
    16  C   -0.194968
    17  C   -0.133050
    18  C   -0.139734
    19  C   -0.128476
    20  C   -0.189670
    21  H    0.179149
    22  H    0.163339
    23  H    0.163339
    24  H    0.136441
    25  H    0.138435
    26  H    0.149107
    27  H    0.134386
    28  H    0.136427
    29  H    0.125054
    30  H    0.121221
    31  H    0.117769
    32  H    0.117182
    33  H    0.120300
    34  H    0.118382
    35  H    0.120497
    36  H    0.118797
 Sum of Mulliken atomic charges =  -0.00000

 Dipole moment (field-independent basis, Debye):
    X=             -5.9201    Y=             -0.7766    Z=              0.0001  Tot=              5.9708
 Quadrupole moment (field-independent basis, Debye-Ang):
   XX=            -91.2066   YY=           -103.9170   ZZ=           -122.9862
   XY=              7.8702   XZ=             -0.0003   YZ=              0.0001

 Summary of Natural Population Analysis:

                                       Natural Population
                Natural  -----------------------------------------------
    Atom  No    Charge         Core      Valence    Rydberg      Total
 -----------------------------------------------------------------------
      C    1   -0.32132      1.99942     4.30783    0.01407     6.32132
      O    2   -0.48312      1.99974     6.47161    0.01177     8.48312
      C    3    0.33340      1.99880     3.64549    0.02232     5.66660
      C    4   -0.31915      1.99904     4.30750    0.01261     6.31915
      C    5   -0.18952      1.99907     4.17547    0.01499     6.18952
      C    6   -0.04967      1.99903     4.03606    0.01459     6.04967
      C    7   -0.05555      1.99902     4.04211    0.01442     6.05555
      C    8   -0.22489      1.99900     4.21154    0.01435     6.22489
      C    9   -0.20256      1.99906     4.18948    0.01402     6.20256
      C   10   -0.20366      1.99906     4.19189    0.01272     6.20366
      C   11   -0.04116      1.99902     4.02599    0.01614     6.04116
      C   12   -0.21205      1.99903     4.19964    0.01338     6.21205
      C   13   -0.24812      1.99907     4.23467    0.01439     6.24812
      C   14   -0.19154      1.99907     4.17853    0.01394     6.19154
      C   15   -0.09055      1.99902     4.07557    0.01596     6.09055
      C   16   -0.20809      1.99906     4.19622    0.01281     6.20809
      C   17   -0.24222      1.99910     4.22879    0.01433     6.24222
      C   18   -0.25078      1.99909     4.23687    0.01482     6.25078
      C   19   -0.23023      1.99911     4.21705    0.01407     6.23023
      C   20   -0.22688      1.99905     4.21459    0.01324     6.22688
      H   21    0.23360      0.00000     0.76585    0.00054     0.76640
      H   22    0.20982      0.00000     0.78816    0.00202     0.79018
      H   23    0.20982      0.00000     0.78816    0.00202     0.79018
      H   24    0.24106      0.00000     0.75808    0.00086     0.75894
      H   25    0.23830      0.00000     0.76055    0.00115     0.76170
      H   26    0.24783      0.00000     0.75069    0.00148     0.75217
      H   27    0.23580      0.00000     0.76315    0.00105     0.76420
      H   28    0.23625      0.00000     0.76275    0.00100     0.76375
      H   29    0.22875      0.00000     0.76986    0.00139     0.77125
      H   30    0.21836      0.00000     0.78032    0.00133     0.78164
      H   31    0.21301      0.00000     0.78553    0.00147     0.78699
      H   32    0.22600      0.00000     0.77280    0.00120     0.77400
      H   33    0.23223      0.00000     0.76684    0.00093     0.76777
      H   34    0.23005      0.00000     0.76898    0.00097     0.76995
      H   35    0.23194      0.00000     0.76712    0.00094     0.76806
      H   36    0.22487      0.00000     0.77396    0.00117     0.77513
 =======================================================================
   * Total *    0.00000     39.98187    97.70968    0.30844   138.00000

 Normal termination of Gaussian 09 at Wed Sep 29 00:34:52 2021.
