 Gaussian 09, Revision A.02,

 -----------------------------------
 #p opt b3lyp/6-31G* scf=(xqc,tight)
 -----------------------------------

 --------------------------------------
 COc1ccc(cc1)n1c2ccccc2c2c1cccc2_conf_0
 --------------------------------------
 Symbolic Z-matrix:
 Charge =  0 Multiplicity = 1

 SCF Done:  E(RB3LYP) =  -863.034477817     A.U. after   15 cycles
 SCF Done:  E(RB3LYP) =  -863.040659565     A.U. after   13 cycles
 SCF Done:  E(RB3LYP) =  -863.042908512     A.U. after   14 cycles
 SCF Done:  E(RB3LYP) =  -863.043462204     A.U. after   12 cycles
 SCF Done:  E(RB3LYP) =  -863.043686270     A.U. after   12 cycles
 SCF Done:  E(RB3LYP) =  -863.043738595     A.U. after   11 cycles
 SCF Done:  E(RB3LYP) =  -863.043750273     A.U. after   10 cycles
 SCF Done:  E(RB3LYP) =  -863.043754866     A.U. after   10 cycles
 SCF Done:  E(RB3LYP) =  -863.043756847     A.U. after   11 cycles
 SCF Done:  E(RB3LYP) =  -863.043757074     A.U. after    8 cycles
 SCF Done:  E(RB3LYP) =  -863.043757110     A.U. after    6 cycles
 Optimization completed.
    -- Stationary point found.
 Normal termination of Gaussian 09 at Tue Sep 28 23:25:12 2021.

 ----------------------------------------------------------------------
 #p freq b3lyp/6-31G* volume NMR pop=NPA density=current Geom=AllCheck
 Guess=Read
 ----------------------------------------------------------------------

 COc1ccc(cc1)n1c2ccccc2c2c1cccc2_conf_0
 --------------------------------------
 Redundant internal coordinates taken from checkpoint file:
 C19H15NO_bad5_conf_0.chk
 Charge =  0 Multiplicity = 1

 SCF Done:  E(RB3LYP) =  -863.043757110     A.U. after    1 cycles

  1  C    Isotropic =   137.1873   Anisotropy =    65.4528

  2  O    Isotropic =   235.3896   Anisotropy =    83.3447

  3  C    Isotropic =    39.7282   Anisotropy =   128.1644

  4  C    Isotropic =    76.9361   Anisotropy =   136.4884

  5  C    Isotropic =    66.4699   Anisotropy =   155.2875

  6  C    Isotropic =    65.7539   Anisotropy =   120.2637

  7  C    Isotropic =    66.6176   Anisotropy =   155.2194

  8  C    Isotropic =    85.4431   Anisotropy =   144.1087

  9  N    Isotropic =   122.3024   Anisotropy =    49.9491

 10  C    Isotropic =    55.6126   Anisotropy =   130.0341

 11  C    Isotropic =    86.8499   Anisotropy =   140.8365

 12  C    Isotropic =    70.6662   Anisotropy =   161.0474

 13  C    Isotropic =    76.0528   Anisotropy =   153.0511

 14  C    Isotropic =    75.5649   Anisotropy =   156.8865

 15  C    Isotropic =    71.9693   Anisotropy =   146.2913

 16  C    Isotropic =    71.9726   Anisotropy =   146.2449

 17  C    Isotropic =    55.6248   Anisotropy =   130.0927

 18  C    Isotropic =    86.7522   Anisotropy =   140.8672

 19  C    Isotropic =    70.5907   Anisotropy =   161.1935

 20  C    Isotropic =    76.0298   Anisotropy =   153.1846

 21  C    Isotropic =    75.5941   Anisotropy =   156.9457

 22  H    Isotropic =    28.1828   Anisotropy =     8.2927

 23  H    Isotropic =    28.5347   Anisotropy =     8.0963

 24  H    Isotropic =    28.5460   Anisotropy =     7.9452

 25  H    Isotropic =    25.2627   Anisotropy =     5.4943

 26  H    Isotropic =    24.8647   Anisotropy =     9.7164

 27  H    Isotropic =    24.8725   Anisotropy =    10.0628

 28  H    Isotropic =    25.5807   Anisotropy =     7.2448

 29  H    Isotropic =    25.1737   Anisotropy =    10.5579

 30  H    Isotropic =    24.9517   Anisotropy =     5.8659

 31  H    Isotropic =    25.0553   Anisotropy =     4.4984

 32  H    Isotropic =    24.2527   Anisotropy =     7.0786

 33  H    Isotropic =    25.1666   Anisotropy =    10.5838

 34  H    Isotropic =    24.9431   Anisotropy =     5.8663

 35  H    Isotropic =    25.0503   Anisotropy =     4.5054

 36  H    Isotropic =    24.2455   Anisotropy =     7.1071

  Exact polarizability: 288.448   2.443 248.725   0.775  -7.377 103.084
 Approx polarizability: 425.762   1.202 408.893   6.820 -21.523 176.268

                     1                      2                      3
                     A                      A                      A
 Frequencies --    31.8669                40.9183                49.2751
 Red. masses --     3.6012                 4.7670                 4.7163
 Frc consts  --     0.0022                 0.0047                 0.0067
 IR Inten    --     1.1937                 0.3463                 0.1275

                     4                      5                      6
                     A                      A                      A
 Frequencies --    95.5162               110.6186               152.6098
 Red. masses --     3.6214                 4.4657                 3.6854
 Frc consts  --     0.0195                 0.0322                 0.0506
 IR Inten    --     2.6395                 0.6284                 0.2456

                     7                      8                      9
                     A                      A                      A
 Frequencies --   170.9448               177.7739               211.5494
 Red. masses --     4.0217                 4.8992                 4.2039
 Frc consts  --     0.0692                 0.0912                 0.1108
 IR Inten    --     1.7840                 0.0897                 1.4838

                    10                     11                     12
                     A                      A                      A
 Frequencies --   249.6342               275.2850               295.2197
 Red. masses --     1.1934                 4.1149                 4.7464
 Frc consts  --     0.0438                 0.1837                 0.2437
 IR Inten    --     0.1886                 2.3452                 0.4055

                    13                     14                     15
                     A                      A                      A
 Frequencies --   304.9184               367.2103               415.8338
 Red. masses --     5.3121                 5.4339                 5.4738
 Frc consts  --     0.2910                 0.4317                 0.5577
 IR Inten    --     0.2616                 1.6970                 2.3735

                    16                     17                     18
                     A                      A                      A
 Frequencies --   431.2101               436.8920               438.9123
 Red. masses --     3.2205                 3.5520                 5.6798
 Frc consts  --     0.3528                 0.3995                 0.6447
 IR Inten    --     0.5237                 2.5909                 2.5327

                    19                     20                     21
                     A                      A                      A
 Frequencies --   459.2920               490.9918               527.0854
 Red. masses --     3.1556                 4.1505                 3.4047
 Frc consts  --     0.3922                 0.5895                 0.5573
 IR Inten    --     1.8107                 0.7878                 0.9056

                    22                     23                     24
                     A                      A                      A
 Frequencies --   540.3512               577.0646               583.8758
 Red. masses --     3.8896                 4.3902                 3.9755
 Frc consts  --     0.6691                 0.8613                 0.7985
 IR Inten    --     8.4542                 1.6617                 0.4115

                    25                     26                     27
                     A                      A                      A
 Frequencies --   595.8638               626.5468               637.2526
 Red. masses --     5.9310                 6.1056                 5.3014
 Frc consts  --     1.2407                 1.4122                 1.2684
 IR Inten    --    30.7108                 0.3909                 8.7583

                    28                     29                     30
                     A                      A                      A
 Frequencies --   658.1557               714.6296               731.9246
 Red. masses --     6.7572                 5.8821                 4.5328
 Frc consts  --     1.7245                 1.7699                 1.4307
 IR Inten    --     2.0061                 0.4377                 4.8063

                    31                     32                     33
                     A                      A                      A
 Frequencies --   740.5072               755.3616               763.6122
 Red. masses --     2.7856                 1.4365                 1.5821
 Frc consts  --     0.9000                 0.4829                 0.5435
 IR Inten    --    17.7238                 0.2849                80.1034

                    34                     35                     36
                     A                      A                      A
 Frequencies --   768.0227               788.7846               820.0733
 Red. masses --     5.4309                 2.8306                 5.3425
 Frc consts  --     1.8874                 1.0376                 2.1169
 IR Inten    --     0.9893                 0.7578                 3.3464

                    37                     38                     39
                     A                      A                      A
 Frequencies --   823.4844               848.3962               864.4514
 Red. masses --     1.3023                 1.6942                 1.3739
 Frc consts  --     0.5203                 0.7185                 0.6049
 IR Inten    --     4.1877                30.9738                 0.0280

                    40                     41                     42
                     A                      A                      A
 Frequencies --   868.3859               925.1123               928.1786
 Red. masses --     1.5499                 2.6964                 1.4238
 Frc consts  --     0.6886                 1.3596                 0.7227
 IR Inten    --     0.0944                 4.6512                 0.7123

                    43                     44                     45
                     A                      A                      A
 Frequencies --   929.3671               949.9294               956.0873
 Red. masses --     1.3504                 1.5820                 5.6674
 Frc consts  --     0.6872                 0.8411                 3.0523
 IR Inten    --     1.3710                 1.0744                 0.6007

                    46                     47                     48
                     A                      A                      A
 Frequencies --   964.7870               967.8030               969.9161
 Red. masses --     1.3700                 1.2360                 1.2467
 Frc consts  --     0.7513                 0.6821                 0.6910
 IR Inten    --     0.1382                 0.0466                 0.0104

                    49                     50                     51
                     A                      A                      A
 Frequencies --  1020.7280              1032.6391              1048.2763
 Red. masses --     7.3331                 2.6301                 2.1702
 Frc consts  --     4.5015                 1.6524                 1.4051
 IR Inten    --     3.9402                 1.0392                 2.9306

                    52                     53                     54
                     A                      A                      A
 Frequencies --  1055.9657              1078.1565              1130.3129
 Red. masses --     1.8040                 6.2510                 2.1152
 Frc consts  --     1.1852                 4.2812                 1.5922
 IR Inten    --     6.7754                61.0156                 0.5327

                    55                     56                     57
                     A                      A                      A
 Frequencies --  1140.2416              1149.4882              1183.5185
 Red. masses --     1.2964                 1.5089                 1.1611
 Frc consts  --     0.9931                 1.1747                 0.9582
 IR Inten    --     9.0739                 7.1976                 6.9655

                    58                     59                     60
                     A                      A                      A
 Frequencies --  1185.6747              1191.8579              1198.7937
 Red. masses --     1.2697                 1.1022                 1.2952
 Frc consts  --     1.0517                 0.9225                 1.0966
 IR Inten    --     0.7565                 0.0412                 5.8581

                    61                     62                     63
                     A                      A                      A
 Frequencies --  1212.5007              1218.1711              1261.4814
 Red. masses --     1.6844                 1.3802                 2.6450
 Frc consts  --     1.4590                 1.2067                 2.4799
 IR Inten    --    28.3765                13.7246                86.1604

                    64                     65                     66
                     A                      A                      A
 Frequencies --  1267.5544              1298.4722              1332.1954
 Red. masses --     2.8129                 4.6249                 1.5793
 Frc consts  --     2.6628                 4.5943                 1.6513
 IR Inten    --     6.0544               348.8490                23.6237

                    67                     68                     69
                     A                      A                      A
 Frequencies --  1348.3070              1349.2301              1356.2648
 Red. masses --     2.2252                 1.8561                 2.9738
 Frc consts  --     2.3834                 1.9908                 3.2229
 IR Inten    --    50.5720                 7.0759                50.3922

                    70                     71                     72
                     A                      A                      A
 Frequencies --  1387.8664              1393.0705              1403.8035
 Red. masses --     4.1221                 6.4513                 4.8288
 Frc consts  --     4.6780                 7.3764                 5.6067
 IR Inten    --    28.4744                 5.0853                 7.2112

                    73                     74                     75
                     A                      A                      A
 Frequencies --  1467.0441              1494.8436              1500.6746
 Red. masses --     3.1349                 2.5402                 1.2911
 Frc consts  --     3.9752                 3.3443                 1.7131
 IR Inten    --     0.8886                72.0527                73.7385

                    76                     77                     78
                     A                      A                      A
 Frequencies --  1502.3699              1520.9421              1524.4120
 Red. masses --     2.2989                 1.0481                 2.9336
 Frc consts  --     3.0571                 1.4285                 4.0166
 IR Inten    --    26.7708                 5.6996                36.2895

                    79                     80                     81
                     A                      A                      A
 Frequencies --  1534.3514              1535.7033              1567.2413
 Red. masses --     1.1119                 2.8033                 2.5653
 Frc consts  --     1.5423                 3.8952                 3.7124
 IR Inten    --    55.4787                 9.0916               285.8906

                    82                     83                     84
                     A                      A                      A
 Frequencies --  1626.3537              1631.2463              1634.3334
 Red. masses --     6.5226                 5.7547                 6.7648
 Frc consts  --    10.1649                 9.0221                10.6460
 IR Inten    --     5.6927                 0.0783                 6.5520

                    85                     86                     87
                     A                      A                      A
 Frequencies --  1653.3948              1671.0574              1677.3069
 Red. masses --     6.5020                 6.0448                 6.4372
 Frc consts  --    10.4725                 9.9453                10.6702
 IR Inten    --    23.6102                 2.2240                42.4828

                    88                     89                     90
                     A                      A                      A
 Frequencies --  3027.2423              3087.0752              3160.6750
 Red. masses --     1.0348                 1.1068                 1.0998
 Frc consts  --     5.5871                 6.2148                 6.4732
 IR Inten    --    59.3006                40.0146                27.9206

                    91                     92                     93
                     A                      A                      A
 Frequencies --  3181.9807              3182.9999              3190.5264
 Red. masses --     1.0853                 1.0853                 1.0894
 Frc consts  --     6.4746                 6.4784                 6.5338
 IR Inten    --     0.0952                 0.4039                15.1185

                    94                     95                     96
                     A                      A                      A
 Frequencies --  3192.0039              3205.5171              3205.7619
 Red. masses --     1.0897                 1.0936                 1.0913
 Frc consts  --     6.5414                 6.6208                 6.6079
 IR Inten    --     8.8017                23.6983                67.6682

                    97                     98                     99
                     A                      A                      A
 Frequencies --  3206.7719              3207.6806              3215.8970
 Red. masses --     1.0913                 1.0896                 1.0945
 Frc consts  --     6.6119                 6.6053                 6.6693
 IR Inten    --     5.0215                 3.7052                23.9618

                   100                    101                    102
                     A                      A                      A
 Frequencies --  3216.7238              3221.9908              3229.1813
 Red. masses --     1.0947                 1.0950                 1.0926
 Frc consts  --     6.6736                 6.6972                 6.7124
 IR Inten    --     4.5907                 5.3486                 8.7510

 - Thermochemistry -
 -------------------
 Temperature   298.150 Kelvin.  Pressure   1.00000 Atm.
 Atom     1 has atomic number  6 and mass  12.00000

 Molecular mass:   273.11536 amu.
 Principal axes and moments of inertia in atomic units:
                           1         2         3
     Eigenvalues --  3424.736689007.37384**********
           X            0.99997   0.00519  -0.00529
           Y           -0.00521   0.99998  -0.00476
           Z            0.00527   0.00478   0.99997
 This molecule is an asymmetric top.
 Rotational symmetry number  1.
 Warning -- assumption of classical behavior for rotation
           may cause significant error
 Rotational temperatures (Kelvin)      0.02529     0.00962     0.00730
 Rotational constants (GHZ):           0.52697     0.20036     0.15204
 Zero-point vibrational energy     762914.6 (Joules/Mol)
                                  182.34096 (Kcal/Mol)
 Warning -- explicit consideration of  25 degrees of freedom as
           vibrations may cause significant error
 Vibrational temperatures:     45.85    58.87    70.90   137.43   159.16
          (Kelvin)            219.57   245.95   255.78   304.37   359.17
                              396.07   424.75   438.71   528.33   598.29
                              620.41   628.59   631.50   660.82   706.43
                              758.36   777.44   830.27   840.07   857.31
                              901.46   916.86   946.94  1028.19  1053.07
                             1065.42  1086.80  1098.67  1105.01  1134.88
                             1179.90  1184.81  1220.65  1243.75  1249.41
                             1331.03  1335.44  1337.15  1366.73  1375.59
                             1388.11  1392.45  1395.49  1468.60  1485.74
                             1508.23  1519.30  1551.22  1626.27  1640.55
                             1653.86  1702.82  1705.92  1714.82  1724.79
                             1744.52  1752.67  1814.99  1823.73  1868.21
                             1916.73  1939.91  1941.24  1951.36  1996.83
                             2004.32  2019.76  2110.75  2150.74  2159.13
                             2161.57  2188.29  2193.29  2207.59  2209.53
                             2254.91  2339.96  2347.00  2351.44  2378.86
                             2404.28  2413.27  4355.52  4441.61  4547.50
                             4578.15  4579.62  4590.45  4592.58  4612.02
                             4612.37  4613.82  4615.13  4626.95  4628.14
                             4635.72  4646.07

 Zero-point correction=                           0.290579 (Hartree/Particle)
 Thermal correction to Energy=                    0.306695
 Thermal correction to Enthalpy=                  0.307639
 Thermal correction to Gibbs Free Energy=         0.246086
 Sum of electronic and zero-point Energies=           -862.753178
 Sum of electronic and thermal Energies=              -862.737062
 Sum of electronic and thermal Enthalpies=            -862.736118
 Sum of electronic and thermal Free Energies=         -862.797671

                     E (Thermal)             CV                S
                      KCal/Mol        Cal/Mol-Kelvin    Cal/Mol-Kelvin
 Total                  192.454             65.616            129.548
 Electronic               0.000              0.000              0.000
 Translational            0.889              2.981             42.713
 Rotational               0.889              2.981             34.259
 Vibrational            190.676             59.655             52.577
 Vibration     1          0.594              1.983              5.710
 Vibration     2          0.594              1.981              5.214
 Vibration     3          0.595              1.978              4.846
 Vibration     4          0.603              1.952              3.544
 Vibration     5          0.606              1.941              3.258
 Vibration     6          0.619              1.900              2.639
 Vibration     7          0.626              1.878              2.425
 Vibration     8          0.628              1.870              2.352
 Vibration     9          0.643              1.823              2.030
 Vibration    10          0.662              1.763              1.733
 Vibration    11          0.677              1.719              1.563
 Vibration    12          0.689              1.683              1.444
 Vibration    13          0.696              1.664              1.390
 Vibration    14          0.740              1.540              1.091
 Vibration    15          0.779              1.436              0.906
 Vibration    16          0.792              1.402              0.855
 Vibration    17          0.797              1.390              0.836
 Vibration    18          0.799              1.385              0.830
 Vibration    19          0.817              1.340              0.768
 Vibration    20          0.847              1.270              0.681
 Vibration    21          0.882              1.190              0.594
 Vibration    22          0.895              1.161              0.565
 Vibration    23          0.934              1.081              0.491
 Vibration    24          0.941              1.066              0.478
 Vibration    25          0.954              1.041              0.457

 Optimization completed.
    -- Stationary point found.
 Normal termination of Gaussian 09 at Wed Sep 29 01:23:20 2021.
 Gaussian 09:  AM64L-G09RevA.02 11-Jun-2009

 ----------------------------------------------------------------------
 #p TD(NStates=10, Root=1) b3lyp/6-31G* volume pop=NPA density=current
 Geom=AllCheck Guess=Read
 ----------------------------------------------------------------------

 COc1ccc(cc1)n1c2ccccc2c2c1cccc2_conf_0
 --------------------------------------
 Redundant internal coordinates taken from checkpoint file:
 C19H15NO_bad5_conf_0.chk
 Charge =  0 Multiplicity = 1

                         Standard orientation:
 ---------------------------------------------------------------------
 Center     Atomic      Atomic             Coordinates (Angstroms)
 Number     Number       Type             X           Y           Z
 ---------------------------------------------------------------------
      1          6           0        5.940162    0.323524   -0.625212
      2          8           0        5.105243   -0.281377    0.350208
      3          6           0        3.754188   -0.173351    0.201827
      4          6           0        2.981671   -0.791304    1.197544
      5          6           0        1.596009   -0.731260    1.147022
      6          6           0        0.951483   -0.070742    0.089880
      7          6           0        1.722616    0.533914   -0.904473
      8          6           0        3.117880    0.496589   -0.850183
      9          7           0       -0.469460   -0.017783    0.034123
     10          6           0       -1.247509    1.143197    0.063298
     11          6           0       -0.844181    2.477231    0.167305
     12          6           0       -1.836872    3.454528    0.187428
     13          6           0       -3.199477    3.117016    0.110009
     14          6           0       -3.595019    1.785798    0.016062
     15          6           0       -2.618292    0.783058   -0.005866
     16          6           0       -2.667710   -0.662313   -0.080090
     17          6           0       -1.324884   -1.119865   -0.052616
     18          6           0       -1.011202   -2.479490   -0.131636
     19          6           0       -2.067195   -3.383374   -0.225106
     20          6           0       -3.404189   -2.949047   -0.243889
     21          6           0       -3.709503   -1.592765   -0.174425
     22          1           0        6.964673    0.116802   -0.311045
     23          1           0        5.786737    1.409851   -0.669811
     24          1           0        5.772840   -0.105931   -1.621769
     25          1           0        3.492339   -1.300665    2.008582
     26          1           0        1.001102   -1.191753    1.929889
     27          1           0        1.227954    1.033897   -1.731698
     28          1           0        3.690305    0.977902   -1.634655
     29          1           0        0.205931    2.742646    0.234886
     30          1           0       -1.548718    4.499368    0.267438
     31          1           0       -3.948721    3.903457    0.126734
     32          1           0       -4.649418    1.526660   -0.036541
     33          1           0        0.019338   -2.819652   -0.124245
     34          1           0       -1.849540   -4.446323   -0.287044
     35          1           0       -4.204621   -3.679966   -0.316118
     36          1           0       -4.743771   -1.258859   -0.196402
 ---------------------------------------------------------------------

 SCF Done:  E(RB3LYP) =  -863.043757110     A.U. after    3 cycles

 Excitation energies and oscillator strengths:

 Excited State   1:      Singlet-A      4.0031 eV  309.72 nm  f=0.0323  <S**2>=0.000
      71 -> 76         0.15973
      72 -> 73         0.68332
 This state for optimization and/or second-order correction.
 Total Energy, E(TD-HF/TD-KS) =  -862.896644548
 Copying the excited state density for this state as the 1-particle RhoCI density.

 Excited State   2:      Singlet-A      4.2105 eV  294.46 nm  f=0.0111  <S**2>=0.000
      72 -> 74         0.69961

 Excited State   3:      Singlet-A      4.4572 eV  278.16 nm  f=0.1428  <S**2>=0.000
      72 -> 75         0.69892

 Excited State   4:      Singlet-A      4.5400 eV  273.10 nm  f=0.0768  <S**2>=0.000
      69 -> 73        -0.10596
      71 -> 73         0.57521
      72 -> 76        -0.37963

 Excited State   5:      Singlet-A      4.7322 eV  262.00 nm  f=0.0012  <S**2>=0.000
      71 -> 74         0.70408

 Excited State   6:      Singlet-A      4.9272 eV  251.63 nm  f=0.0046  <S**2>=0.000
      69 -> 73        -0.11034
      71 -> 75         0.67285
      72 -> 76         0.15573

 Excited State   7:      Singlet-A      5.1256 eV  241.89 nm  f=0.0039  <S**2>=0.000
      70 -> 73         0.62720
      71 -> 76         0.29619

 Excited State   8:      Singlet-A      5.2162 eV  237.69 nm  f=0.1005  <S**2>=0.000
      68 -> 75        -0.23474
      70 -> 74         0.55444
      71 -> 73        -0.15047
      72 -> 76        -0.25379

 Excited State   9:      Singlet-A      5.2448 eV  236.40 nm  f=0.4564  <S**2>=0.000
      68 -> 75        -0.16190
      70 -> 74         0.28904
      71 -> 73         0.28201
      71 -> 75        -0.15685
      71 -> 77        -0.14629
      72 -> 76         0.46923
      72 -> 78        -0.15435

 Excited State  10:      Singlet-A      5.4445 eV  227.72 nm  f=0.0456  <S**2>=0.000
      70 -> 73        -0.29964
      71 -> 76         0.49476
      72 -> 77         0.33914

 The electronic state is 1-A.
 Alpha  occ. eigenvalues --  -19.18616 -14.37582 -10.25694 -10.24827 -10.23073
 Alpha  occ. eigenvalues --  -10.21852 -10.21835 -10.20184 -10.20055 -10.19884
 Alpha  occ. eigenvalues --  -10.19487 -10.18355 -10.18346 -10.18336 -10.18317
 Alpha  occ. eigenvalues --  -10.18275 -10.18256 -10.18246 -10.18210 -10.17679
 Alpha  occ. eigenvalues --  -10.17667  -1.07224  -0.98368  -0.86688  -0.83746
 Alpha  occ. eigenvalues --   -0.83517  -0.78148  -0.76143  -0.75353  -0.74254
 Alpha  occ. eigenvalues --   -0.72397  -0.70959  -0.69272  -0.63726  -0.62465
 Alpha  occ. eigenvalues --   -0.60707  -0.59630  -0.57314  -0.56866  -0.54307
 Alpha  occ. eigenvalues --   -0.52465  -0.51078  -0.49692  -0.49354  -0.47584
 Alpha  occ. eigenvalues --   -0.45962  -0.45193  -0.44793  -0.43714  -0.43278
 Alpha  occ. eigenvalues --   -0.43100  -0.42862  -0.41392  -0.41331  -0.40835
 Alpha  occ. eigenvalues --   -0.39831  -0.38494  -0.37167  -0.35974  -0.35839
 Alpha  occ. eigenvalues --   -0.34602  -0.33663  -0.33538  -0.33016  -0.32932
 Alpha  occ. eigenvalues --   -0.31159  -0.27257  -0.26208  -0.24527  -0.23188
 Alpha  occ. eigenvalues --   -0.20695  -0.19167
 Alpha virt. eigenvalues --   -0.02119  -0.01232  -0.00289   0.01253   0.03854
 Alpha virt. eigenvalues --    0.04982   0.08573   0.10093   0.10520   0.11007
 Alpha virt. eigenvalues --    0.12743   0.13563   0.14093   0.14679   0.14938

 Mulliken atomic charges:
              1
     1  C   -0.224155
     2  O   -0.497241
     3  C    0.395155
     4  C   -0.183697
     5  C   -0.135286
     6  C    0.251916
     7  C   -0.140058
     8  C   -0.206208
     9  N   -0.678654
    10  C    0.294712
    11  C   -0.185537
    12  C   -0.172487
    13  C   -0.120351
    14  C   -0.228775
    15  C    0.069798
    16  C    0.070001
    17  C    0.294437
    18  C   -0.185624
    19  C   -0.172383
    20  C   -0.120310
    21  C   -0.228730
    22  H    0.180682
    23  H    0.160620
    24  H    0.160803
    25  H    0.158876
    26  H    0.169907
    27  H    0.169440
    28  H    0.150372
    29  H    0.122603
    30  H    0.109765
    31  H    0.122965
    32  H    0.119798
    33  H    0.124276
    34  H    0.110420
    35  H    0.123088
    36  H    0.119862
 Sum of Mulliken atomic charges =  -0.00000

 Dipole moment (field-independent basis, Debye):
    X=              5.9353    Y=              0.4492    Z=             -0.8802  Tot=              6.0170
 Quadrupole moment (field-independent basis, Debye-Ang):
   XX=            -99.4666   YY=           -121.1524   ZZ=           -121.3104
   XY=              3.5317   XZ=             -5.8871   YZ=             -3.3326

 Summary of Natural Population Analysis:

                                       Natural Population
                Natural  -----------------------------------------------
    Atom  No    Charge         Core      Valence    Rydberg      Total
 -----------------------------------------------------------------------
      C    1   -0.32062      1.99943     4.30711    0.01408     6.32062
      O    2   -0.50648      1.99974     6.49498    0.01176     8.50648
      C    3    0.33803      1.99880     3.64139    0.02178     5.66197
      C    4   -0.26057      1.99903     4.24723    0.01431     6.26057
      C    5   -0.21008      1.99903     4.19813    0.01293     6.21008
      C    6    0.12160      1.99893     3.86068    0.01879     5.87840
      C    7   -0.20109      1.99903     4.18867    0.01339     6.20109
      C    8   -0.30968      1.99902     4.29854    0.01211     6.30968
      N    9   -0.26978      1.99922     5.25815    0.01241     7.26978
      C   10    0.16424      1.99897     3.81870    0.01809     5.83576
      C   11   -0.28125      1.99902     4.26722    0.01501     6.28125
      C   12   -0.30247      1.99914     4.28694    0.01639     6.30247
      C   13   -0.18634      1.99912     4.17313    0.01409     6.18634
      C   14   -0.27227      1.99905     4.25745    0.01578     6.27227
      C   15   -0.07776      1.99901     4.06258    0.01618     6.07776
      C   16   -0.07770      1.99901     4.06251    0.01618     6.07770
      C   17    0.16392      1.99897     3.81904    0.01806     5.83608
      C   18   -0.28056      1.99902     4.26657    0.01498     6.28056
      C   19   -0.30204      1.99914     4.28652    0.01639     6.30204
      C   20   -0.18636      1.99912     4.17315    0.01409     6.18636
      C   21   -0.27191      1.99905     4.25710    0.01576     6.27191
      H   22    0.23479      0.00000     0.76473    0.00048     0.76521
      H   23    0.20722      0.00000     0.79113    0.00165     0.79278
      H   24    0.20734      0.00000     0.79101    0.00165     0.79266
      H   25    0.25749      0.00000     0.74138    0.00113     0.74251
      H   26    0.26096      0.00000     0.73799    0.00105     0.73904
      H   27    0.25978      0.00000     0.73914    0.00108     0.74022
      H   28    0.24821      0.00000     0.75096    0.00083     0.75179
      H   29    0.23367      0.00000     0.76532    0.00101     0.76633
      H   30    0.22922      0.00000     0.77002    0.00076     0.77078
      H   31    0.23143      0.00000     0.76776    0.00081     0.76857
      H   32    0.23184      0.00000     0.76724    0.00092     0.76816
      H   33    0.23435      0.00000     0.76465    0.00100     0.76565
      H   34    0.22953      0.00000     0.76970    0.00076     0.77047
      H   35    0.23149      0.00000     0.76770    0.00081     0.76851
      H   36    0.23186      0.00000     0.76723    0.00092     0.76814
 =======================================================================
   * Total *   -0.00000     41.98083   101.68177    0.33740   144.00000

 Normal termination of Gaussian 09 at Wed Sep 29 07:56:24 2021.
