 Gaussian 09, Revision A.02,

 -----------------------------------
 #p opt b3lyp/6-31G* scf=(xqc,tight)
 -----------------------------------

 --------------------------------------------
 COc1ccc(cc1)c1ccc2c(c1)ccc(c2)OC(=O)C_conf_0
 --------------------------------------------
 Symbolic Z-matrix:
 Charge =  0 Multiplicity = 1

 SCF Done:  E(RB3LYP) =  -959.342117699     A.U. after   15 cycles
 SCF Done:  E(RB3LYP) =  -959.348773961     A.U. after   13 cycles
 SCF Done:  E(RB3LYP) =  -959.348843099     A.U. after   13 cycles
 SCF Done:  E(RB3LYP) =  -959.348872237     A.U. after   12 cycles
 SCF Done:  E(RB3LYP) =  -959.349273454     A.U. after   11 cycles
 SCF Done:  E(RB3LYP) =  -959.349472776     A.U. after   11 cycles
 SCF Done:  E(RB3LYP) =  -959.349526418     A.U. after   11 cycles
 SCF Done:  E(RB3LYP) =  -959.349577011     A.U. after   12 cycles
 SCF Done:  E(RB3LYP) =  -959.349612365     A.U. after   12 cycles
 SCF Done:  E(RB3LYP) =  -959.349619563     A.U. after   10 cycles
 SCF Done:  E(RB3LYP) =  -959.349623443     A.U. after    9 cycles
 SCF Done:  E(RB3LYP) =  -959.349626591     A.U. after    9 cycles
 SCF Done:  E(RB3LYP) =  -959.349635113     A.U. after   10 cycles
 SCF Done:  E(RB3LYP) =  -959.349639571     A.U. after   10 cycles
 SCF Done:  E(RB3LYP) =  -959.349639989     A.U. after    8 cycles
 SCF Done:  E(RB3LYP) =  -959.349640001     A.U. after    6 cycles
 SCF Done:  E(RB3LYP) =  -959.349639998     A.U. after    5 cycles
 Optimization completed.
    -- Stationary point found.
 Normal termination of Gaussian 09 at Wed Sep 29 04:46:19 2021.

 ----------------------------------------------------------------------
 #p freq b3lyp/6-31G* volume NMR pop=NPA density=current Geom=AllCheck
 Guess=Read
 ----------------------------------------------------------------------

 COc1ccc(cc1)c1ccc2c(c1)ccc(c2)OC(=O)C_conf_0
 --------------------------------------------
 Redundant internal coordinates taken from checkpoint file:
 C19H16O3_5b54_conf_0.chk
 Charge =  0 Multiplicity = 1

 SCF Done:  E(RB3LYP) =  -959.349639998     A.U. after    1 cycles

  1  C    Isotropic =   137.2967   Anisotropy =    65.2957

  2  O    Isotropic =   236.9353   Anisotropy =    81.1334

  3  C    Isotropic =    39.1437   Anisotropy =   126.8432

  4  C    Isotropic =    85.7169   Anisotropy =   142.4440

  5  C    Isotropic =    67.1510   Anisotropy =   152.1414

  6  C    Isotropic =    61.6439   Anisotropy =   164.3433

  7  C    Isotropic =    67.2148   Anisotropy =   153.4842

  8  C    Isotropic =    77.6354   Anisotropy =   134.7061

  9  C    Isotropic =    56.4880   Anisotropy =   170.3867

 10  C    Isotropic =    69.5419   Anisotropy =   150.4009

 11  C    Isotropic =    67.4808   Anisotropy =   142.8462

 12  C    Isotropic =    64.1915   Anisotropy =   192.3114

 13  C    Isotropic =    65.0527   Anisotropy =   193.7806

 14  C    Isotropic =    69.7045   Anisotropy =   132.7788

 15  C    Isotropic =    66.8446   Anisotropy =   141.9391

 16  C    Isotropic =    73.2896   Anisotropy =   148.5947

 17  C    Isotropic =    46.8345   Anisotropy =   105.4937

 18  C    Isotropic =    78.0183   Anisotropy =   120.1200

 19  O    Isotropic =   102.7653   Anisotropy =   156.6995

 20  C    Isotropic =    30.6113   Anisotropy =    74.7932

 21  O    Isotropic =   -79.7009   Anisotropy =   565.7112

 22  C    Isotropic =   169.0313   Anisotropy =    39.7615

 23  H    Isotropic =    28.2565   Anisotropy =     8.1470

 24  H    Isotropic =    28.5719   Anisotropy =     8.0380

 25  H    Isotropic =    28.5714   Anisotropy =     7.9021

 26  H    Isotropic =    25.6728   Anisotropy =     7.7093

 27  H    Isotropic =    24.7244   Anisotropy =     9.2685

 28  H    Isotropic =    24.8020   Anisotropy =     8.6964

 29  H    Isotropic =    25.3681   Anisotropy =     6.0103

 30  H    Isotropic =    24.6645   Anisotropy =     9.1049

 31  H    Isotropic =    24.5858   Anisotropy =     7.6189

 32  H    Isotropic =    24.5564   Anisotropy =    10.7008

 33  H    Isotropic =    24.5770   Anisotropy =     7.6403

 34  H    Isotropic =    24.7642   Anisotropy =     8.1614

 35  H    Isotropic =    25.0943   Anisotropy =     8.2128

 36  H    Isotropic =    29.9447   Anisotropy =     6.1742

 37  H    Isotropic =    30.4970   Anisotropy =     7.6362

 38  H    Isotropic =    29.9357   Anisotropy =     5.5226

  Exact polarizability: 407.246   2.646 192.970   4.935   4.428  95.797
 Approx polarizability: 528.294  17.011 357.347   9.398   8.243 155.842

                     1                      2                      3
                     A                      A                      A
 Frequencies --    24.4604                33.4726                47.3669
 Red. masses --     5.7978                 4.6437                 4.8708
 Frc consts  --     0.0020                 0.0031                 0.0064
 IR Inten    --     0.2245                 3.4131                 0.6597

                     4                      5                      6
                     A                      A                      A
 Frequencies --    54.5792                59.7698                87.1533
 Red. masses --     3.6870                 2.8571                 1.3649
 Frc consts  --     0.0065                 0.0060                 0.0061
 IR Inten    --     0.3187                 0.7613                 0.1785

                     7                      8                      9
                     A                      A                      A
 Frequencies --   100.9353               106.2302               142.1084
 Red. masses --     3.2040                 4.6338                 5.8043
 Frc consts  --     0.0192                 0.0308                 0.0691
 IR Inten    --     3.5119                 0.9186                 1.4778

                    10                     11                     12
                     A                      A                      A
 Frequencies --   191.0789               194.3859               208.5564
 Red. masses --     3.9399                 5.6542                 3.4931
 Frc consts  --     0.0848                 0.1259                 0.0895
 IR Inten    --     0.0893                 0.8241                 4.2225

                    13                     14                     15
                     A                      A                      A
 Frequencies --   232.4798               254.2069               292.3184
 Red. masses --     3.9167                 1.4019                 4.4261
 Frc consts  --     0.1247                 0.0534                 0.2228
 IR Inten    --     1.2310                 0.9693                 0.8290

                    16                     17                     18
                     A                      A                      A
 Frequencies --   314.5020               330.8536               394.8374
 Red. masses --     4.1813                 4.4580                 5.0733
 Frc consts  --     0.2437                 0.2875                 0.4660
 IR Inten    --     1.8467                 5.8871                 1.9373

                    19                     20                     21
                     A                      A                      A
 Frequencies --   413.2556               420.7551               427.9302
 Red. masses --     3.6517                 5.0037                 3.2129
 Frc consts  --     0.3674                 0.5219                 0.3466
 IR Inten    --     0.1955                 0.3829                 1.2835

                    22                     23                     24
                     A                      A                      A
 Frequencies --   466.0628               479.8262               491.9671
 Red. masses --     4.3290                 4.3468                 2.7617
 Frc consts  --     0.5540                 0.5896                 0.3938
 IR Inten    --     4.4378                 0.3107                 7.7156

                    25                     26                     27
                     A                      A                      A
 Frequencies --   522.4299               532.1034               546.6931
 Red. masses --     4.3188                 6.5470                 2.9019
 Frc consts  --     0.6945                 1.0922                 0.5110
 IR Inten    --     0.5351                 0.1034                 9.1573

                    28                     29                     30
                     A                      A                      A
 Frequencies --   579.8245               594.3074               597.9396
 Red. masses --     3.0111                 5.1669                 2.9702
 Frc consts  --     0.5964                 1.0752                 0.6257
 IR Inten    --    10.9091                27.3459                 1.8902

                    31                     32                     33
                     A                      A                      A
 Frequencies --   649.9585               655.3150               676.8727
 Red. masses --     6.1017                 5.6684                 4.6633
 Frc consts  --     1.5187                 1.4342                 1.2588
 IR Inten    --     0.8259                10.1701                 4.1905

                    34                     35                     36
                     A                      A                      A
 Frequencies --   694.4746               736.2361               764.9187
 Red. masses --     5.0313                 4.1245                 3.5980
 Frc consts  --     1.4297                 1.3172                 1.2404
 IR Inten    --     0.5487                 0.6997                 1.5143

                    37                     38                     39
                     A                      A                      A
 Frequencies --   772.3498               800.9712               817.2958
 Red. masses --     4.1495                 4.0746                 2.2506
 Frc consts  --     1.4584                 1.5402                 0.8857
 IR Inten    --     5.1396                 1.7402                 6.8864

                    40                     41                     42
                     A                      A                      A
 Frequencies --   824.6379               827.5048               833.6474
 Red. masses --     1.4505                 1.5829                 1.9128
 Frc consts  --     0.5812                 0.6386                 0.7832
 IR Inten    --    20.3800                24.9390                 2.0837

                    43                     44                     45
                     A                      A                      A
 Frequencies --   855.4080               886.1212               905.2606
 Red. masses --     1.7164                 2.8519                 1.8756
 Frc consts  --     0.7400                 1.3194                 0.9056
 IR Inten    --    34.3821                 4.7456                 8.3611

                    46                     47                     48
                     A                      A                      A
 Frequencies --   913.1506               948.4334               952.0807
 Red. masses --     1.6494                 1.4601                 3.5379
 Frc consts  --     0.8103                 0.7738                 1.8895
 IR Inten    --    27.8301                 1.3567                23.1140

                    49                     50                     51
                     A                      A                      A
 Frequencies --   957.8758               963.6045               972.3243
 Red. masses --     1.3554                 1.2940                 1.3123
 Frc consts  --     0.7327                 0.7079                 0.7310
 IR Inten    --     1.1119                 1.0211                 0.2067

                    52                     53                     54
                     A                      A                      A
 Frequencies --   990.8308              1028.0547              1032.1115
 Red. masses --     3.5320                 3.1185                 1.7971
 Frc consts  --     2.0430                 1.9419                 1.1279
 IR Inten    --    11.2716                 0.0608               119.9095

                    55                     56                     57
                     A                      A                      A
 Frequencies --  1058.7668              1074.3998              1082.3093
 Red. masses --     2.9117                 1.7330                 4.4799
 Frc consts  --     1.9231                 1.1786                 3.0919
 IR Inten    --     9.3664                 8.2247                57.1424

                    58                     59                     60
                     A                      A                      A
 Frequencies --  1146.3853              1163.0756              1185.3053
 Red. masses --     1.3217                 1.6415                 1.5911
 Frc consts  --     1.0234                 1.3083                 1.3171
 IR Inten    --     8.1316                31.3940                49.0428

                    61                     62                     63
                     A                      A                      A
 Frequencies --  1185.3919              1192.7757              1212.8242
 Red. masses --     1.2709                 1.2418                 1.1711
 Frc consts  --     1.0521                 1.0409                 1.0149
 IR Inten    --     0.6870                37.4764                94.3853

                    64                     65                     66
                     A                      A                      A
 Frequencies --  1218.6861              1230.9384              1247.0173
 Red. masses --     1.3907                 2.2113                 4.1512
 Frc consts  --     1.2169                 1.9741                 3.8034
 IR Inten    --    11.5093                12.7456               953.9431

                    67                     68                     69
                     A                      A                      A
 Frequencies --  1272.9220              1297.8190              1300.1444
 Red. masses --     2.3951                 3.4670                 2.0864
 Frc consts  --     2.2865                 3.4406                 2.0780
 IR Inten    --    82.6983               150.8608                88.4279

                    70                     71                     72
                     A                      A                      A
 Frequencies --  1309.6299              1339.9534              1350.1621
 Red. masses --     2.3381                 2.2081                 2.2109
 Frc consts  --     2.3627                 2.3359                 2.3746
 IR Inten    --    38.6102                69.4600                50.6648

                    73                     74                     75
                     A                      A                      A
 Frequencies --  1381.4980              1412.5186              1421.2068
 Red. masses --     2.2703                 3.6657                 1.7308
 Frc consts  --     2.5530                 4.3091                 2.0598
 IR Inten    --     0.5193                11.0536                62.1519

                    76                     77                     78
                     A                      A                      A
 Frequencies --  1425.9123              1447.9408              1470.8561
 Red. masses --     2.6626                 4.1536                 3.2738
 Frc consts  --     3.1896                 5.1307                 4.1730
 IR Inten    --     8.6666                13.4111                 0.7164

                    79                     80                     81
                     A                      A                      A
 Frequencies --  1499.7322              1500.0849              1504.5015
 Red. masses --     1.0522                 1.2023                 1.0466
 Frc consts  --     1.3944                 1.5940                 1.3958
 IR Inten    --    10.7282                28.2134                 8.4205

                    82                     83                     84
                     A                      A                      A
 Frequencies --  1521.3820              1525.4767              1535.1225
 Red. masses --     1.0480                 2.3270                 1.0717
 Frc consts  --     1.4292                 3.1905                 1.4880
 IR Inten    --     5.5494                 3.1912                57.1682

                    85                     86                     87
                     A                      A                      A
 Frequencies --  1551.5307              1568.5268              1617.3203
 Red. masses --     3.4801                 2.6298                 6.2089
 Frc consts  --     4.9358                 3.8121                 9.5688
 IR Inten    --    80.7939               112.0443                 0.5922

                    88                     89                     90
                     A                      A                      A
 Frequencies --  1627.4544              1663.3622              1671.4072
 Red. masses --     7.1759                 5.8200                 5.7707
 Frc consts  --    11.1981                 9.4873                 9.4982
 IR Inten    --     7.8020               102.8202                44.5539

                    91                     92                     93
                     A                      A                      A
 Frequencies --  1688.1087              1850.6349              3025.7797
 Red. masses --     6.4159                11.5307                 1.0347
 Frc consts  --    10.7722                23.2673                 5.5816
 IR Inten    --    13.6852               213.9019                68.3740

                    94                     95                     96
                     A                      A                      A
 Frequencies --  3072.6341              3084.8143              3135.0008
 Red. masses --     1.0371                 1.1067                 1.1006
 Frc consts  --     5.7687                 6.2052                 6.3731
 IR Inten    --     1.9677                43.3417                 4.9253

                    97                     98                     99
                     A                      A                      A
 Frequencies --  3157.9531              3181.1111              3184.8375
 Red. masses --     1.0997                 1.0873                 1.0897
 Frc consts  --     6.4618                 6.4830                 6.5125
 IR Inten    --    32.3027                12.5544                 5.8956

                   100                    101                    102
                     A                      A                      A
 Frequencies --  3185.1890              3190.0027              3193.7124
 Red. masses --     1.1034                 1.0896                 1.0885
 Frc consts  --     6.5955                 6.5327                 6.5412
 IR Inten    --     8.6173                16.0691                10.8934

                   103                    104                    105
                     A                      A                      A
 Frequencies --  3195.5526              3204.4141              3206.8657
 Red. masses --     1.0885                 1.0929                 1.0914
 Frc consts  --     6.5488                 6.6119                 6.6131
 IR Inten    --     7.8749                11.1926                12.6660

                   106                    107                    108
                     A                      A                      A
 Frequencies --  3216.4615              3224.9405              3243.6433
 Red. masses --     1.0938                 1.0918                 1.0932
 Frc consts  --     6.6673                 6.6904                 6.7769
 IR Inten    --    12.4777                14.7023                 5.2516

 - Thermochemistry -
 -------------------
 Temperature   298.150 Kelvin.  Pressure   1.00000 Atm.
 Atom     1 has atomic number  6 and mass  12.00000

 Molecular mass:   292.10994 amu.
 Principal axes and moments of inertia in atomic units:
                           1         2         3
     Eigenvalues --  1404.45128********************
           X            0.99998  -0.00618   0.00172
           Y            0.00616   0.99994   0.00919
           Z           -0.00177  -0.00918   0.99996
 This molecule is an asymmetric top.
 Rotational symmetry number  1.
 Warning -- assumption of classical behavior for rotation
           may cause significant error
 Rotational temperatures (Kelvin)      0.06167     0.00414     0.00395
 Rotational constants (GHZ):           1.28502     0.08632     0.08225
 Zero-point vibrational energy     795862.5 (Joules/Mol)
                                  190.21571 (Kcal/Mol)
 Warning -- explicit consideration of  30 degrees of freedom as
           vibrations may cause significant error
 Vibrational temperatures:     35.19    48.16    68.15    78.53    86.00
          (Kelvin)            125.39   145.22   152.84   204.46   274.92
                              279.68   300.07   334.49   365.75   420.58
                              452.50   476.02   568.08   594.58   605.37
                              615.70   670.56   690.36   707.83   751.66
                              765.58   786.57   834.24   855.07   860.30
                              935.14   942.85   973.87   999.19  1059.28
                             1100.55  1111.24  1152.42  1175.90  1186.47
                             1190.59  1199.43  1230.74  1274.93  1302.47
                             1313.82  1364.58  1369.83  1378.17  1386.41
                             1398.96  1425.58  1479.14  1484.98  1523.33
                             1545.82  1557.20  1649.39  1673.40  1705.39
                             1705.51  1716.14  1744.98  1753.42  1771.04
                             1794.18  1831.45  1867.27  1870.62  1884.26
                             1927.89  1942.58  1987.66  2032.30  2044.80
                             2051.57  2083.26  2116.23  2157.78  2158.28
                             2164.64  2188.93  2194.82  2208.70  2232.30
                             2256.76  2326.96  2341.54  2393.20  2404.78
                             2428.81  2662.65  4353.42  4420.83  4438.35
                             4510.56  4543.58  4576.90  4582.27  4582.77
                             4589.70  4595.03  4597.68  4610.43  4613.96
                             4627.76  4639.96  4666.87

 Zero-point correction=                           0.303128 (Hartree/Particle)
 Thermal correction to Energy=                    0.322050
 Thermal correction to Enthalpy=                  0.322994
 Thermal correction to Gibbs Free Energy=         0.253949
 Sum of electronic and zero-point Energies=           -959.046512
 Sum of electronic and thermal Energies=              -959.027590
 Sum of electronic and thermal Enthalpies=            -959.026646
 Sum of electronic and thermal Free Energies=         -959.095691

                     E (Thermal)             CV                S
                      KCal/Mol        Cal/Mol-Kelvin    Cal/Mol-Kelvin
 Total                  202.090             73.049            145.318
 Electronic               0.000              0.000              0.000
 Translational            0.889              2.981             42.913
 Rotational               0.889              2.981             34.820
 Vibrational            200.312             67.087             67.584
 Vibration     1          0.593              1.985              6.235
 Vibration     2          0.594              1.983              5.612
 Vibration     3          0.595              1.979              4.924
 Vibration     4          0.596              1.976              4.644
 Vibration     5          0.597              1.973              4.465
 Vibration     6          0.601              1.958              3.723
 Vibration     7          0.604              1.948              3.436
 Vibration     8          0.605              1.944              3.337
 Vibration     9          0.616              1.911              2.775
 Vibration    10          0.634              1.852              2.217
 Vibration    11          0.635              1.848              2.186
 Vibration    12          0.642              1.828              2.056
 Vibration    13          0.653              1.791              1.860
 Vibration    14          0.665              1.756              1.701
 Vibration    15          0.688              1.688              1.461
 Vibration    16          0.702              1.646              1.339
 Vibration    17          0.713              1.614              1.256
 Vibration    18          0.762              1.481              0.982
 Vibration    19          0.777              1.441              0.915
 Vibration    20          0.783              1.425              0.889
 Vibration    21          0.789              1.409              0.865
 Vibration    22          0.823              1.325              0.749
 Vibration    23          0.836              1.295              0.711
 Vibration    24          0.848              1.268              0.679
 Vibration    25          0.877              1.200              0.604
 Vibration    26          0.887              1.179              0.583
 Vibration    27          0.902              1.147              0.551
 Vibration    28          0.936              1.075              0.486
 Vibration    29          0.952              1.044              0.460
 Vibration    30          0.956              1.036              0.453

 Optimization completed.
    -- Stationary point found.
 Normal termination of Gaussian 09 at Wed Sep 29 07:16:31 2021.
 Gaussian 09:  AM64L-G09RevA.02 11-Jun-2009

 ----------------------------------------------------------------------
 #p TD(NStates=10, Root=1) b3lyp/6-31G* volume pop=NPA density=current
 Geom=AllCheck Guess=Read
 ----------------------------------------------------------------------

 COc1ccc(cc1)c1ccc2c(c1)ccc(c2)OC(=O)C_conf_0
 --------------------------------------------
 Redundant internal coordinates taken from checkpoint file:
 C19H16O3_5b54_conf_0.chk
 Charge =  0 Multiplicity = 1

                         Standard orientation:
 ---------------------------------------------------------------------
 Center     Atomic      Atomic             Coordinates (Angstroms)
 Number     Number       Type             X           Y           Z
 ---------------------------------------------------------------------
      1          6           0        7.431353   -1.357432    0.278880
      2          8           0        6.815167   -0.131970   -0.082914
      3          6           0        5.453664   -0.053607   -0.029517
      4          6           0        4.607883   -1.094724    0.369835
      5          6           0        3.226415   -0.895616    0.385807
      6          6           0        2.649413    0.324519    0.007736
      7          6           0        3.521617    1.357727   -0.386992
      8          6           0        4.896978    1.177042   -0.407874
      9          6           0        1.179385    0.520771    0.021050
     10          6           0        0.620662    1.775976    0.405322
     11          6           0       -0.738121    1.979794    0.426996
     12          6           0       -1.639366    0.942219    0.068358
     13          6           0       -1.096345   -0.324626   -0.319937
     14          6           0        0.310438   -0.498222   -0.335454
     15          6           0       -1.993208   -1.363751   -0.691053
     16          6           0       -3.355342   -1.175882   -0.674657
     17          6           0       -3.873664    0.079482   -0.276308
     18          6           0       -3.046871    1.115903    0.083605
     19          8           0       -5.244143    0.351070   -0.325293
     20          6           0       -6.137924   -0.489853    0.286244
     21          8           0       -5.830224   -1.484080    0.895174
     22          6           0       -7.540901    0.026665    0.078489
     23          1           0        8.504599   -1.200575    0.156371
     24          1           0        7.108379   -2.179826   -0.373224
     25          1           0        7.221146   -1.622699    1.323542
     26          1           0        5.008609   -2.052814    0.680878
     27          1           0        2.586809   -1.704827    0.727073
     28          1           0        3.111671    2.311086   -0.708650
     29          1           0        5.564317    1.973044   -0.723462
     30          1           0        1.287536    2.576517    0.712416
     31          1           0       -1.140735    2.942302    0.733710
     32          1           0        0.707458   -1.455745   -0.663448
     33          1           0       -1.584977   -2.325055   -0.993000
     34          1           0       -4.032160   -1.974249   -0.952882
     35          1           0       -3.477715    2.069846    0.373240
     36          1           0       -7.638245    1.031506    0.502447
     37          1           0       -8.249715   -0.649143    0.557733
     38          1           0       -7.759748    0.102142   -0.991655
 ---------------------------------------------------------------------

 SCF Done:  E(RB3LYP) =  -959.349639998     A.U. after    3 cycles

 Excitation energies and oscillator strengths:

 Excited State   1:      Singlet-A      3.8882 eV  318.88 nm  f=0.1792  <S**2>=0.000
      76 -> 78         0.14308
      76 -> 79        -0.12101
      77 -> 78         0.65134
      77 -> 79         0.17675
 This state for optimization and/or second-order correction.
 Total Energy, E(TD-HF/TD-KS) =  -959.206752404
 Copying the excited state density for this state as the 1-particle RhoCI density.

 Excited State   2:      Singlet-A      4.1981 eV  295.33 nm  f=0.1546  <S**2>=0.000
      75 -> 78        -0.17629
      76 -> 78         0.39791
      77 -> 78        -0.24079
      77 -> 79         0.48638

 Excited State   3:      Singlet-A      4.6399 eV  267.21 nm  f=0.4212  <S**2>=0.000
      75 -> 78         0.26979
      76 -> 78         0.52275
      77 -> 79        -0.32104
      77 -> 80         0.15870

 Excited State   4:      Singlet-A      4.7161 eV  262.90 nm  f=0.0446  <S**2>=0.000
      74 -> 78        -0.25485
      74 -> 79         0.14347
      76 -> 78        -0.13094
      77 -> 80         0.59712

 Excited State   5:      Singlet-A      4.8510 eV  255.58 nm  f=0.3148  <S**2>=0.000
      75 -> 78         0.44021
      76 -> 79         0.41160
      77 -> 79         0.32628

 Excited State   6:      Singlet-A      5.0647 eV  244.80 nm  f=0.0354  <S**2>=0.000
      74 -> 78         0.10754
      76 -> 81        -0.12865
      77 -> 80         0.10151
      77 -> 81         0.66037

 Excited State   7:      Singlet-A      5.1989 eV  238.48 nm  f=0.0153  <S**2>=0.000
      74 -> 78         0.58780
      76 -> 80        -0.22426
      77 -> 80         0.24997
      77 -> 81        -0.14043

 Excited State   8:      Singlet-A      5.3239 eV  232.88 nm  f=0.3890  <S**2>=0.000
      73 -> 78         0.13210
      73 -> 81         0.12344
      75 -> 78        -0.28018
      75 -> 79         0.11397
      76 -> 79         0.40360
      76 -> 81        -0.10545
      77 -> 82         0.41113

 Excited State   9:      Singlet-A      5.4287 eV  228.39 nm  f=0.0091  <S**2>=0.000
      74 -> 78         0.23435
      74 -> 79         0.22786
      76 -> 80         0.60189

 Excited State  10:      Singlet-A      5.5265 eV  224.34 nm  f=0.0301  <S**2>=0.000
      72 -> 81         0.13647
      73 -> 78         0.40066
      73 -> 79        -0.15584
      73 -> 81         0.32112
      76 -> 79        -0.12777
      76 -> 81        -0.29198
      77 -> 81        -0.11681
      77 -> 83        -0.15269

 The electronic state is 1-A.
 Alpha  occ. eigenvalues --  -19.20051 -19.17958 -19.14189 -10.32464 -10.25159
 Alpha  occ. eigenvalues --  -10.24796 -10.24294 -10.20067 -10.19961 -10.19849
 Alpha  occ. eigenvalues --  -10.19738 -10.19415 -10.19350 -10.19261 -10.19192
 Alpha  occ. eigenvalues --  -10.19122 -10.19071 -10.19033 -10.18968 -10.18899
 Alpha  occ. eigenvalues --  -10.18811 -10.18503  -1.10765  -1.06528  -1.02547
 Alpha  occ. eigenvalues --   -0.87584  -0.85472  -0.82361  -0.77779  -0.77614
 Alpha  occ. eigenvalues --   -0.75322  -0.74809  -0.73086  -0.72164  -0.69090
 Alpha  occ. eigenvalues --   -0.64101  -0.63115  -0.61121  -0.59498  -0.59410
 Alpha  occ. eigenvalues --   -0.56511  -0.53635  -0.51424  -0.51042  -0.49388
 Alpha  occ. eigenvalues --   -0.48434  -0.47920  -0.47071  -0.46986  -0.46713
 Alpha  occ. eigenvalues --   -0.45045  -0.44545  -0.44457  -0.42457  -0.42221
 Alpha  occ. eigenvalues --   -0.41972  -0.41533  -0.41078  -0.40419  -0.39055
 Alpha  occ. eigenvalues --   -0.38623  -0.38362  -0.37599  -0.36969  -0.35725
 Alpha  occ. eigenvalues --   -0.34622  -0.33931  -0.33131  -0.32318  -0.32084
 Alpha  occ. eigenvalues --   -0.30447  -0.28467  -0.27547  -0.25178  -0.24410
 Alpha  occ. eigenvalues --   -0.22330  -0.19993
 Alpha virt. eigenvalues --   -0.04165  -0.01875  -0.00199   0.00419   0.02687
 Alpha virt. eigenvalues --    0.03716   0.09376   0.09768   0.10242   0.10830
 Alpha virt. eigenvalues --    0.10876   0.11665   0.12822   0.13584   0.14418

 Mulliken atomic charges:
              1
     1  C   -0.233354
     2  O   -0.472145
     3  C    0.389792
     4  C   -0.185841
     5  C   -0.168058
     6  C    0.103452
     7  C   -0.161777
     8  C   -0.164383
     9  C    0.096433
    10  C   -0.197165
    11  C   -0.226144
    12  C    0.154314
    13  C    0.163811
    14  C   -0.286592
    15  C   -0.241005
    16  C   -0.154948
    17  C    0.358040
    18  C   -0.283538
    19  O   -0.516127
    20  C    0.589632
    21  O   -0.445965
    22  C   -0.524791
    23  H    0.188934
    24  H    0.171800
    25  H    0.171904
    26  H    0.154860
    27  H    0.167268
    28  H    0.166477
    29  H    0.164273
    30  H    0.104762
    31  H    0.112955
    32  H    0.111229
    33  H    0.106829
    34  H    0.127450
    35  H    0.116397
    36  H    0.181211
    37  H    0.179182
    38  H    0.180825
 Sum of Mulliken atomic charges =  -0.00000

 Dipole moment (field-independent basis, Debye):
    X=              9.5803    Y=             -0.4411    Z=             -0.3773  Tot=              9.5979
 Quadrupole moment (field-independent basis, Debye-Ang):
   XX=            -73.9017   YY=           -119.4551   ZZ=           -130.6937
   XY=            -20.4895   XZ=              7.6369   YZ=              2.2058

 Summary of Natural Population Analysis:

                                       Natural Population
                Natural  -----------------------------------------------
    Atom  No    Charge         Core      Valence    Rydberg      Total
 -----------------------------------------------------------------------
      C    1   -0.32559      1.99942     4.31196    0.01421     6.32559
      O    2   -0.47082      1.99975     6.45936    0.01171     8.47082
      C    3    0.35644      1.99879     3.62315    0.02162     5.64356
      C    4   -0.29670      1.99903     4.28544    0.01223     6.29670
      C    5   -0.18425      1.99906     4.17133    0.01386     6.18425
      C    6    0.03075      1.99901     3.95463    0.01561     5.96925
      C    7   -0.19431      1.99906     4.18228    0.01297     6.19431
      C    8   -0.24549      1.99904     4.23192    0.01453     6.24549
      C    9   -0.07417      1.99901     4.05944    0.01573     6.07417
      C   10   -0.26209      1.99907     4.24886    0.01416     6.26209
      C   11   -0.26005      1.99906     4.24540    0.01559     6.26005
      C   12   -0.01185      1.99902     3.99805    0.01477     6.01185
      C   13   -0.04697      1.99902     4.03303    0.01491     6.04697
      C   14   -0.22490      1.99901     4.21172    0.01418     6.22490
      C   15   -0.25954      1.99907     4.24538    0.01509     6.25954
      C   16   -0.29474      1.99901     4.28115    0.01458     6.29474
      C   17    0.32050      1.99870     3.65862    0.02218     5.67950
      C   18   -0.31450      1.99896     4.30023    0.01531     6.31450
      O   19   -0.54224      1.99970     6.53119    0.01134     8.54224
      C   20    0.82179      1.99945     3.13533    0.04344     5.17821
      O   21   -0.57684      1.99978     6.55705    0.02001     8.57684
      C   22   -0.77415      1.99934     4.76818    0.00664     6.77415
      H   23    0.23921      0.00000     0.76034    0.00045     0.76079
      H   24    0.21484      0.00000     0.78361    0.00155     0.78516
      H   25    0.21478      0.00000     0.78371    0.00151     0.78522
      H   26    0.24842      0.00000     0.75076    0.00082     0.75158
      H   27    0.25573      0.00000     0.74301    0.00126     0.74427
      H   28    0.25729      0.00000     0.74150    0.00121     0.74271
      H   29    0.25791      0.00000     0.74102    0.00107     0.74209
      H   30    0.22256      0.00000     0.77653    0.00091     0.77744
      H   31    0.22804      0.00000     0.77092    0.00105     0.77196
      H   32    0.22112      0.00000     0.77746    0.00142     0.77888
      H   33    0.22379      0.00000     0.77513    0.00107     0.77621
      H   34    0.24391      0.00000     0.75516    0.00093     0.75609
      H   35    0.23544      0.00000     0.76316    0.00140     0.76456
      H   36    0.25626      0.00000     0.74282    0.00092     0.74374
      H   37    0.25424      0.00000     0.74478    0.00098     0.74576
      H   38    0.25620      0.00000     0.74290    0.00090     0.74380
 =======================================================================
   * Total *   -0.00000     43.98137   109.64651    0.37212   154.00000

 Normal termination of Gaussian 09 at Wed Sep 29 15:13:24 2021.
