 Gaussian 09, Revision A.02,

 -----------------------------------
 #p opt b3lyp/6-31G* scf=(xqc,tight)
 -----------------------------------

 -----------------------------------------
 O=C(C(C)(C)C)Oc1cc2ccccc2c2c1cccc2_conf_0
 -----------------------------------------
 Symbolic Z-matrix:
 Charge =  0 Multiplicity = 1

 SCF Done:  E(RB3LYP) =  -885.345704041     A.U. after   16 cycles
 SCF Done:  E(RB3LYP) =  -885.354068854     A.U. after   13 cycles
 SCF Done:  E(RB3LYP) =  -885.354669746     A.U. after   12 cycles
 SCF Done:  E(RB3LYP) =  -885.353566651     A.U. after   12 cycles
 SCF Done:  E(RB3LYP) =  -885.354883544     A.U. after   12 cycles
 SCF Done:  E(RB3LYP) =  -885.354975148     A.U. after   12 cycles
 SCF Done:  E(RB3LYP) =  -885.355142575     A.U. after   12 cycles
 SCF Done:  E(RB3LYP) =  -885.355205641     A.U. after   11 cycles
 SCF Done:  E(RB3LYP) =  -885.355252819     A.U. after   11 cycles
 SCF Done:  E(RB3LYP) =  -885.355262926     A.U. after   11 cycles
 SCF Done:  E(RB3LYP) =  -885.355372700     A.U. after   11 cycles
 SCF Done:  E(RB3LYP) =  -885.355384818     A.U. after   11 cycles
 SCF Done:  E(RB3LYP) =  -885.355387300     A.U. after   10 cycles
 SCF Done:  E(RB3LYP) =  -885.355388069     A.U. after    8 cycles
 SCF Done:  E(RB3LYP) =  -885.355388151     A.U. after    9 cycles
 SCF Done:  E(RB3LYP) =  -885.355388266     A.U. after    7 cycles
 SCF Done:  E(RB3LYP) =  -885.355388252     A.U. after    7 cycles
 SCF Done:  E(RB3LYP) =  -885.355388230     A.U. after    7 cycles
 Optimization completed.
    -- Stationary point found.
 Normal termination of Gaussian 09 at Thu Sep 30 00:53:27 2021.

 ----------------------------------------------------------------------
 #p freq b3lyp/6-31G* volume NMR pop=NPA density=current Geom=AllCheck
 Guess=Read
 ----------------------------------------------------------------------

 O=C(C(C)(C)C)Oc1cc2ccccc2c2c1cccc2_conf_0
 -----------------------------------------
 Redundant internal coordinates taken from checkpoint file:
 C19H18O2_4630_conf_0.chk
 Charge =  0 Multiplicity = 1

 SCF Done:  E(RB3LYP) =  -885.355388230     A.U. after    1 cycles

  1  O    Isotropic =   -64.4122   Anisotropy =   580.2325

  2  C    Isotropic =    22.6528   Anisotropy =    77.5583

  3  C    Isotropic =   148.0953   Anisotropy =    25.3168

  4  C    Isotropic =   161.9596   Anisotropy =    37.7044

  5  C    Isotropic =   161.8664   Anisotropy =    37.1870

  6  C    Isotropic =   162.4855   Anisotropy =    31.7082

  7  O    Isotropic =   115.1733   Anisotropy =   178.2235

  8  C    Isotropic =    50.3933   Anisotropy =    92.7548

  9  C    Isotropic =    75.2225   Anisotropy =   123.1258

 10  C    Isotropic =    64.4772   Anisotropy =   188.4251

 11  C    Isotropic =    66.7880   Anisotropy =   144.4457

 12  C    Isotropic =    69.6230   Anisotropy =   163.5102

 13  C    Isotropic =    70.4302   Anisotropy =   160.8865

 14  C    Isotropic =    72.9774   Anisotropy =   159.9830

 15  C    Isotropic =    67.4716   Anisotropy =   182.0316

 16  C    Isotropic =    64.1077   Anisotropy =   180.7596

 17  C    Isotropic =    69.1396   Anisotropy =   174.6176

 18  C    Isotropic =    72.4608   Anisotropy =   162.2568

 19  C    Isotropic =    70.2221   Anisotropy =   163.6565

 20  C    Isotropic =    69.8433   Anisotropy =   162.3740

 21  C    Isotropic =    72.7592   Anisotropy =   160.4797

 22  H    Isotropic =    30.1055   Anisotropy =     7.8709

 23  H    Isotropic =    30.6753   Anisotropy =     7.5878

 24  H    Isotropic =    30.9539   Anisotropy =     8.1115

 25  H    Isotropic =    30.2878   Anisotropy =     5.2762

 26  H    Isotropic =    30.9576   Anisotropy =     8.0644

 27  H    Isotropic =    30.7039   Anisotropy =     8.2288

 28  H    Isotropic =    30.5882   Anisotropy =     7.7582

 29  H    Isotropic =    30.5184   Anisotropy =     8.3512

 30  H    Isotropic =    31.4066   Anisotropy =     8.0736

 31  H    Isotropic =    24.7317   Anisotropy =    11.4107

 32  H    Isotropic =    24.5296   Anisotropy =     8.2123

 33  H    Isotropic =    24.6987   Anisotropy =     5.2139

 34  H    Isotropic =    24.6269   Anisotropy =     5.4405

 35  H    Isotropic =    23.6931   Anisotropy =     9.7621

 36  H    Isotropic =    24.0322   Anisotropy =    10.4272

 37  H    Isotropic =    24.6507   Anisotropy =     6.2596

 38  H    Isotropic =    24.5630   Anisotropy =     5.4330

 39  H    Isotropic =    23.6341   Anisotropy =     9.5729

  Exact polarizability: 273.667  24.793 261.206   4.684  -3.478  95.778
 Approx polarizability: 406.757  43.981 448.116  13.640  -1.817 152.080

                     1                      2                      3
                     A                      A                      A
 Frequencies --    20.5140                37.1433                42.8951
 Red. masses --     3.5728                 4.5609                 4.6895
 Frc consts  --     0.0009                 0.0037                 0.0051
 IR Inten    --     0.4021                 0.2979                 0.7143

                     4                      5                      6
                     A                      A                      A
 Frequencies --    63.7041                98.3227               101.9175
 Red. masses --     5.2235                 4.2465                 3.7712
 Frc consts  --     0.0125                 0.0242                 0.0231
 IR Inten    --     0.4298                 0.8948                 0.1149

                     7                      8                      9
                     A                      A                      A
 Frequencies --   159.8734               180.2761               206.3824
 Red. masses --     4.3296                 4.5901                 2.0941
 Frc consts  --     0.0652                 0.0879                 0.0526
 IR Inten    --     0.3316                 0.4709                 0.3493

                    10                     11                     12
                     A                      A                      A
 Frequencies --   229.0113               243.3812               256.1387
 Red. masses --     1.2648                 3.9174                 2.8853
 Frc consts  --     0.0391                 0.1367                 0.1115
 IR Inten    --     0.2570                 0.4590                 0.2599

                    13                     14                     15
                     A                      A                      A
 Frequencies --   270.9644               278.3262               293.8984
 Red. masses --     1.3198                 1.3630                 1.8404
 Frc consts  --     0.0571                 0.0622                 0.0937
 IR Inten    --     0.1140                 0.0776                 0.5376

                    16                     17                     18
                     A                      A                      A
 Frequencies --   328.3997               335.8790               358.8562
 Red. masses --     3.7954                 3.7601                 3.3876
 Frc consts  --     0.2412                 0.2499                 0.2570
 IR Inten    --     6.8180                 0.7983                 7.3339

                    19                     20                     21
                     A                      A                      A
 Frequencies --   380.0491               412.1473               423.0846
 Red. masses --     2.4077                 5.7503                 3.8092
 Frc consts  --     0.2049                 0.5755                 0.4017
 IR Inten    --     0.9422                 3.0168                 1.9022

                    22                     23                     24
                     A                      A                      A
 Frequencies --   433.3746               454.0909               472.7912
 Red. masses --     3.3729                 3.7276                 4.7107
 Frc consts  --     0.3732                 0.4529                 0.6204
 IR Inten    --     1.2862                 1.3517                 1.0302

                    25                     26                     27
                     A                      A                      A
 Frequencies --   521.0519               551.8964               565.4532
 Red. masses --     3.1351                 6.3073                 4.1009
 Frc consts  --     0.5015                 1.1319                 0.7725
 IR Inten    --     1.7134                 4.8072                 0.6723

                    28                     29                     30
                     A                      A                      A
 Frequencies --   579.2681               601.8142               629.0235
 Red. masses --     4.1317                 4.2868                 4.0511
 Frc consts  --     0.8168                 0.9148                 0.9444
 IR Inten    --     0.9959                 2.0486                 0.4320

                    31                     32                     33
                     A                      A                      A
 Frequencies --   631.8645               678.4561               728.2031
 Red. masses --     6.2228                 6.1099                 5.5329
 Frc consts  --     1.4638                 1.6570                 1.7287
 IR Inten    --     4.0891                 6.1401                 1.2878

                    34                     35                     36
                     A                      A                      A
 Frequencies --   738.6108               755.8533               758.0820
 Red. masses --     3.0304                 3.8884                 1.6889
 Frc consts  --     0.9740                 1.3089                 0.5719
 IR Inten    --    16.1213                18.3087                11.2483

                    37                     38                     39
                     A                      A                      A
 Frequencies --   773.5642               795.1532               799.0523
 Red. masses --     1.7804                 2.2318                 4.3362
 Frc consts  --     0.6277                 0.8314                 1.6312
 IR Inten    --    40.2236                 0.1030                 2.0918

                    40                     41                     42
                     A                      A                      A
 Frequencies --   823.9263               861.7847               874.6562
 Red. masses --     3.9155                 1.5077                 1.7975
 Frc consts  --     1.5661                 0.6597                 0.8102
 IR Inten    --     2.7769                 3.8509                 0.3102

                    43                     44                     45
                     A                      A                      A
 Frequencies --   885.5885               896.7990               908.9320
 Red. masses --     1.8799                 3.0991                 2.9187
 Frc consts  --     0.8687                 1.4685                 1.4207
 IR Inten    --     1.4801                 4.5249                18.1663

                    46                     47                     48
                     A                      A                      A
 Frequencies --   938.8450               950.7856               951.6964
 Red. masses --     1.3739                 1.7581                 1.3400
 Frc consts  --     0.7135                 0.9364                 0.7151
 IR Inten    --     0.8752                 1.1289                 1.7976

                    49                     50                     51
                     A                      A                      A
 Frequencies --   955.3316               981.5259               982.5703
 Red. masses --     1.6363                 1.1995                 1.2829
 Frc consts  --     0.8799                 0.6808                 0.7297
 IR Inten    --     4.3654                 0.0353                 0.1682

                    52                     53                     54
                     A                      A                      A
 Frequencies --   986.1598              1017.7041              1049.0653
 Red. masses --     1.2600                 7.4954                 2.1222
 Frc consts  --     0.7220                 4.5739                 1.3760
 IR Inten    --     0.0209                 2.1723                18.8698

                    55                     56                     57
                     A                      A                      A
 Frequencies --  1060.2059              1069.9019              1071.6264
 Red. masses --     1.4290                 2.3772                 2.0848
 Frc consts  --     0.9464                 1.6033                 1.4106
 IR Inten    --     1.1788                26.6252                 9.8657

                    58                     59                     60
                     A                      A                      A
 Frequencies --  1083.7196              1134.0757              1147.6567
 Red. masses --     2.2664                 2.4378                 4.5097
 Frc consts  --     1.5683                 1.8473                 3.4996
 IR Inten    --     1.9476                48.5331               832.8366

                    61                     62                     63
                     A                      A                      A
 Frequencies --  1180.2008              1194.4007              1200.0086
 Red. masses --     1.4062                 1.2274                 1.0757
 Frc consts  --     1.1540                 1.0316                 0.9126
 IR Inten    --    11.8051                 0.8466                 0.7208

                    64                     65                     66
                     A                      A                      A
 Frequencies --  1230.0170              1242.7806              1258.0772
 Red. masses --     1.4690                 2.6724                 3.0149
 Frc consts  --     1.3094                 2.4319                 2.8115
 IR Inten    --    11.2154                 2.0210                59.1363

                    67                     68                     69
                     A                      A                      A
 Frequencies --  1264.5907              1277.2974              1304.7666
 Red. masses --     2.8440                 1.5869                 2.7543
 Frc consts  --     2.6796                 1.5254                 2.7627
 IR Inten    --    29.8903                 0.4227                61.5180

                    70                     71                     72
                     A                      A                      A
 Frequencies --  1315.1527              1340.4776              1381.8472
 Red. masses --     1.9238                 3.0457                 5.8666
 Frc consts  --     1.9605                 3.2245                 6.6002
 IR Inten    --     2.3408                32.7617                 0.3094

                    73                     74                     75
                     A                      A                      A
 Frequencies --  1390.7671              1422.3550              1429.3470
 Red. masses --     5.4194                 1.2075                 1.2433
 Frc consts  --     6.1761                 1.4393                 1.4966
 IR Inten    --     0.1323                 3.7897                 6.4819

                    76                     77                     78
                     A                      A                      A
 Frequencies --  1438.9943              1458.5041              1470.1263
 Red. masses --     2.3416                 1.2300                 2.6133
 Frc consts  --     2.8568                 1.5416                 3.3277
 IR Inten    --    27.5314                13.3603                14.6833

                    79                     80                     81
                     A                      A                      A
 Frequencies --  1490.2787              1499.6793              1509.1918
 Red. masses --     2.5524                 2.3390                 1.0488
 Frc consts  --     3.3400                 3.0995                 1.4074
 IR Inten    --     8.0593                 9.6111                 0.0266

                    82                     83                     84
                     A                      A                      A
 Frequencies --  1516.0142              1520.6660              1530.9536
 Red. masses --     1.0453                 1.0457                 1.0491
 Frc consts  --     1.4155                 1.4247                 1.4488
 IR Inten    --     0.6068                 0.5529                 5.9761

                    85                     86                     87
                     A                      A                      A
 Frequencies --  1533.7902              1547.7873              1550.1054
 Red. masses --     1.0528                 2.8080                 1.0993
 Frc consts  --     1.4593                 3.9634                 1.5563
 IR Inten    --     7.6801                24.4723                22.7026

                    88                     89                     90
                     A                      A                      A
 Frequencies --  1581.7893              1624.2601              1662.1785
 Red. masses --     3.3831                 6.8524                 5.3091
 Frc consts  --     4.9873                10.6514                 8.6422
 IR Inten    --     2.1794                 2.3209                18.6141

                    91                     92                     93
                     A                      A                      A
 Frequencies --  1671.4692              1676.6597              1833.7093
 Red. masses --     5.8327                 7.1048                12.7274
 Frc consts  --     9.6011                11.7677                25.2146
 IR Inten    --     3.1968                33.5661               170.7599

                    94                     95                     96
                     A                      A                      A
 Frequencies --  3050.5146              3052.3975              3062.1829
 Red. masses --     1.0354                 1.0361                 1.0365
 Frc consts  --     5.6766                 5.6874                 5.7264
 IR Inten    --    26.4194                10.7372                27.7776

                    97                     98                     99
                     A                      A                      A
 Frequencies --  3114.5484              3115.8358              3130.3135
 Red. masses --     1.1031                 1.1024                 1.1017
 Frc consts  --     6.3045                 6.3060                 6.3605
 IR Inten    --     9.9516                27.0909                38.5021

                   100                    101                    102
                     A                      A                      A
 Frequencies --  3137.2632              3140.9023              3142.2009
 Red. masses --     1.1020                 1.1026                 1.1011
 Frc consts  --     6.3902                 6.4090                 6.4054
 IR Inten    --     7.4738                22.9078                43.4020

                   103                    104                    105
                     A                      A                      A
 Frequencies --  3182.3347              3187.5254              3191.4777
 Red. masses --     1.0857                 1.0861                 1.0890
 Frc consts  --     6.4782                 6.5018                 6.5355
 IR Inten    --     1.7455                 1.6387                13.4621

                   106                    107                    108
                     A                      A                      A
 Frequencies --  3201.7560              3206.3512              3213.6448
 Red. masses --     1.0913                 1.0941                 1.0964
 Frc consts  --     6.5914                 6.6272                 6.6711
 IR Inten    --    37.8583                 9.1473                15.9890

                   109                    110                    111
                     A                      A                      A
 Frequencies --  3227.2583              3234.2911              3237.2618
 Red. masses --     1.0903                 1.0923                 1.0916
 Frc consts  --     6.6907                 6.7322                 6.7404
 IR Inten    --    35.6038                 9.0102                 5.1819

 - Thermochemistry -
 -------------------
 Temperature   298.150 Kelvin.  Pressure   1.00000 Atm.
 Atom     1 has atomic number  8 and mass  15.99491

 Molecular mass:   278.13068 amu.
 Principal axes and moments of inertia in atomic units:
                           1         2         3
     Eigenvalues --  3534.504878760.18451**********
           X            0.99999  -0.00044   0.00349
           Y            0.00046   0.99999  -0.00512
           Z           -0.00349   0.00512   0.99998
 This molecule is an asymmetric top.
 Rotational symmetry number  1.
 Warning -- assumption of classical behavior for rotation
           may cause significant error
 Rotational temperatures (Kelvin)      0.02451     0.00989     0.00740
 Rotational constants (GHZ):           0.51061     0.20602     0.15419
 Zero-point vibrational energy     844549.4 (Joules/Mol)
                                  201.85214 (Kcal/Mol)
 Warning -- explicit consideration of  29 degrees of freedom as
           vibrations may cause significant error
 Vibrational temperatures:     29.52    53.44    61.72    91.66   141.46
          (Kelvin)            146.64   230.02   259.38   296.94   329.50
                              350.17   368.53   389.86   400.45   422.85
                              472.49   483.25   516.31   546.81   592.99
                              608.72   623.53   653.33   680.24   749.68
                              794.05   813.56   833.44   865.88   905.02
                              909.11   976.15  1047.72  1062.69  1087.50
                             1090.71  1112.98  1144.05  1149.66  1185.44
                             1239.91  1258.43  1274.16  1290.29  1307.75
                             1350.79  1367.97  1369.28  1374.51  1412.20
                             1413.70  1418.86  1464.25  1509.37  1525.40
                             1539.35  1541.83  1559.23  1631.68  1651.22
                             1698.04  1718.47  1726.54  1769.72  1788.08
                             1810.09  1819.46  1837.74  1877.27  1892.21
                             1928.65  1988.17  2001.00  2046.45  2056.51
                             2070.39  2098.46  2115.18  2144.18  2157.70
                             2171.39  2181.20  2187.90  2202.70  2206.78
                             2226.92  2230.25  2275.84  2336.95  2391.50
                             2404.87  2412.34  2638.30  4389.00  4391.71
                             4405.79  4481.13  4482.99  4503.82  4513.82
                             4519.05  4520.92  4578.66  4586.13  4591.82
                             4606.61  4613.22  4623.71  4643.30  4653.42
                             4657.69

 Zero-point correction=                           0.321672 (Hartree/Particle)
 Thermal correction to Energy=                    0.339868
 Thermal correction to Enthalpy=                  0.340812
 Thermal correction to Gibbs Free Energy=         0.274605
 Sum of electronic and zero-point Energies=           -885.033716
 Sum of electronic and thermal Energies=              -885.015520
 Sum of electronic and thermal Enthalpies=            -885.014576
 Sum of electronic and thermal Free Energies=         -885.080783

                     E (Thermal)             CV                S
                      KCal/Mol        Cal/Mol-Kelvin    Cal/Mol-Kelvin
 Total                  213.270             72.386            139.345
 Electronic               0.000              0.000              0.000
 Translational            0.889              2.981             42.767
 Rotational               0.889              2.981             34.249
 Vibrational            211.493             66.424             62.329
 Vibration     1          0.593              1.986              6.584
 Vibration     2          0.594              1.982              5.406
 Vibration     3          0.595              1.980              5.121
 Vibration     4          0.597              1.972              4.339
 Vibration     5          0.604              1.950              3.487
 Vibration     6          0.604              1.948              3.417
 Vibration     7          0.622              1.892              2.551
 Vibration     8          0.629              1.866              2.326
 Vibration     9          0.641              1.831              2.075
 Vibration    10          0.652              1.797              1.887
 Vibration    11          0.659              1.774              1.778
 Vibration    12          0.666              1.752              1.688
 Vibration    13          0.675              1.727              1.590
 Vibration    14          0.679              1.714              1.544
 Vibration    15          0.689              1.685              1.451
 Vibration    16          0.712              1.619              1.268
 Vibration    17          0.717              1.604              1.232
 Vibration    18          0.734              1.557              1.127
 Vibration    19          0.750              1.513              1.039
 Vibration    20          0.776              1.444              0.919
 Vibration    21          0.785              1.420              0.882
 Vibration    22          0.794              1.398              0.848
 Vibration    23          0.813              1.352              0.784
 Vibration    24          0.830              1.310              0.730
 Vibration    25          0.876              1.203              0.608
 Vibration    26          0.907              1.136              0.540
 Vibration    27          0.921              1.106              0.513
 Vibration    28          0.936              1.076              0.487
 Vibration    29          0.960              1.028              0.447

 Optimization completed.
    -- Stationary point found.
 Normal termination of Gaussian 09 at Thu Sep 30 03:28:27 2021.
 Gaussian 09:  AM64L-G09RevA.02 11-Jun-2009

 ----------------------------------------------------------------------
 #p TD(NStates=10, Root=1) b3lyp/6-31G* volume pop=NPA density=current
 Geom=AllCheck Guess=Read
 ----------------------------------------------------------------------

 O=C(C(C)(C)C)Oc1cc2ccccc2c2c1cccc2_conf_0
 -----------------------------------------
 Redundant internal coordinates taken from checkpoint file:
 C19H18O2_4630_conf_0.chk
 Charge =  0 Multiplicity = 1

                         Standard orientation:
 ---------------------------------------------------------------------
 Center     Atomic      Atomic             Coordinates (Angstroms)
 Number     Number       Type             X           Y           Z
 ---------------------------------------------------------------------
      1          8           0        2.122203   -1.519451   -1.176818
      2          6           0        2.456085   -0.704088   -0.353452
      3          6           0        3.898097   -0.379121    0.052622
      4          6           0        4.184635    1.117283   -0.203780
      5          6           0        4.076603   -0.694343    1.555046
      6          6           0        4.846399   -1.248409   -0.788651
      7          8           0        1.567086    0.063647    0.364404
      8          6           0        0.188111   -0.079473    0.203736
      9          6           0       -0.426133   -1.290828    0.231133
     10          6           0       -1.851730   -1.386735    0.130083
     11          6           0       -2.482663   -2.652958    0.150747
     12          6           0       -3.855472   -2.765371    0.058405
     13          6           0       -4.641800   -1.604048   -0.058333
     14          6           0       -4.045881   -0.355996   -0.080465
     15          6           0       -2.642622   -0.206465    0.012988
     16          6           0       -1.974542    1.088241   -0.006053
     17          6           0       -0.550952    1.150312    0.085836
     18          6           0        0.101471    2.404376    0.063036
     19          6           0       -0.620783    3.576265   -0.047512
     20          6           0       -2.023218    3.526750   -0.136233
     21          6           0       -2.679138    2.309893   -0.115396
     22          1           0        3.553753    1.758967    0.417755
     23          1           0        4.018464    1.380942   -1.254652
     24          1           0        5.231822    1.335952    0.034785
     25          1           0        3.407679   -0.088481    2.172565
     26          1           0        5.109500   -0.482598    1.854746
     27          1           0        3.876709   -1.751468    1.765146
     28          1           0        4.725212   -1.047860   -1.857444
     29          1           0        4.654620   -2.313551   -0.628818
     30          1           0        5.885304   -1.037259   -0.511754
     31          1           0        0.155670   -2.200539    0.316389
     32          1           0       -1.862356   -3.541600    0.238141
     33          1           0       -4.327007   -3.744094    0.074293
     34          1           0       -5.722758   -1.685855   -0.132442
     35          1           0       -4.679100    0.519695   -0.172871
     36          1           0        1.182526    2.431417    0.133279
     37          1           0       -0.106259    4.533087   -0.065210
     38          1           0       -2.595713    4.446342   -0.221585
     39          1           0       -3.761188    2.301629   -0.185562
 ---------------------------------------------------------------------

 SCF Done:  E(RB3LYP) =  -885.355388230     A.U. after    1 cycles

 Excitation energies and oscillator strengths:

 Excited State   1:      Singlet-A      3.9637 eV  312.80 nm  f=0.0029  <S**2>=0.000
      73 -> 75         0.42448
      74 -> 76         0.55854
 This state for optimization and/or second-order correction.
 Total Energy, E(TD-HF/TD-KS) =  -885.209723216
 Copying the excited state density for this state as the 1-particle RhoCI density.

 Excited State   2:      Singlet-A      4.1612 eV  297.96 nm  f=0.1083  <S**2>=0.000
      73 -> 76        -0.28538
      74 -> 75         0.63701

 Excited State   3:      Singlet-A      4.7214 eV  262.60 nm  f=0.1437  <S**2>=0.000
      73 -> 75         0.53277
      74 -> 76        -0.40963

 Excited State   4:      Singlet-A      5.0105 eV  247.45 nm  f=0.3686  <S**2>=0.000
      72 -> 75        -0.12383
      73 -> 76         0.46025
      74 -> 75         0.19076
      74 -> 77        -0.44424
      74 -> 78        -0.13883

 Excited State   5:      Singlet-A      5.0741 eV  244.35 nm  f=0.2463  <S**2>=0.000
      72 -> 75         0.34711
      73 -> 75        -0.10319
      73 -> 76         0.36328
      74 -> 75         0.15709
      74 -> 77         0.41767
      74 -> 78        -0.14581

 Excited State   6:      Singlet-A      5.2166 eV  237.67 nm  f=0.0020  <S**2>=0.000
      70 -> 75        -0.15161
      72 -> 75        -0.11326
      72 -> 76         0.43917
      73 -> 77        -0.38074
      73 -> 78         0.24732
      74 -> 78         0.16631
      74 -> 79         0.12813

 Excited State   7:      Singlet-A      5.2729 eV  235.14 nm  f=0.1380  <S**2>=0.000
      71 -> 75        -0.10613
      72 -> 75        -0.36131
      72 -> 76        -0.19650
      73 -> 76         0.20272
      74 -> 77         0.23207
      74 -> 78         0.42849

 Excited State   8:      Singlet-A      5.3562 eV  231.48 nm  f=0.0455  <S**2>=0.000
      71 -> 75         0.51594
      71 -> 77        -0.26889
      71 -> 78        -0.18561
      72 -> 76        -0.10978
      72 -> 77        -0.10820
      74 -> 78         0.24246

 Excited State   9:      Singlet-A      5.6870 eV  218.01 nm  f=0.0233  <S**2>=0.000
      70 -> 75        -0.22763
      71 -> 75         0.15088
      72 -> 76         0.12789
      73 -> 77         0.51196
      73 -> 78         0.34218
      74 -> 79         0.11800

 Excited State  10:      Singlet-A      5.7423 eV  215.91 nm  f=0.0520  <S**2>=0.000
      70 -> 75         0.39865
      71 -> 75         0.18050
      72 -> 75        -0.26857
      72 -> 76         0.15979
      73 -> 78         0.16402
      74 -> 77         0.11958
      74 -> 78        -0.21764
      74 -> 79        -0.30740

 The electronic state is 1-A.
 Alpha  occ. eigenvalues --  -19.20204 -19.14272 -10.31898 -10.25207 -10.21682
 Alpha  occ. eigenvalues --  -10.20459 -10.20318 -10.20095 -10.20022 -10.19262
 Alpha  occ. eigenvalues --  -10.19203 -10.19176 -10.19085 -10.19084 -10.19074
 Alpha  occ. eigenvalues --  -10.19040 -10.18990 -10.18944 -10.18582 -10.18482
 Alpha  occ. eigenvalues --  -10.17628  -1.10796  -1.02662  -0.88143  -0.84715
 Alpha  occ. eigenvalues --   -0.82935  -0.80573  -0.77457  -0.75771  -0.72445
 Alpha  occ. eigenvalues --   -0.72255  -0.69481  -0.68983  -0.66738  -0.63150
 Alpha  occ. eigenvalues --   -0.62162  -0.59978  -0.58293  -0.56272  -0.53501
 Alpha  occ. eigenvalues --   -0.52104  -0.49095  -0.48589  -0.48311  -0.48103
 Alpha  occ. eigenvalues --   -0.46269  -0.45385  -0.44065  -0.43626  -0.43332
 Alpha  occ. eigenvalues --   -0.42808  -0.42312  -0.42124  -0.40704  -0.40363
 Alpha  occ. eigenvalues --   -0.39613  -0.38957  -0.38556  -0.37149  -0.36880
 Alpha  occ. eigenvalues --   -0.36144  -0.35982  -0.35701  -0.34410  -0.33771
 Alpha  occ. eigenvalues --   -0.33625  -0.32969  -0.32472  -0.29816  -0.28176
 Alpha  occ. eigenvalues --   -0.27322  -0.25929  -0.22385  -0.20936
 Alpha virt. eigenvalues --   -0.04008  -0.03263   0.00205   0.01130   0.03702
 Alpha virt. eigenvalues --    0.07512   0.08406   0.09337   0.10070   0.11319
 Alpha virt. eigenvalues --    0.12292   0.12920   0.14595   0.14776   0.14948

 Mulliken atomic charges:
              1
     1  O   -0.457981
     2  C    0.634759
     3  C   -0.011821
     4  C   -0.457558
     5  C   -0.453121
     6  C   -0.434220
     7  O   -0.534033
     8  C    0.295151
     9  C   -0.213136
    10  C    0.133456
    11  C   -0.201743
    12  C   -0.140561
    13  C   -0.129647
    14  C   -0.197553
    15  C    0.078049
    16  C    0.042953
    17  C    0.097484
    18  C   -0.197423
    19  C   -0.145081
    20  C   -0.126840
    21  C   -0.202704
    22  H    0.168365
    23  H    0.155101
    24  H    0.150833
    25  H    0.166085
    26  H    0.151103
    27  H    0.151274
    28  H    0.158115
    29  H    0.156480
    30  H    0.138739
    31  H    0.158527
    32  H    0.134931
    33  H    0.130080
    34  H    0.133254
    35  H    0.136109
    36  H    0.144257
    37  H    0.125965
    38  H    0.130353
    39  H    0.131998
 Sum of Mulliken atomic charges =  -0.00000

 Dipole moment (field-independent basis, Debye):
    X=              0.7938    Y=              0.5186    Z=              1.2186  Tot=              1.5440
 Quadrupole moment (field-independent basis, Debye-Ang):
   XX=           -103.9860   YY=           -114.8206   ZZ=           -128.6302
   XY=              2.4641   XZ=              3.6042   YZ=             -4.1486

 Summary of Natural Population Analysis:

                                       Natural Population
                Natural  -----------------------------------------------
    Atom  No    Charge         Core      Valence    Rydberg      Total
 -----------------------------------------------------------------------
      O    1   -0.57228      1.99977     6.55248    0.02002     8.57228
      C    2    0.84420      1.99927     3.10765    0.04888     5.15580
      C    3   -0.15169      1.99905     4.14035    0.01229     6.15169
      C    4   -0.66926      1.99938     4.65997    0.00991     6.66926
      C    5   -0.67022      1.99938     4.66110    0.00974     6.67022
      C    6   -0.67034      1.99940     4.65984    0.01111     6.67034
      O    7   -0.54239      1.99969     6.53183    0.01087     8.54239
      C    8    0.34825      1.99867     3.63080    0.02228     5.65175
      C    9   -0.21109      1.99896     4.19835    0.01377     6.21109
      C   10   -0.05675      1.99903     4.04290    0.01482     6.05675
      C   11   -0.19441      1.99907     4.18114    0.01420     6.19441
      C   12   -0.25261      1.99911     4.23789    0.01561     6.25261
      C   13   -0.20702      1.99912     4.19318    0.01472     6.20702
      C   14   -0.21547      1.99908     4.20237    0.01402     6.21547
      C   15   -0.03840      1.99901     4.02472    0.01466     6.03840
      C   16   -0.03409      1.99903     4.02013    0.01493     6.03409
      C   17   -0.08861      1.99897     4.07495    0.01470     6.08861
      C   18   -0.20806      1.99908     4.19420    0.01478     6.20806
      C   19   -0.25309      1.99910     4.23834    0.01565     6.25309
      C   20   -0.20923      1.99911     4.19540    0.01472     6.20923
      C   21   -0.22463      1.99908     4.21146    0.01409     6.22463
      H   22    0.23963      0.00000     0.75936    0.00101     0.76037
      H   23    0.23843      0.00000     0.76067    0.00089     0.76157
      H   24    0.23682      0.00000     0.76215    0.00103     0.76318
      H   25    0.24484      0.00000     0.75410    0.00106     0.75516
      H   26    0.23651      0.00000     0.76244    0.00105     0.76349
      H   27    0.23597      0.00000     0.76311    0.00092     0.76403
      H   28    0.24391      0.00000     0.75507    0.00102     0.75609
      H   29    0.24316      0.00000     0.75581    0.00103     0.75684
      H   30    0.23094      0.00000     0.76816    0.00090     0.76906
      H   31    0.25425      0.00000     0.74452    0.00123     0.74575
      H   32    0.23387      0.00000     0.76508    0.00105     0.76613
      H   33    0.23593      0.00000     0.76327    0.00080     0.76407
      H   34    0.23620      0.00000     0.76299    0.00081     0.76380
      H   35    0.22981      0.00000     0.76922    0.00096     0.77019
      H   36    0.23959      0.00000     0.75926    0.00115     0.76041
      H   37    0.23391      0.00000     0.76530    0.00079     0.76609
      H   38    0.23517      0.00000     0.76401    0.00082     0.76483
      H   39    0.22824      0.00000     0.77078    0.00098     0.77176
 =======================================================================
   * Total *    0.00000     41.98236   105.66436    0.35328   148.00000

 Normal termination of Gaussian 09 at Thu Sep 30 11:19:01 2021.
