 Gaussian 09, Revision A.02,

 -----------------------------------
 #p opt b3lyp/6-31G* scf=(xqc,tight)
 -----------------------------------

 -----------------------------------------
 O=C(c1ccccc1)Oc1c2ccccc2cc2c1cccc2_conf_0
 -----------------------------------------
 Symbolic Z-matrix:
 Charge =  0 Multiplicity = 1

 SCF Done:  E(RB3LYP) =  -959.131699741     A.U. after   16 cycles
 SCF Done:  E(RB3LYP) =  -959.142361649     A.U. after   14 cycles
 SCF Done:  E(RB3LYP) =  -959.143847243     A.U. after   12 cycles
 SCF Done:  E(RB3LYP) =  -959.142842650     A.U. after   17 cycles
 SCF Done:  E(RB3LYP) =  -959.144378453     A.U. after   17 cycles
 SCF Done:  E(RB3LYP) =  -959.144758658     A.U. after   12 cycles
 SCF Done:  E(RB3LYP) =  -959.144890803     A.U. after   12 cycles
 SCF Done:  E(RB3LYP) =  -959.144907002     A.U. after   11 cycles
 SCF Done:  E(RB3LYP) =  -959.144912438     A.U. after   10 cycles
 SCF Done:  E(RB3LYP) =  -959.144912867     A.U. after    9 cycles
 SCF Done:  E(RB3LYP) =  -959.144912896     A.U. after    7 cycles
 Optimization completed.
    -- Stationary point found.
 Normal termination of Gaussian 09 at Wed Sep 29 19:26:23 2021.

 ----------------------------------------------------------------------
 #p freq b3lyp/6-31G* volume NMR pop=NPA density=current Geom=AllCheck
 Guess=Read
 ----------------------------------------------------------------------

 O=C(c1ccccc1)Oc1c2ccccc2cc2c1cccc2_conf_0
 -----------------------------------------
 Redundant internal coordinates taken from checkpoint file:
 C21H14O2_57d8_conf_0.chk
 Charge =  0 Multiplicity = 1

 SCF Done:  E(RB3LYP) =  -959.144912895     A.U. after    1 cycles

  1  O    Isotropic =   -54.7850   Anisotropy =   557.3889

  2  C    Isotropic =    32.3366   Anisotropy =    65.2318

  3  C    Isotropic =    66.4201   Anisotropy =   149.4084

  4  C    Isotropic =    65.9175   Anisotropy =   173.2266

  5  C    Isotropic =    68.1190   Anisotropy =   166.1860

  6  C    Isotropic =    63.3854   Anisotropy =   174.8769

  7  C    Isotropic =    67.8199   Anisotropy =   166.6775

  8  C    Isotropic =    63.3977   Anisotropy =   178.9650

  9  O    Isotropic =   121.1131   Anisotropy =   170.9607

 10  C    Isotropic =    50.2242   Anisotropy =    85.5203

 11  C    Isotropic =    70.8705   Anisotropy =   180.5105

 12  C    Isotropic =    72.0757   Anisotropy =   157.9635

 13  C    Isotropic =    70.1811   Anisotropy =   160.8124

 14  C    Isotropic =    70.4532   Anisotropy =   160.2532

 15  C    Isotropic =    67.0889   Anisotropy =   143.2316

 16  C    Isotropic =    64.6475   Anisotropy =   192.6814

 17  C    Isotropic =    69.9683   Anisotropy =   124.8853

 18  C    Isotropic =    64.6476   Anisotropy =   192.6817

 19  C    Isotropic =    70.8713   Anisotropy =   180.5070

 20  C    Isotropic =    72.0771   Anisotropy =   157.9641

 21  C    Isotropic =    70.1809   Anisotropy =   160.8130

 22  C    Isotropic =    70.4532   Anisotropy =   160.2536

 23  C    Isotropic =    67.0886   Anisotropy =   143.2324

 24  H    Isotropic =    23.6779   Anisotropy =     9.6253

 25  H    Isotropic =    24.7205   Anisotropy =     5.2747

 26  H    Isotropic =    24.6355   Anisotropy =     4.1556

 27  H    Isotropic =    24.7486   Anisotropy =     4.5431

 28  H    Isotropic =    23.9199   Anisotropy =     8.5439

 29  H    Isotropic =    24.1656   Anisotropy =    11.1095

 30  H    Isotropic =    24.7677   Anisotropy =     6.6685

 31  H    Isotropic =    24.7614   Anisotropy =     4.9943

 32  H    Isotropic =    24.3082   Anisotropy =     7.2542

 33  H    Isotropic =    24.0662   Anisotropy =     8.5670

 34  H    Isotropic =    24.1653   Anisotropy =    11.1090

 35  H    Isotropic =    24.7677   Anisotropy =     6.6684

 36  H    Isotropic =    24.7614   Anisotropy =     4.9944

 37  H    Isotropic =    24.3081   Anisotropy =     7.2544

  Exact polarizability: 293.158  -0.006 288.303  13.841  -0.003 124.879
 Approx polarizability: 453.378  -0.013 496.595  33.482  -0.013 227.954

                     1                      2                      3
                     A                      A                      A
 Frequencies --    21.7877                24.8008                54.3713
 Red. masses --     5.1446                 5.8603                 4.9389
 Frc consts  --     0.0014                 0.0021                 0.0086
 IR Inten    --     0.3300                 0.3945                 0.8178

                     4                      5                      6
                     A                      A                      A
 Frequencies --    58.8707                84.6302               125.7436
 Red. masses --     6.1640                 4.8835                 3.6989
 Frc consts  --     0.0126                 0.0206                 0.0345
 IR Inten    --     0.5800                 0.9833                 0.0025

                     7                      8                      9
                     A                      A                      A
 Frequencies --   136.4096               163.2393               177.7083
 Red. masses --     5.8462                 5.1726                 5.3494
 Frc consts  --     0.0641                 0.0812                 0.0995
 IR Inten    --     0.5831                 0.0568                 0.8657

                    10                     11                     12
                     A                      A                      A
 Frequencies --   238.7210               249.5200               307.4270
 Red. masses --     4.8393                 5.0983                 5.1984
 Frc consts  --     0.1625                 0.1870                 0.2895
 IR Inten    --     0.0001                 0.2804                 5.0958

                    13                     14                     15
                     A                      A                      A
 Frequencies --   313.0469               329.0533               400.2459
 Red. masses --     7.9912                 4.8362                 6.7861
 Frc consts  --     0.4614                 0.3085                 0.6405
 IR Inten    --     0.9933                 3.9143                 0.3811

                    16                     17                     18
                     A                      A                      A
 Frequencies --   417.3979               417.7754               427.4626
 Red. masses --     2.9831                 3.7478                 5.6519
 Frc consts  --     0.3062                 0.3854                 0.6085
 IR Inten    --     0.0000                 2.8137                 0.0064

                    19                     20                     21
                     A                      A                      A
 Frequencies --   451.5948               453.9569               486.0868
 Red. masses --     7.3869                 4.1460                 2.9196
 Frc consts  --     0.8876                 0.5034                 0.4064
 IR Inten    --     0.1293                 0.0003                 0.0074

                    22                     23                     24
                     A                      A                      A
 Frequencies --   506.8196               563.0182               581.8007
 Red. masses --     3.6511                 3.2490                 5.9929
 Frc consts  --     0.5526                 0.6068                 1.1952
 IR Inten    --     0.0107                 5.7971                 0.4589

                    25                     26                     27
                     A                      A                      A
 Frequencies --   591.6022               613.3556               626.2396
 Red. masses --     8.3134                 4.8623                 6.9019
 Frc consts  --     1.7143                 1.0778                 1.5948
 IR Inten    --     6.7641                 8.8983                 5.8445

                    28                     29                     30
                     A                      A                      A
 Frequencies --   632.3274               655.1130               694.9533
 Red. masses --     6.4065                 6.2017                 6.0828
 Frc consts  --     1.5092                 1.5682                 1.7309
 IR Inten    --     1.6520                 1.0540                 5.8274

                    31                     32                     33
                     A                      A                      A
 Frequencies --   696.4616               717.7827               729.4199
 Red. masses --     4.1838                 1.6384                 5.5805
 Frc consts  --     1.1957                 0.4973                 1.7494
 IR Inten    --     0.0443                63.6776                 8.9180

                    34                     35                     36
                     A                      A                      A
 Frequencies --   753.1093               755.5850               775.3024
 Red. masses --     1.3267                 4.0191                 1.3373
 Frc consts  --     0.4433                 1.3519                 0.4736
 IR Inten    --    49.2359                 0.0262                 0.0765

                    37                     38                     39
                     A                      A                      A
 Frequencies --   789.4129               809.5033               853.2241
 Red. masses --     3.3915                 2.5234                 1.6968
 Frc consts  --     1.2452                 0.9743                 0.7278
 IR Inten    --    15.3009                 4.2934                11.4871

                    40                     41                     42
                     A                      A                      A
 Frequencies --   869.1278               872.0651               875.4259
 Red. masses --     1.2607                 1.5293                 4.5397
 Frc consts  --     0.5611                 0.6852                 2.0498
 IR Inten    --     0.0542                 0.0037                 0.3324

                    43                     44                     45
                     A                      A                      A
 Frequencies --   877.9253               881.3798               898.6952
 Red. masses --     3.8095                 5.7613                 1.6950
 Frc consts  --     1.7299                 2.6369                 0.8066
 IR Inten    --     2.3403                 4.5822                21.5972

                    46                     47                     48
                     A                      A                      A
 Frequencies --   944.6046               957.1373               961.0848
 Red. masses --     6.7160                 1.3896                 1.3163
 Frc consts  --     3.5307                 0.7500                 0.7164
 IR Inten    --     0.6337                 0.8363                 0.0027

                    49                     50                     51
                     A                      A                      A
 Frequencies --   963.8978               986.4991               991.5265
 Red. masses --     1.3390                 1.3507                 1.2705
 Frc consts  --     0.7330                 0.7744                 0.7359
 IR Inten    --     1.4810                 0.0967                 0.0174

                    52                     53                     54
                     A                      A                      A
 Frequencies --   992.6595              1010.7513              1019.3060
 Red. masses --     1.2819                 1.2723                 6.3272
 Frc consts  --     0.7442                 0.7658                 3.8732
 IR Inten    --     0.2239                 0.0411                12.7352

                    55                     56                     57
                     A                      A                      A
 Frequencies --  1037.6551              1044.6118              1044.7967
 Red. masses --     4.5085                 2.8029                 2.1487
 Frc consts  --     2.8602                 1.8021                 1.3819
 IR Inten    --    43.4947                 1.5568                 4.4764

                    58                     59                     60
                     A                      A                      A
 Frequencies --  1061.2296              1106.7667              1124.2229
 Red. masses --     2.2765                 2.1620                 2.8083
 Frc consts  --     1.5106                 1.5603                 2.0912
 IR Inten    --     6.6806               207.4860               259.3377

                    61                     62                     63
                     A                      A                      A
 Frequencies --  1137.3364              1181.7672              1192.3975
 Red. masses --     2.2115                 1.2338                 1.3511
 Frc consts  --     1.6855                 1.0152                 1.1318
 IR Inten    --     0.3838                 0.6730                41.6547

                    64                     65                     66
                     A                      A                      A
 Frequencies --  1195.0230              1201.9383              1209.0236
 Red. masses --     1.1082                 1.1108                 1.1423
 Frc consts  --     0.9324                 0.9455                 0.9838
 IR Inten    --     0.3344                54.4273                32.4407

                    67                     68                     69
                     A                      A                      A
 Frequencies --  1214.9670              1260.4574              1273.9209
 Red. masses --     1.3113                 1.6874                 4.7304
 Frc consts  --     1.1405                 1.5795                 4.5231
 IR Inten    --     0.6639                 1.0708               678.3787

                    70                     71                     72
                     A                      A                      A
 Frequencies --  1300.0520              1317.0307              1351.6588
 Red. masses --     2.1012                 2.4372                 1.6420
 Frc consts  --     2.0923                 2.4908                 1.7675
 IR Inten    --     1.3740                 1.8226                 9.2300

                    73                     74                     75
                     A                      A                      A
 Frequencies --  1367.8798              1376.8063              1381.8524
 Red. masses --     3.7269                 2.8951                 4.8318
 Frc consts  --     4.1086                 3.2334                 5.4360
 IR Inten    --     5.5378                 1.1427                55.3917

                    76                     77                     78
                     A                      A                      A
 Frequencies --  1422.9967              1427.5692              1450.0457
 Red. masses --     4.8679                 1.6199                 8.9041
 Frc consts  --     5.8076                 1.9450                11.0307
 IR Inten    --     2.8074                 0.5237                20.2959

                    79                     80                     81
                     A                      A                      A
 Frequencies --  1495.4024              1497.6785              1501.2444
 Red. masses --     2.0426                 2.2471                 2.7694
 Frc consts  --     2.6912                 2.9697                 3.6774
 IR Inten    --     6.3289                13.3959                 0.0809

                    82                     83                     84
                     A                      A                      A
 Frequencies --  1534.8738              1541.3944              1590.2905
 Red. masses --     2.6025                 2.2312                 5.9724
 Frc consts  --     3.6123                 3.1232                 8.8992
 IR Inten    --     1.8993                 0.8107                 1.3420

                    85                     86                     87
                     A                      A                      A
 Frequencies --  1608.9865              1636.3705              1641.7630
 Red. masses --     7.2957                 5.5424                 5.6604
 Frc consts  --    11.1281                 8.7440                 8.9891
 IR Inten    --     5.0637                 2.2497                 4.1810

                    88                     89                     90
                     A                      A                      A
 Frequencies --  1661.4818              1683.2016              1687.7074
 Red. masses --     5.5289                 6.1351                 5.6126
 Frc consts  --     8.9925                10.2410                 9.4191
 IR Inten    --    16.8955                 0.3295                 8.2938

                    91                     92                     93
                     A                      A                      A
 Frequencies --  1824.5354              3179.4265              3182.0265
 Red. masses --    13.0131                 1.0885                 1.0860
 Frc consts  --    25.5232                 6.4830                 6.4785
 IR Inten    --   199.7644                 1.6303                 0.0020

                    94                     95                     96
                     A                      A                      A
 Frequencies --  3183.8725              3187.6162              3193.2594
 Red. masses --     1.0874                 1.0859                 1.0894
 Frc consts  --     6.4947                 6.5008                 6.5451
 IR Inten    --     6.6491                 0.2916                 1.4804

                    97                     98                     99
                     A                      A                      A
 Frequencies --  3193.5265              3199.9962              3207.2467
 Red. masses --     1.0895                 1.0900                 1.0947
 Frc consts  --     6.5465                 6.5763                 6.6348
 IR Inten    --    31.1515                15.2855                47.9432

                   100                    101                    102
                     A                      A                      A
 Frequencies --  3207.5497              3209.9243              3224.0731
 Red. masses --     1.0948                 1.0949                 1.0939
 Frc consts  --     6.6361                 6.6466                 6.6995
 IR Inten    --    26.1589                25.8381                23.4003

                   103                    104                    105
                     A                      A                      A
 Frequencies --  3224.7050              3227.6863              3235.3941
 Red. masses --     1.0941                 1.0934                 1.0928
 Frc consts  --     6.7033                 6.7111                 6.7399
 IR Inten    --    10.4618                 6.3926                 2.7564

 - Thermochemistry -
 -------------------
 Temperature   298.150 Kelvin.  Pressure   1.00000 Atm.
 Atom     1 has atomic number  8 and mass  15.99491

 Molecular mass:   298.09938 amu.
 Principal axes and moments of inertia in atomic units:
                           1         2         3
     Eigenvalues --  4550.647889818.95999**********
           X            1.00000  -0.00000   0.00276
           Y            0.00000   1.00000   0.00000
           Z           -0.00276  -0.00000   1.00000
 This molecule is an asymmetric top.
 Rotational symmetry number  1.
 Warning -- assumption of classical behavior for rotation
           may cause significant error
 Rotational temperatures (Kelvin)      0.01903     0.00882     0.00652
 Rotational constants (GHZ):           0.39659     0.18380     0.13591
 Zero-point vibrational energy     761005.6 (Joules/Mol)
                                  181.88471 (Kcal/Mol)
 Warning -- explicit consideration of  26 degrees of freedom as
           vibrations may cause significant error
 Vibrational temperatures:     31.35    35.68    78.23    84.70   121.76
          (Kelvin)            180.92   196.26   234.86   255.68   343.47
                              359.00   442.32   450.40   473.43   575.86
                              600.54   601.08   615.02   649.74   653.14
                              699.37   729.20   810.06   837.08   851.18
                              882.48   901.02   909.78   942.56   999.88
                             1002.05  1032.73  1049.47  1083.55  1087.12
                             1115.49  1135.79  1164.69  1227.60  1250.48
                             1254.71  1259.54  1263.14  1268.11  1293.02
                             1359.07  1377.11  1382.78  1386.83  1419.35
                             1426.58  1428.21  1454.24  1466.55  1492.95
                             1502.96  1503.23  1526.87  1592.39  1617.50
                             1636.37  1700.30  1715.59  1719.37  1729.32
                             1739.51  1748.06  1813.51  1832.89  1870.48
                             1894.91  1944.73  1968.07  1980.91  1988.17
                             2047.37  2053.95  2086.29  2151.55  2154.82
                             2159.95  2208.34  2217.72  2288.07  2314.97
                             2354.37  2362.13  2390.50  2421.75  2428.23
                             2625.10  4574.48  4578.22  4580.88  4586.26
                             4594.38  4594.77  4604.08  4614.51  4614.94
                             4618.36  4638.72  4639.63  4643.91  4655.00

 Zero-point correction=                           0.289852 (Hartree/Particle)
 Thermal correction to Energy=                    0.306955
 Thermal correction to Enthalpy=                  0.307899
 Thermal correction to Gibbs Free Energy=         0.243014
 Sum of electronic and zero-point Energies=           -958.855061
 Sum of electronic and thermal Energies=              -958.837958
 Sum of electronic and thermal Enthalpies=            -958.837014
 Sum of electronic and thermal Free Energies=         -958.901899

                     E (Thermal)             CV                S
                      KCal/Mol        Cal/Mol-Kelvin    Cal/Mol-Kelvin
 Total                  192.617             69.412            136.561
 Electronic               0.000              0.000              0.000
 Translational            0.889              2.981             42.974
 Rotational               0.889              2.981             34.738
 Vibrational            190.840             63.451             58.849
 Vibration     1          0.593              1.985              6.464
 Vibration     2          0.593              1.985              6.207
 Vibration     3          0.596              1.976              4.652
 Vibration     4          0.596              1.974              4.495
 Vibration     5          0.601              1.960              3.781
 Vibration     6          0.611              1.927              3.010
 Vibration     7          0.614              1.917              2.854
 Vibration     8          0.623              1.888              2.512
 Vibration     9          0.628              1.870              2.352
 Vibration    10          0.657              1.781              1.812
 Vibration    11          0.662              1.764              1.734
 Vibration    12          0.697              1.660              1.376
 Vibration    13          0.701              1.649              1.346
 Vibration    14          0.712              1.617              1.265
 Vibration    15          0.766              1.470              0.962
 Vibration    16          0.780              1.432              0.901
 Vibration    17          0.781              1.432              0.900
 Vibration    18          0.789              1.410              0.867
 Vibration    19          0.810              1.357              0.791
 Vibration    20          0.812              1.352              0.784
 Vibration    21          0.842              1.281              0.694
 Vibration    22          0.862              1.235              0.641
 Vibration    23          0.919              1.111              0.518
 Vibration    24          0.939              1.071              0.482
 Vibration    25          0.949              1.050              0.464
 Vibration    26          0.973              1.004              0.427

 Optimization completed.
    -- Stationary point found.
 Normal termination of Gaussian 09 at Wed Sep 29 22:47:48 2021.
 Gaussian 09:  AM64L-G09RevA.02 11-Jun-2009

 ----------------------------------------------------------------------
 #p TD(NStates=10, Root=1) b3lyp/6-31G* volume pop=NPA density=current
 Geom=AllCheck Guess=Read
 ----------------------------------------------------------------------

 O=C(c1ccccc1)Oc1c2ccccc2cc2c1cccc2_conf_0
 -----------------------------------------
 Redundant internal coordinates taken from checkpoint file:
 C21H14O2_57d8_conf_0.chk
 Charge =  0 Multiplicity = 1

                         Standard orientation:
 ---------------------------------------------------------------------
 Center     Atomic      Atomic             Coordinates (Angstroms)
 Number     Number       Type             X           Y           Z
 ---------------------------------------------------------------------
      1          8           0       -1.081155   -0.000775    1.761078
      2          6           0       -1.479902   -0.000316    0.620615
      3          6           0       -2.911008   -0.000110    0.211032
      4          6           0       -3.312199    0.000191   -1.132739
      5          6           0       -4.669262    0.000363   -1.451147
      6          6           0       -5.628178    0.000233   -0.435410
      7          6           0       -5.230516   -0.000082    0.904489
      8          6           0       -3.876489   -0.000264    1.227942
      9          8           0       -0.642940    0.000061   -0.472745
     10          6           0        0.737752    0.000042   -0.245883
     11          6           0        1.403026   -1.231724   -0.177153
     12          6           0        0.727363   -2.486937   -0.276012
     13          6           0        1.425494   -3.663137   -0.198308
     14          6           0        2.839298   -3.659267   -0.017770
     15          6           0        3.520903   -2.475214    0.074386
     16          6           0        2.837013   -1.222031   -0.003814
     17          6           0        3.513259    0.000060    0.082353
     18          6           0        2.836982    1.222149   -0.003720
     19          6           0        1.403002    1.231829   -0.177057
     20          6           0        0.727311    2.487032   -0.275824
     21          6           0        1.425422    3.663241   -0.198018
     22          6           0        2.839221    3.659383   -0.017476
     23          6           0        3.520851    2.475333    0.074579
     24          1           0       -2.563130    0.000305   -1.916427
     25          1           0       -4.978953    0.000589   -2.492526
     26          1           0       -6.685296    0.000366   -0.687762
     27          1           0       -5.976114   -0.000168    1.694623
     28          1           0       -3.543901   -0.000529    2.260764
     29          1           0       -0.347144   -2.493478   -0.423223
     30          1           0        0.899871   -4.610945   -0.275600
     31          1           0        3.373204   -4.603579    0.043791
     32          1           0        4.599864   -2.465830    0.208621
     33          1           0        4.592785    0.000067    0.216019
     34          1           0       -0.347194    2.493560   -0.423060
     35          1           0        0.899785    4.611049   -0.275228
     36          1           0        3.373113    4.603700    0.044153
     37          1           0        4.599813    2.465962    0.208798
 ---------------------------------------------------------------------

 SCF Done:  E(RB3LYP) =  -959.144912896     A.U. after    2 cycles

 Excitation energies and oscillator strengths:

 Excited State   1:      Singlet-A      3.2085 eV  386.42 nm  f=0.1000  <S**2>=0.000
      78 -> 79         0.70058
 This state for optimization and/or second-order correction.
 Total Energy, E(TD-HF/TD-KS) =  -959.027001325
 Copying the excited state density for this state as the 1-particle RhoCI density.

 Excited State   2:      Singlet-A      3.3036 eV  375.31 nm  f=0.0000  <S**2>=0.000
      78 -> 80         0.70517

 Excited State   3:      Singlet-A      3.8851 eV  319.13 nm  f=0.0002  <S**2>=0.000
      77 -> 79         0.50312
      78 -> 81         0.49430

 Excited State   4:      Singlet-A      4.5056 eV  275.18 nm  f=0.0000  <S**2>=0.000
      78 -> 82         0.70588

 Excited State   5:      Singlet-A      4.5537 eV  272.27 nm  f=0.0000  <S**2>=0.000
      76 -> 79         0.58598
      78 -> 83         0.38913

 Excited State   6:      Singlet-A      4.6507 eV  266.59 nm  f=0.0000  <S**2>=0.000
      77 -> 80         0.70577

 Excited State   7:      Singlet-A      4.8329 eV  256.54 nm  f=0.0009  <S**2>=0.000
      72 -> 80        -0.13412
      73 -> 80         0.68003
      73 -> 85         0.12272

 Excited State   8:      Singlet-A      4.9380 eV  251.08 nm  f=0.0004  <S**2>=0.000
      74 -> 79         0.18429
      75 -> 79        -0.24951
      76 -> 79        -0.35589
      78 -> 83         0.51278

 Excited State   9:      Singlet-A      4.9687 eV  249.53 nm  f=0.0027  <S**2>=0.000
      74 -> 79        -0.19514
      75 -> 79         0.60813
      76 -> 79        -0.13658
      78 -> 83         0.25951

 Excited State  10:      Singlet-A      4.9837 eV  248.78 nm  f=0.0156  <S**2>=0.000
      74 -> 80         0.21469
      74 -> 82        -0.28994
      75 -> 80         0.59394
      75 -> 82         0.10587

 The electronic state is 1-A.
 Alpha  occ. eigenvalues --  -19.19990 -19.13943 -10.32186 -10.24999 -10.21041
 Alpha  occ. eigenvalues --  -10.20594 -10.20458 -10.20224 -10.20188 -10.20169
 Alpha  occ. eigenvalues --  -10.20169 -10.20125 -10.20119 -10.20117 -10.19231
 Alpha  occ. eigenvalues --  -10.19231 -10.19197 -10.19197 -10.19152 -10.19152
 Alpha  occ. eigenvalues --  -10.19118 -10.19097 -10.19097  -1.10743  -1.02339
 Alpha  occ. eigenvalues --   -0.88046  -0.86631  -0.84922  -0.80197  -0.78817
 Alpha  occ. eigenvalues --   -0.76611  -0.75628  -0.75214  -0.73972  -0.70880
 Alpha  occ. eigenvalues --   -0.66490  -0.64114  -0.62080  -0.61934  -0.60343
 Alpha  occ. eigenvalues --   -0.59140  -0.56430  -0.54178  -0.53336  -0.53061
 Alpha  occ. eigenvalues --   -0.49856  -0.48784  -0.47194  -0.47176  -0.46174
 Alpha  occ. eigenvalues --   -0.45848  -0.45553  -0.44517  -0.43862  -0.43215
 Alpha  occ. eigenvalues --   -0.43020  -0.41731  -0.41098  -0.40981  -0.39590
 Alpha  occ. eigenvalues --   -0.38525  -0.37827  -0.37035  -0.36604  -0.36011
 Alpha  occ. eigenvalues --   -0.35318  -0.34832  -0.34235  -0.33309  -0.31003
 Alpha  occ. eigenvalues --   -0.30152  -0.29206  -0.27783  -0.26374  -0.26168
 Alpha  occ. eigenvalues --   -0.25527  -0.24027  -0.19275
 Alpha virt. eigenvalues --   -0.06286  -0.05022  -0.01344  -0.01072   0.00679
 Alpha virt. eigenvalues --    0.04652   0.05475   0.06523   0.08736   0.09876
 Alpha virt. eigenvalues --    0.10449   0.11767   0.13281   0.13876   0.14757

 Mulliken atomic charges:
              1
     1  O   -0.455751
     2  C    0.585786
     3  C    0.040660
     4  C   -0.159593
     5  C   -0.136126
     6  C   -0.115843
     7  C   -0.138628
     8  C   -0.150227
     9  O   -0.561115
    10  C    0.159912
    11  C    0.150374
    12  C   -0.191917
    13  C   -0.137141
    14  C   -0.131698
    15  C   -0.200312
    16  C    0.141568
    17  C   -0.282251
    18  C    0.141566
    19  C    0.150346
    20  C   -0.191935
    21  C   -0.137143
    22  C   -0.131696
    23  C   -0.200322
    24  H    0.162538
    25  H    0.139785
    26  H    0.139909
    27  H    0.141113
    28  H    0.167378
    29  H    0.138275
    30  H    0.131974
    31  H    0.131756
    32  H    0.131842
    33  H    0.133081
    34  H    0.138277
    35  H    0.131969
    36  H    0.131753
    37  H    0.131837
 Sum of Mulliken atomic charges =  -0.00000

 Dipole moment (field-independent basis, Debye):
    X=             -1.2161    Y=              0.0001    Z=             -1.5854  Tot=              1.9981
 Quadrupole moment (field-independent basis, Debye-Ang):
   XX=           -102.6666   YY=           -120.2897   ZZ=           -134.6660
   XY=             -0.0023   XZ=              3.0685   YZ=              0.0015

 Summary of Natural Population Analysis:

                                       Natural Population
                Natural  -----------------------------------------------
    Atom  No    Charge         Core      Valence    Rydberg      Total
 -----------------------------------------------------------------------
      O    1   -0.56702      1.99978     6.54777    0.01947     8.56702
      C    2    0.81249      1.99929     3.14438    0.04384     5.18751
      C    3   -0.17420      1.99889     4.15994    0.01537     6.17420
      C    4   -0.19390      1.99906     4.18174    0.01309     6.19390
      C    5   -0.23674      1.99910     4.22375    0.01389     6.23674
      C    6   -0.20927      1.99910     4.19673    0.01344     6.20927
      C    7   -0.23632      1.99910     4.22353    0.01369     6.23632
      C    8   -0.18140      1.99906     4.16866    0.01367     6.18140
      O    9   -0.54975      1.99971     6.53950    0.01054     8.54975
      C   10    0.35457      1.99861     3.62296    0.02387     5.64543
      C   11   -0.07951      1.99894     4.06581    0.01476     6.07951
      C   12   -0.21098      1.99906     4.19680    0.01512     6.21098
      C   13   -0.22694      1.99910     4.21296    0.01488     6.22694
      C   14   -0.22827      1.99910     4.21445    0.01472     6.22827
      C   15   -0.21037      1.99906     4.19675    0.01456     6.21037
      C   16   -0.05096      1.99903     4.03699    0.01494     6.05096
      C   17   -0.17258      1.99901     4.15996    0.01362     6.17258
      C   18   -0.05096      1.99903     4.03698    0.01494     6.05096
      C   19   -0.07951      1.99894     4.06581    0.01476     6.07951
      C   20   -0.21101      1.99906     4.19683    0.01512     6.21101
      C   21   -0.22695      1.99910     4.21297    0.01488     6.22695
      C   22   -0.22827      1.99910     4.21445    0.01472     6.22827
      C   23   -0.21039      1.99906     4.19677    0.01456     6.21039
      H   24    0.25563      0.00000     0.74327    0.00110     0.74437
      H   25    0.24163      0.00000     0.75756    0.00082     0.75837
      H   26    0.24025      0.00000     0.75894    0.00082     0.75975
      H   27    0.24230      0.00000     0.75689    0.00081     0.75770
      H   28    0.25944      0.00000     0.73907    0.00149     0.74056
      H   29    0.24035      0.00000     0.75836    0.00129     0.75965
      H   30    0.23709      0.00000     0.76210    0.00080     0.76291
      H   31    0.23703      0.00000     0.76215    0.00081     0.76297
      H   32    0.23340      0.00000     0.76550    0.00110     0.76660
      H   33    0.23322      0.00000     0.76545    0.00133     0.76678
      H   34    0.24036      0.00000     0.75835    0.00129     0.75964
      H   35    0.23709      0.00000     0.76210    0.00080     0.76291
      H   36    0.23703      0.00000     0.76215    0.00081     0.76297
      H   37    0.23340      0.00000     0.76551    0.00110     0.76660
 =======================================================================
   * Total *   -0.00000     45.97928   109.63389    0.38683   156.00000

 Normal termination of Gaussian 09 at Thu Sep 30 08:26:59 2021.
