 Gaussian 09, Revision A.02,

 -----------------------------------
 #p opt b3lyp/6-31G* scf=(xqc,tight)
 -----------------------------------

 ------------------------------------------
 O=C(Oc1c2ccccc2cc2c1cccc2)Cc1ccccc1_conf_0
 ------------------------------------------
 Symbolic Z-matrix:
 Charge =  0 Multiplicity = 1

 SCF Done:  E(RB3LYP) =  -998.441753932     A.U. after   16 cycles
 SCF Done:  E(RB3LYP) =  -998.451538172     A.U. after   13 cycles
 SCF Done:  E(RB3LYP) =  -998.452434310     A.U. after   12 cycles
 SCF Done:  E(RB3LYP) =  -998.451325311     A.U. after   13 cycles
 SCF Done:  E(RB3LYP) =  -998.452670140     A.U. after   13 cycles
 SCF Done:  E(RB3LYP) =  -998.452946935     A.U. after   12 cycles
 SCF Done:  E(RB3LYP) =  -998.453285065     A.U. after   15 cycles
 SCF Done:  E(RB3LYP) =  -998.453378259     A.U. after   12 cycles
 SCF Done:  E(RB3LYP) =  -998.453426700     A.U. after   12 cycles
 SCF Done:  E(RB3LYP) =  -998.453443954     A.U. after   12 cycles
 SCF Done:  E(RB3LYP) =  -998.453457329     A.U. after   12 cycles
 SCF Done:  E(RB3LYP) =  -998.453460670     A.U. after   10 cycles
 SCF Done:  E(RB3LYP) =  -998.453460901     A.U. after    9 cycles
 SCF Done:  E(RB3LYP) =  -998.453461132     A.U. after    9 cycles
 SCF Done:  E(RB3LYP) =  -998.453461175     A.U. after    8 cycles
 SCF Done:  E(RB3LYP) =  -998.453461164     A.U. after    8 cycles
 SCF Done:  E(RB3LYP) =  -998.453461177     A.U. after    7 cycles
 Optimization completed.
    -- Stationary point found.
 Normal termination of Gaussian 09 at Wed Sep 29 21:33:25 2021.

 ----------------------------------------------------------------------
 #p freq b3lyp/6-31G* volume NMR pop=NPA density=current Geom=AllCheck
 Guess=Read
 ----------------------------------------------------------------------

 O=C(Oc1c2ccccc2cc2c1cccc2)Cc1ccccc1_conf_0
 ------------------------------------------
 Redundant internal coordinates taken from checkpoint file:
 C22H16O2_befa_conf_0.chk
 Charge =  0 Multiplicity = 1

 SCF Done:  E(RB3LYP) =  -998.453461176     A.U. after    1 cycles

  1  O    Isotropic =   -75.1446   Anisotropy =   543.8812

  2  C    Isotropic =    27.1885   Anisotropy =    78.0925

  3  O    Isotropic =   106.8827   Anisotropy =   181.3462

  4  C    Isotropic =    50.5676   Anisotropy =    85.0724

  5  C    Isotropic =    71.2238   Anisotropy =   180.2939

  6  C    Isotropic =    72.3087   Anisotropy =   156.9687

  7  C    Isotropic =    70.2937   Anisotropy =   160.7109

  8  C    Isotropic =    70.6154   Anisotropy =   159.9998

  9  C    Isotropic =    67.0354   Anisotropy =   143.3347

 10  C    Isotropic =    64.9194   Anisotropy =   192.4825

 11  C    Isotropic =    69.9404   Anisotropy =   124.7319

 12  C    Isotropic =    64.8375   Anisotropy =   192.5370

 13  C    Isotropic =    71.1991   Anisotropy =   178.8711

 14  C    Isotropic =    72.3213   Anisotropy =   159.5826

 15  C    Isotropic =    70.3632   Anisotropy =   160.4948

 16  C    Isotropic =    70.5080   Anisotropy =   160.1553

 17  C    Isotropic =    67.4380   Anisotropy =   142.6288

 18  C    Isotropic =   147.0169   Anisotropy =    16.5461

 19  C    Isotropic =    61.2604   Anisotropy =   169.6097

 20  C    Isotropic =    66.4614   Anisotropy =   147.4063

 21  C    Isotropic =    67.6671   Anisotropy =   165.3136

 22  C    Isotropic =    69.1031   Anisotropy =   167.9947

 23  C    Isotropic =    67.5479   Anisotropy =   167.3573

 24  C    Isotropic =    67.8340   Anisotropy =   165.8731

 25  H    Isotropic =    24.1837   Anisotropy =    10.9580

 26  H    Isotropic =    24.7152   Anisotropy =     6.3542

 27  H    Isotropic =    24.7793   Anisotropy =     5.0158

 28  H    Isotropic =    24.3407   Anisotropy =     7.3225

 29  H    Isotropic =    24.1549   Anisotropy =     8.5811

 30  H    Isotropic =    24.9673   Anisotropy =     8.6177

 31  H    Isotropic =    25.1442   Anisotropy =     7.9013

 32  H    Isotropic =    24.8911   Anisotropy =     5.2231

 33  H    Isotropic =    24.4099   Anisotropy =     7.1432

 34  H    Isotropic =    28.3911   Anisotropy =     5.6334

 35  H    Isotropic =    28.5183   Anisotropy =     3.0928

 36  H    Isotropic =    24.8177   Anisotropy =     7.0219

 37  H    Isotropic =    24.8149   Anisotropy =     4.7094

 38  H    Isotropic =    24.8718   Anisotropy =     3.4149

 39  H    Isotropic =    24.8070   Anisotropy =     4.5687

 40  H    Isotropic =    24.4166   Anisotropy =     8.2845

  Exact polarizability: 303.541 -64.292 281.391  13.200  12.321 130.776
 Approx polarizability: 475.074-116.031 495.728  29.686  30.387 237.486

                     1                      2                      3
                     A                      A                      A
 Frequencies --    12.5982                19.7608                28.4778
 Red. masses --     4.8950                 5.9609                 3.9731
 Frc consts  --     0.0005                 0.0014                 0.0019
 IR Inten    --     0.0804                 0.3399                 0.0417

                     4                      5                      6
                     A                      A                      A
 Frequencies --    40.2549                70.1413                85.6083
 Red. masses --     7.8407                 4.6017                 5.6056
 Frc consts  --     0.0075                 0.0133                 0.0242
 IR Inten    --     0.2338                 0.4951                 1.6107

                     7                      8                      9
                     A                      A                      A
 Frequencies --   103.7827               124.1646               177.0171
 Red. masses --     6.3880                 3.6917                 5.0848
 Frc consts  --     0.0405                 0.0335                 0.0939
 IR Inten    --     2.3393                 0.0081                 1.8925

                    10                     11                     12
                     A                      A                      A
 Frequencies --   198.4897               237.2743               239.6843
 Red. masses --     5.7272                 4.8093                 4.6349
 Frc consts  --     0.1329                 0.1595                 0.1569
 IR Inten    --     0.5757                 0.0435                 0.4295

                    13                     14                     15
                     A                      A                      A
 Frequencies --   297.9636               322.0364               322.6984
 Red. masses --     5.3789                 4.2720                 6.6966
 Frc consts  --     0.2814                 0.2610                 0.4109
 IR Inten    --     0.0570                 0.3100                 1.7814

                    16                     17                     18
                     A                      A                      A
 Frequencies --   352.9338               401.4092               416.7749
 Red. masses --     2.5256                 6.2805                 3.3806
 Frc consts  --     0.1854                 0.5962                 0.3460
 IR Inten    --     1.8460                 0.4718                 1.5538

                    19                     20                     21
                     A                      A                      A
 Frequencies --   417.8234               430.1904               478.1953
 Red. masses --     3.1952                 6.3085                 3.3282
 Frc consts  --     0.3287                 0.6879                 0.4484
 IR Inten    --     0.8778                 0.0436                 0.1502

                    22                     23                     24
                     A                      A                      A
 Frequencies --   485.1321               506.2172               526.3943
 Red. masses --     2.9086                 3.6539                 5.7184
 Frc consts  --     0.4033                 0.5517                 0.9336
 IR Inten    --     0.0780                 0.0223                 5.3635

                    25                     26                     27
                     A                      A                      A
 Frequencies --   542.8458               560.3831               583.6935
 Red. masses --     4.5680                 3.2789                 5.9773
 Frc consts  --     0.7931                 0.6067                 1.1998
 IR Inten    --    19.0495                 7.8262                 0.2232

                    28                     29                     30
                     A                      A                      A
 Frequencies --   605.1728               627.2532               635.3836
 Red. masses --     4.6788                 6.8726                 6.2360
 Frc consts  --     1.0096                 1.5932                 1.4833
 IR Inten    --     7.0699                 9.1028                 0.3625

                    31                     32                     33
                     A                      A                      A
 Frequencies --   654.1239               677.8930               708.5538
 Red. masses --     6.1736                 5.4581                 3.5280
 Frc consts  --     1.5564                 1.4778                 1.0436
 IR Inten    --     0.6249                 7.9681                 7.2291

                    34                     35                     36
                     A                      A                      A
 Frequencies --   718.8432               744.8966               752.5244
 Red. masses --     3.2460                 1.7348                 1.4029
 Frc consts  --     0.9883                 0.5671                 0.4681
 IR Inten    --     8.2998                45.7407                51.1136

                    37                     38                     39
                     A                      A                      A
 Frequencies --   755.0773               774.8633               777.5495
 Red. masses --     3.7530                 1.3508                 3.1934
 Frc consts  --     1.2607                 0.4778                 1.1375
 IR Inten    --     2.3177                 0.7172                13.2509

                    40                     41                     42
                     A                      A                      A
 Frequencies --   807.6918               853.4765               859.1658
 Red. masses --     3.2380                 2.6895                 1.9852
 Frc consts  --     1.2446                 1.1543                 0.8634
 IR Inten    --     7.0185                 8.0904                16.4650

                    43                     44                     45
                     A                      A                      A
 Frequencies --   863.2437               871.8989               872.8370
 Red. masses --     1.2614                 1.7999                 2.7309
 Frc consts  --     0.5538                 0.8062                 1.2258
 IR Inten    --     0.2766                 1.7157                 1.3034

                    46                     47                     48
                     A                      A                      A
 Frequencies --   875.6277               898.8072               910.0464
 Red. masses --     4.7444                 1.6391                 3.3038
 Frc consts  --     2.1432                 0.7802                 1.6121
 IR Inten    --     0.5667                19.5264                13.5261

                    49                     50                     51
                     A                      A                      A
 Frequencies --   938.0213               944.7837               959.7541
 Red. masses --     1.7939                 6.5471                 1.3217
 Frc consts  --     0.9300                 3.4432                 0.7173
 IR Inten    --     1.9900                 1.2841                 0.3712

                    52                     53                     54
                     A                      A                      A
 Frequencies --   964.1567               969.7943               972.3652
 Red. masses --     1.3600                 2.1907                 1.3505
 Frc consts  --     0.7449                 1.2139                 0.7523
 IR Inten    --     0.8756                 4.3430                 0.2005

                    55                     56                     57
                     A                      A                      A
 Frequencies --   990.0637               993.4203               999.4220
 Red. masses --     1.2744                 1.2806                 1.2583
 Frc consts  --     0.7360                 0.7446                 0.7405
 IR Inten    --     0.0959                 0.2043                 0.0292

                    58                     59                     60
                     A                      A                      A
 Frequencies --  1018.5987              1043.4687              1045.1391
 Red. masses --     6.2219                 2.3540                 2.1723
 Frc consts  --     3.8035                 1.5101                 1.3981
 IR Inten    --     2.9406                 2.3908                 3.3813

                    61                     62                     63
                     A                      A                      A
 Frequencies --  1059.2228              1079.9523              1111.9778
 Red. masses --     2.2858                 5.2668                 1.7244
 Frc consts  --     1.5110                 3.6191                 1.2563
 IR Inten    --     6.3842                45.5745                58.2511

                    64                     65                     66
                     A                      A                      A
 Frequencies --  1137.4215              1143.0843              1181.7976
 Red. masses --     2.2064                 1.9119                 1.2322
 Frc consts  --     1.6818                 1.4719                 1.0139
 IR Inten    --     0.8243               383.1690                 0.6384

                    67                     68                     69
                     A                      A                      A
 Frequencies --  1192.1509              1193.5795              1203.0050
 Red. masses --     1.3268                 1.1062                 1.1080
 Frc consts  --     1.1110                 0.9285                 0.9448
 IR Inten    --     8.4805                 0.0840                 9.2744

                    70                     71                     72
                     A                      A                      A
 Frequencies --  1215.2633              1216.1469              1219.5251
 Red. masses --     1.3224                 1.2548                 2.2650
 Frc consts  --     1.1506                 1.0934                 1.9847
 IR Inten    --     1.5317                 1.4371                 1.3717

                    73                     74                     75
                     A                      A                      A
 Frequencies --  1260.5980              1265.6622              1300.3430
 Red. masses --     1.6897                 1.8670                 2.0902
 Frc consts  --     1.5820                 1.7621                 2.0823
 IR Inten    --     1.7464               337.6222                 4.3622

                    76                     77                     78
                     A                      A                      A
 Frequencies --  1316.4813              1328.1977              1363.3677
 Red. masses --     2.4116                 1.7188                 3.8162
 Frc consts  --     2.4626                 1.7865                 4.1793
 IR Inten    --     9.2221                33.3413                21.4150

                    79                     80                     81
                     A                      A                      A
 Frequencies --  1374.7104              1376.8640              1381.5891
 Red. masses --     1.6087                 2.9114                 2.8307
 Frc consts  --     1.7912                 3.2519                 3.1835
 IR Inten    --    63.3201                 2.1390                13.5781

                    82                     83                     84
                     A                      A                      A
 Frequencies --  1423.2679              1427.3027              1449.4942
 Red. masses --     4.9091                 1.6157                 8.9747
 Frc consts  --     5.8590                 1.9393                11.1097
 IR Inten    --     2.3293                 0.4349                15.5626

                    85                     86                     87
                     A                      A                      A
 Frequencies --  1495.2976              1500.0572              1501.0796
 Red. masses --     2.0383                 1.5041                 2.7436
 Frc consts  --     2.6852                 1.9941                 3.6423
 IR Inten    --     5.6451                 7.4856                 0.1319

                    88                     89                     90
                     A                      A                      A
 Frequencies --  1505.8363              1535.0102              1545.8390
 Red. masses --     1.4388                 2.6166                 2.1706
 Frc consts  --     1.9223                 3.6326                 3.0560
 IR Inten    --     7.3449                 1.7604                11.8470

                    91                     92                     93
                     A                      A                      A
 Frequencies --  1590.4825              1608.8804              1636.3845
 Red. masses --     5.9778                 7.2962                 5.5487
 Frc consts  --     8.9094                11.1274                 8.7542
 IR Inten    --     1.1932                 4.4404                 2.1349

                    94                     95                     96
                     A                      A                      A
 Frequencies --  1644.8344              1663.0062              1682.7983
 Red. masses --     5.5073                 5.4890                 6.1315
 Frc consts  --     8.7788                 8.9440                10.2302
 IR Inten    --     1.3113                 4.7681                 0.4410

                    97                     98                     99
                     A                      A                      A
 Frequencies --  1687.3876              1847.0460              3080.3582
 Red. masses --     5.6079                12.1256                 1.0596
 Frc consts  --     9.4077                24.3730                 5.9237
 IR Inten    --     8.6271               173.4285                 8.5381

                   100                    101                    102
                     A                      A                      A
 Frequencies --  3135.3315              3179.3347              3180.5504
 Red. masses --     1.1053                 1.0884                 1.0854
 Frc consts  --     6.4016                 6.4820                 6.4692
 IR Inten    --     6.4146                 1.6775                 3.0163

                   103                    104                    105
                     A                      A                      A
 Frequencies --  3181.8172              3183.6636              3187.2963
 Red. masses --     1.0860                 1.0874                 1.0875
 Frc consts  --     6.4776                 6.4939                 6.5090
 IR Inten    --     0.0495                 6.0704                 1.1794

                   106                    107                    108
                     A                      A                      A
 Frequencies --  3192.8504              3193.8148              3195.9520
 Red. masses --     1.0894                 1.0898                 1.0910
 Frc consts  --     6.5432                 6.5495                 6.5659
 IR Inten    --    11.2615                23.6532                18.3754

                   109                    110                    111
                     A                      A                      A
 Frequencies --  3203.6932              3207.1124              3207.4327
 Red. masses --     1.0942                 1.0948                 1.0948
 Frc consts  --     6.6168                 6.6347                 6.6362
 IR Inten    --    26.6529                50.4324                19.2887

                   112                    113                    114
                     A                      A                      A
 Frequencies --  3211.9744              3223.7856              3226.8505
 Red. masses --     1.0980                 1.0938                 1.0938
 Frc consts  --     6.6739                 6.6978                 6.7104
 IR Inten    --    14.9914                19.4961                 7.6660

 - Thermochemistry -
 -------------------
 Temperature   298.150 Kelvin.  Pressure   1.00000 Atm.
 Atom     1 has atomic number  8 and mass  15.99491

 Molecular mass:   312.11503 amu.
 Principal axes and moments of inertia in atomic units:
                           1         2         3
     Eigenvalues --  4381.18008********************
           X            0.99999  -0.00453   0.00194
           Y            0.00452   0.99997   0.00639
           Z           -0.00197  -0.00638   0.99998
 This molecule is an asymmetric top.
 Rotational symmetry number  1.
 Warning -- assumption of classical behavior for rotation
           may cause significant error
 Rotational temperatures (Kelvin)      0.01977     0.00779     0.00600
 Rotational constants (GHZ):           0.41193     0.16225     0.12510
 Zero-point vibrational energy     835726.9 (Joules/Mol)
                                  199.74352 (Kcal/Mol)
 Warning -- explicit consideration of  28 degrees of freedom as
           vibrations may cause significant error
 Vibrational temperatures:     18.13    28.43    40.97    57.92   100.92
          (Kelvin)            123.17   149.32   178.64   254.69   285.58
                              341.38   344.85   428.70   463.34   464.29
                              507.79   577.54   599.65   601.15   618.95
                              688.02   698.00   728.33   757.36   781.03
                              806.27   839.80   870.71   902.48   914.17
                              941.14   975.34  1019.45  1034.25  1071.74
                             1082.71  1086.39  1114.85  1118.72  1162.09
                             1227.96  1236.15  1242.01  1254.47  1255.82
                             1259.83  1293.18  1309.35  1349.60  1359.33
                             1380.87  1387.20  1395.32  1399.01  1424.48
                             1429.31  1437.94  1465.53  1501.32  1503.72
                             1523.98  1553.81  1599.89  1636.49  1644.64
                             1700.34  1715.24  1717.29  1730.85  1748.49
                             1749.76  1754.62  1813.72  1821.00  1870.90
                             1894.12  1910.98  1961.58  1977.90  1981.00
                             1987.80  2047.76  2053.57  2085.50  2151.40
                             2158.25  2159.72  2166.56  2208.53  2224.11
                             2288.35  2314.82  2354.39  2366.55  2392.69
                             2421.17  2427.77  2657.48  4431.94  4511.04
                             4574.35  4576.10  4577.92  4580.58  4585.80
                             4593.79  4595.18  4598.26  4609.39  4614.31
                             4614.77  4621.31  4638.30  4642.71

 Zero-point correction=                           0.318312 (Hartree/Particle)
 Thermal correction to Energy=                    0.336807
 Thermal correction to Enthalpy=                  0.337751
 Thermal correction to Gibbs Free Energy=         0.268285
 Sum of electronic and zero-point Energies=           -998.135150
 Sum of electronic and thermal Energies=              -998.116654
 Sum of electronic and thermal Enthalpies=            -998.115710
 Sum of electronic and thermal Free Energies=         -998.185176

                     E (Thermal)             CV                S
                      KCal/Mol        Cal/Mol-Kelvin    Cal/Mol-Kelvin
 Total                  211.349             74.218            146.204
 Electronic               0.000              0.000              0.000
 Translational            0.889              2.981             43.111
 Rotational               0.889              2.981             34.907
 Vibrational            209.572             68.256             68.186
 Vibration     1          0.593              1.987              7.552
 Vibration     2          0.593              1.986              6.658
 Vibration     3          0.593              1.984              5.933
 Vibration     4          0.594              1.981              5.247
 Vibration     5          0.598              1.968              4.149
 Vibration     6          0.601              1.959              3.758
 Vibration     7          0.605              1.946              3.382
 Vibration     8          0.610              1.929              3.035
 Vibration     9          0.628              1.871              2.360
 Vibration    10          0.637              1.842              2.147
 Vibration    11          0.656              1.784              1.823
 Vibration    12          0.657              1.780              1.805
 Vibration    13          0.691              1.678              1.428
 Vibration    14          0.707              1.631              1.300
 Vibration    15          0.708              1.630              1.296
 Vibration    16          0.729              1.569              1.153
 Vibration    17          0.767              1.467              0.957
 Vibration    18          0.780              1.434              0.903
 Vibration    19          0.781              1.432              0.899
 Vibration    20          0.791              1.404              0.858
 Vibration    21          0.835              1.298              0.715
 Vibration    22          0.841              1.283              0.696
 Vibration    23          0.861              1.236              0.643
 Vibration    24          0.881              1.192              0.595
 Vibration    25          0.898              1.155              0.559
 Vibration    26          0.916              1.117              0.523
 Vibration    27          0.941              1.067              0.479
 Vibration    28          0.964              1.021              0.441

 Optimization completed.
    -- Stationary point found.
 Normal termination of Gaussian 09 at Thu Sep 30 01:21:40 2021.
 Gaussian 09:  AM64L-G09RevA.02 11-Jun-2009

 ----------------------------------------------------------------------
 #p TD(NStates=10, Root=1) b3lyp/6-31G* volume pop=NPA density=current
 Geom=AllCheck Guess=Read
 ----------------------------------------------------------------------

 O=C(Oc1c2ccccc2cc2c1cccc2)Cc1ccccc1_conf_0
 ------------------------------------------
 Redundant internal coordinates taken from checkpoint file:
 C22H16O2_befa_conf_0.chk
 Charge =  0 Multiplicity = 1

                         Standard orientation:
 ---------------------------------------------------------------------
 Center     Atomic      Atomic             Coordinates (Angstroms)
 Number     Number       Type             X           Y           Z
 ---------------------------------------------------------------------
      1          8           0       -0.482631   -1.197376    1.733944
      2          6           0       -0.786934   -1.417271    0.589201
      3          8           0       -0.081409   -0.963063   -0.497916
      4          6           0        1.048636   -0.166322   -0.266730
      5          6           0        2.301987   -0.791128   -0.211252
      6          6           0        2.474169   -2.204348   -0.334015
      7          6           0        3.722806   -2.764500   -0.270780
      8          6           0        4.876565   -1.949554   -0.081142
      9          6           0        4.750727   -0.591004    0.034780
     10          6           0        3.469185    0.040001   -0.028294
     11          6           0        3.317608    1.426510    0.082702
     12          6           0        2.060556    2.037186    0.009528
     13          6           0        0.882049    1.222484   -0.175580
     14          6           0       -0.393450    1.861226   -0.264632
     15          6           0       -0.498299    3.223591   -0.163761
     16          6           0        0.659789    4.031181    0.030471
     17          6           0        1.898832    3.453972    0.112264
     18          6           0       -2.015329   -2.186711    0.134439
     19          6           0       -3.220611   -1.265257    0.008231
     20          6           0       -3.831554   -1.052278   -1.232422
     21          6           0       -4.943269   -0.214133   -1.342238
     22          6           0       -5.452359    0.424859   -0.211392
     23          6           0       -4.842725    0.223805    1.029504
     24          6           0       -3.733931   -0.614553    1.139226
     25          1           0        1.599705   -2.827000   -0.488260
     26          1           0        3.839288   -3.840529   -0.366876
     27          1           0        5.857496   -2.414128   -0.031513
     28          1           0        5.627403    0.036434    0.176226
     29          1           0        4.200266    2.046188    0.224656
     30          1           0       -1.277784    1.253753   -0.422803
     31          1           0       -1.473846    3.696779   -0.233644
     32          1           0        0.552927    5.109557    0.110137
     33          1           0        2.786797    4.064852    0.255817
     34          1           0       -2.203336   -2.957798    0.888457
     35          1           0       -1.811503   -2.673503   -0.822747
     36          1           0       -3.437938   -1.547801   -2.116656
     37          1           0       -5.409340   -0.062092   -2.312175
     38          1           0       -6.318481    1.075758   -0.295295
     39          1           0       -5.231641    0.719953    1.914743
     40          1           0       -3.254377   -0.763446    2.103058
 ---------------------------------------------------------------------

 SCF Done:  E(RB3LYP) =  -998.453461177     A.U. after    1 cycles

 Excitation energies and oscillator strengths:

 Excited State   1:      Singlet-A      3.2087 eV  386.39 nm  f=0.0886  <S**2>=0.000
      82 -> 83         0.70070
 This state for optimization and/or second-order correction.
 Total Energy, E(TD-HF/TD-KS) =  -998.335541852
 Copying the excited state density for this state as the 1-particle RhoCI density.

 Excited State   2:      Singlet-A      3.8835 eV  319.26 nm  f=0.0002  <S**2>=0.000
      81 -> 83         0.50234
      82 -> 84         0.26947
      82 -> 85         0.41535

 Excited State   3:      Singlet-A      4.2746 eV  290.05 nm  f=0.0026  <S**2>=0.000
      82 -> 84         0.59823
      82 -> 85        -0.34251
      82 -> 88        -0.12006

 Excited State   4:      Singlet-A      4.5191 eV  274.35 nm  f=0.0024  <S**2>=0.000
      80 -> 83         0.69844

 Excited State   5:      Singlet-A      4.5504 eV  272.47 nm  f=0.0002  <S**2>=0.000
      78 -> 83         0.56092
      79 -> 83        -0.12615
      82 -> 86         0.15293
      82 -> 87        -0.36250

 Excited State   6:      Singlet-A      4.6543 eV  266.38 nm  f=0.0005  <S**2>=0.000
      78 -> 83        -0.13531
      82 -> 86         0.68472

 Excited State   7:      Singlet-A      4.7536 eV  260.82 nm  f=0.0006  <S**2>=0.000
      78 -> 83         0.13766
      79 -> 83         0.69155

 Excited State   8:      Singlet-A      4.9399 eV  250.98 nm  f=0.0006  <S**2>=0.000
      78 -> 83         0.35097
      82 -> 87         0.58793

 Excited State   9:      Singlet-A      5.0508 eV  245.47 nm  f=0.0139  <S**2>=0.000
      78 -> 83        -0.10496
      82 -> 85        -0.11985
      82 -> 88         0.67402

 Excited State  10:      Singlet-A      5.2177 eV  237.62 nm  f=0.0181  <S**2>=0.000
      77 -> 83         0.68956

 The electronic state is 1-A.
 Alpha  occ. eigenvalues --  -19.20170 -19.14283 -10.32373 -10.24980 -10.20890
 Alpha  occ. eigenvalues --  -10.20778 -10.20224 -10.20162 -10.20150 -10.20107
 Alpha  occ. eigenvalues --  -10.19484 -10.19425 -10.19378 -10.19312 -10.19293
 Alpha  occ. eigenvalues --  -10.19265 -10.19206 -10.19189 -10.19180 -10.19147
 Alpha  occ. eigenvalues --  -10.19136 -10.19118 -10.19077 -10.18938  -1.10889
 Alpha  occ. eigenvalues --   -1.02650  -0.88031  -0.86094  -0.84920  -0.80400
 Alpha  occ. eigenvalues --   -0.79457  -0.77738  -0.75207  -0.74745  -0.73974
 Alpha  occ. eigenvalues --   -0.72242  -0.69922  -0.65062  -0.62943  -0.62082
 Alpha  occ. eigenvalues --   -0.60956  -0.59181  -0.59052  -0.56276  -0.53535
 Alpha  occ. eigenvalues --   -0.53104  -0.51875  -0.49788  -0.49248  -0.47525
 Alpha  occ. eigenvalues --   -0.47308  -0.46699  -0.46161  -0.45554  -0.45280
 Alpha  occ. eigenvalues --   -0.43945  -0.43151  -0.42451  -0.42374  -0.41134
 Alpha  occ. eigenvalues --   -0.40903  -0.40307  -0.39527  -0.39299  -0.38431
 Alpha  occ. eigenvalues --   -0.37811  -0.36195  -0.36012  -0.34892  -0.34716
 Alpha  occ. eigenvalues --   -0.34510  -0.34119  -0.33247  -0.31130  -0.30150
 Alpha  occ. eigenvalues --   -0.29213  -0.27972  -0.25537  -0.25354  -0.24679
 Alpha  occ. eigenvalues --   -0.24034  -0.19286
 Alpha virt. eigenvalues --   -0.06300  -0.01527  -0.01303  -0.00563   0.00664
 Alpha virt. eigenvalues --    0.01519   0.04642   0.06519   0.09175   0.09587
 Alpha virt. eigenvalues --    0.10392   0.10977   0.12295   0.12487   0.13976

 Mulliken atomic charges:
              1
     1  O   -0.437326
     2  C    0.609523
     3  O   -0.533825
     4  C    0.156434
     5  C    0.146620
     6  C   -0.190775
     7  C   -0.137312
     8  C   -0.131763
     9  C   -0.201454
    10  C    0.142374
    11  C   -0.282947
    12  C    0.142641
    13  C    0.148808
    14  C   -0.195655
    15  C   -0.139429
    16  C   -0.131234
    17  C   -0.198937
    18  C   -0.424318
    19  C    0.145703
    20  C   -0.180930
    21  C   -0.128700
    22  C   -0.129097
    23  C   -0.129171
    24  C   -0.171843
    25  H    0.132051
    26  H    0.130593
    27  H    0.131339
    28  H    0.131147
    29  H    0.132921
    30  H    0.152070
    31  H    0.134340
    32  H    0.132043
    33  H    0.132627
    34  H    0.185168
    35  H    0.172059
    36  H    0.131175
    37  H    0.133465
    38  H    0.132364
    39  H    0.135527
    40  H    0.153726
 Sum of Mulliken atomic charges =  -0.00000

 Dipole moment (field-independent basis, Debye):
    X=             -0.7538    Y=              0.2465    Z=             -1.3784  Tot=              1.5903
 Quadrupole moment (field-independent basis, Debye-Ang):
   XX=           -118.1768   YY=           -122.6079   ZZ=           -141.8956
   XY=             -1.1133   XZ=              2.1145   YZ=              3.6087

 Summary of Natural Population Analysis:

                                       Natural Population
                Natural  -----------------------------------------------
    Atom  No    Charge         Core      Valence    Rydberg      Total
 -----------------------------------------------------------------------
      O    1   -0.56832      1.99977     6.54814    0.02041     8.56832
      C    2    0.83402      1.99940     3.11992    0.04666     5.16598
      O    3   -0.54754      1.99971     6.53651    0.01132     8.54754
      C    4    0.35121      1.99860     3.62645    0.02374     5.64879
      C    5   -0.07888      1.99894     4.06515    0.01479     6.07888
      C    6   -0.21467      1.99906     4.20049    0.01512     6.21467
      C    7   -0.22827      1.99910     4.21428    0.01489     6.22827
      C    8   -0.22799      1.99910     4.21416    0.01473     6.22799
      C    9   -0.21335      1.99906     4.19970    0.01460     6.21335
      C   10   -0.04979      1.99903     4.03581    0.01495     6.04979
      C   11   -0.17329      1.99901     4.16066    0.01363     6.17329
      C   12   -0.05232      1.99903     4.03836    0.01494     6.05232
      C   13   -0.08129      1.99894     4.06761    0.01474     6.08129
      C   14   -0.20547      1.99906     4.19122    0.01519     6.20547
      C   15   -0.22512      1.99911     4.21114    0.01487     6.22512
      C   16   -0.22859      1.99910     4.21480    0.01469     6.22859
      C   17   -0.20622      1.99906     4.19266    0.01451     6.20622
      C   18   -0.55944      1.99914     4.54764    0.01265     6.55944
      C   19   -0.04469      1.99900     4.03049    0.01521     6.04469
      C   20   -0.22769      1.99901     4.21576    0.01293     6.22769
      C   21   -0.22789      1.99910     4.21493    0.01386     6.22789
      C   22   -0.23507      1.99909     4.22246    0.01352     6.23507
      C   23   -0.22587      1.99910     4.21285    0.01392     6.22587
      C   24   -0.22791      1.99902     4.21569    0.01320     6.22791
      H   25    0.23766      0.00000     0.76107    0.00127     0.76234
      H   26    0.23650      0.00000     0.76269    0.00081     0.76350
      H   27    0.23685      0.00000     0.76234    0.00081     0.76315
      H   28    0.23318      0.00000     0.76573    0.00110     0.76682
      H   29    0.23314      0.00000     0.76553    0.00133     0.76686
      H   30    0.24559      0.00000     0.75306    0.00135     0.75441
      H   31    0.23808      0.00000     0.76111    0.00081     0.76192
      H   32    0.23712      0.00000     0.76206    0.00081     0.76288
      H   33    0.23361      0.00000     0.76528    0.00110     0.76639
      H   34    0.27175      0.00000     0.72685    0.00141     0.72825
      H   35    0.26024      0.00000     0.73822    0.00154     0.73976
      H   36    0.23657      0.00000     0.76242    0.00101     0.76343
      H   37    0.23844      0.00000     0.76071    0.00085     0.76156
      H   38    0.23756      0.00000     0.76161    0.00082     0.76244
      H   39    0.23928      0.00000     0.75987    0.00085     0.76072
      H   40    0.24886      0.00000     0.74961    0.00153     0.75114
 =======================================================================
   * Total *    0.00000     47.97853   115.61501    0.40646   164.00000

 Normal termination of Gaussian 09 at Thu Sep 30 10:42:28 2021.
