 Gaussian 09, Revision A.02,

 -----------------------------------
 #p opt b3lyp/6-31G* scf=(xqc,tight)
 -----------------------------------

 ----------------------------------------------
 COc1ccc2c(c1)ccc(c2)n1c2ccccc2c2c1cccc2_conf_0
 ----------------------------------------------
 Symbolic Z-matrix:
 Charge =  0 Multiplicity = 1

 SCF Done:  E(RB3LYP) =  -1016.67628980     A.U. after   16 cycles
 SCF Done:  E(RB3LYP) =  -1016.68549698     A.U. after   13 cycles
 SCF Done:  E(RB3LYP) =  -1016.68811125     A.U. after   16 cycles
 SCF Done:  E(RB3LYP) =  -1016.68867332     A.U. after   12 cycles
 SCF Done:  E(RB3LYP) =  -1016.68885709     A.U. after   12 cycles
 SCF Done:  E(RB3LYP) =  -1016.68891761     A.U. after   11 cycles
 SCF Done:  E(RB3LYP) =  -1016.68892850     A.U. after   10 cycles
 SCF Done:  E(RB3LYP) =  -1016.68893086     A.U. after   10 cycles
 SCF Done:  E(RB3LYP) =  -1016.68893112     A.U. after    8 cycles
 SCF Done:  E(RB3LYP) =  -1016.68893113     A.U. after    7 cycles
 Optimization completed.
    -- Stationary point found.
 Normal termination of Gaussian 09 at Tue Sep 28 17:31:19 2021.

 ----------------------------------------------------------------------
 #p freq b3lyp/6-31G* volume NMR pop=NPA density=current Geom=AllCheck
 Guess=Read
 ----------------------------------------------------------------------

 COc1ccc2c(c1)ccc(c2)n1c2ccccc2c2c1cccc2_conf_0
 ----------------------------------------------
 Redundant internal coordinates taken from checkpoint file:
 C23H17NO_adaf_conf_0.chk
 Charge =  0 Multiplicity = 1

 SCF Done:  E(RB3LYP) =  -1016.68893113     A.U. after    1 cycles

  1  C    Isotropic =   137.1976   Anisotropy =    65.8052

  2  O    Isotropic =   232.8471   Anisotropy =    84.7740

  3  C    Isotropic =    39.6433   Anisotropy =   123.9694

  4  C    Isotropic =    75.3751   Anisotropy =   136.4514

  5  C    Isotropic =    66.1981   Anisotropy =   143.5791

  6  C    Isotropic =    67.0432   Anisotropy =   188.2728

  7  C    Isotropic =    62.8829   Anisotropy =   193.3541

  8  C    Isotropic =    89.6502   Anisotropy =   118.9944

  9  C    Isotropic =    67.5157   Anisotropy =   141.3323

 10  C    Isotropic =    69.4345   Anisotropy =   151.7003

 11  C    Isotropic =    62.4597   Anisotropy =   121.4817

 12  C    Isotropic =    68.9884   Anisotropy =   136.2259

 13  N    Isotropic =   120.4367   Anisotropy =    52.5092

 14  C    Isotropic =    55.8978   Anisotropy =   129.6243

 15  C    Isotropic =    86.6099   Anisotropy =   140.2509

 16  C    Isotropic =    70.5398   Anisotropy =   161.1075

 17  C    Isotropic =    75.7805   Anisotropy =   153.6931

 18  C    Isotropic =    75.4778   Anisotropy =   156.9873

 19  C    Isotropic =    71.7859   Anisotropy =   146.5107

 20  C    Isotropic =    71.8304   Anisotropy =   146.3687

 21  C    Isotropic =    55.7455   Anisotropy =   129.3027

 22  C    Isotropic =    86.7951   Anisotropy =   141.3034

 23  C    Isotropic =    70.4953   Anisotropy =   161.1798

 24  C    Isotropic =    75.7963   Anisotropy =   153.4875

 25  C    Isotropic =    75.4618   Anisotropy =   156.7418

 26  H    Isotropic =    28.1290   Anisotropy =     8.3662

 27  H    Isotropic =    28.4472   Anisotropy =     8.0473

 28  H    Isotropic =    28.4538   Anisotropy =     7.8502

 29  H    Isotropic =    25.1099   Anisotropy =     6.1640

 30  H    Isotropic =    24.5810   Anisotropy =     8.0337

 31  H    Isotropic =    25.4937   Anisotropy =     9.4771

 32  H    Isotropic =    24.5244   Anisotropy =     7.6707

 33  H    Isotropic =    24.6665   Anisotropy =    10.4459

 34  H    Isotropic =    24.5071   Anisotropy =    11.9626

 35  H    Isotropic =    25.0349   Anisotropy =    11.0286

 36  H    Isotropic =    24.9273   Anisotropy =     6.0695

 37  H    Isotropic =    25.0074   Anisotropy =     4.4568

 38  H    Isotropic =    24.2128   Anisotropy =     7.0799

 39  H    Isotropic =    25.0225   Anisotropy =    11.1566

 40  H    Isotropic =    24.9340   Anisotropy =     6.1666

 41  H    Isotropic =    25.0150   Anisotropy =     4.4129

 42  H    Isotropic =    24.2302   Anisotropy =     7.0234

  Exact polarizability: 400.300  -6.960 273.550  -0.607  12.771 132.321
 Approx polarizability: 579.833 -19.435 461.462  -8.385  38.584 231.802

                     1                      2                      3
                     A                      A                      A
 Frequencies --    28.7123                31.8057                40.6467
 Red. masses --     5.4367                 4.0230                 5.0019
 Frc consts  --     0.0026                 0.0024                 0.0049
 IR Inten    --     0.1689                 0.8100                 0.1927

                     4                      5                      6
                     A                      A                      A
 Frequencies --    83.3320               108.7356               125.0090
 Red. masses --     3.9185                 4.4247                 4.7698
 Frc consts  --     0.0160                 0.0308                 0.0439
 IR Inten    --     1.3470                 0.4860                 2.3627

                     7                      8                      9
                     A                      A                      A
 Frequencies --   152.1669               157.2778               173.4795
 Red. masses --     3.7690                 4.4589                 5.0646
 Frc consts  --     0.0514                 0.0650                 0.0898
 IR Inten    --     0.1980                 0.4645                 0.9124

                    10                     11                     12
                     A                      A                      A
 Frequencies --   192.1225               219.5410               237.1677
 Red. masses --     3.1851                 2.0542                 3.8339
 Frc consts  --     0.0693                 0.0583                 0.1271
 IR Inten    --     1.8980                 1.4212                 1.8361

                    13                     14                     15
                     A                      A                      A
 Frequencies --   267.6023               292.3852               295.6733
 Red. masses --     1.9082                 5.1209                 4.8233
 Frc consts  --     0.0805                 0.2579                 0.2484
 IR Inten    --     0.6404                 0.6756                 0.5290

                    16                     17                     18
                     A                      A                      A
 Frequencies --   338.6056               391.6643               413.4849
 Red. masses --     4.9820                 5.4517                 3.3804
 Frc consts  --     0.3365                 0.4927                 0.3405
 IR Inten    --     0.8856                 0.0095                 0.7648

                    19                     20                     21
                     A                      A                      A
 Frequencies --   431.5922               436.8051               438.8650
 Red. masses --     4.4326                 5.2192                 4.1286
 Frc consts  --     0.4865                 0.5867                 0.4685
 IR Inten    --     4.4573                 1.6444                 0.7149

                    22                     23                     24
                     A                      A                      A
 Frequencies --   460.2994               480.1612               491.2390
 Red. masses --     3.1895                 4.8523                 2.7906
 Frc consts  --     0.3982                 0.6591                 0.3968
 IR Inten    --     3.5215                18.3932                 7.6163

                    25                     26                     27
                     A                      A                      A
 Frequencies --   530.4598               532.4787               534.9447
 Red. masses --     6.5283                 4.8681                 4.7634
 Frc consts  --     1.0823                 0.8132                 0.8031
 IR Inten    --     2.9961                 9.3953                 6.8078

                    28                     29                     30
                     A                      A                      A
 Frequencies --   568.7675               583.1781               583.7456
 Red. masses --     4.1331                 4.0698                 4.0024
 Frc consts  --     0.7878                 0.8155                 0.8036
 IR Inten    --     0.9486                 0.7448                 0.2627

                    31                     32                     33
                     A                      A                      A
 Frequencies --   627.5586               637.6811               651.2283
 Red. masses --     5.8582                 4.6993                 7.0207
 Frc consts  --     1.3593                 1.1259                 1.7543
 IR Inten    --     1.8092                 2.4181                 0.6528

                    34                     35                     36
                     A                      A                      A
 Frequencies --   690.4801               698.4379               740.3623
 Red. masses --     4.1708                 6.4847                 2.8170
 Frc consts  --     1.1716                 1.8638                 0.9098
 IR Inten    --     7.8307                 2.1337                16.8485

                    37                     38                     39
                     A                      A                      A
 Frequencies --   744.5232               755.4022               763.1443
 Red. masses --     5.7262                 1.4621                 3.1299
 Frc consts  --     1.8701                 0.4916                 1.0740
 IR Inten    --     2.1301                 0.8635                 1.2062

                    40                     41                     42
                     A                      A                      A
 Frequencies --   763.7456               770.3773               789.1510
 Red. masses --     1.5709                 5.6128                 2.8434
 Frc consts  --     0.5399                 1.9626                 1.0433
 IR Inten    --    79.0435                 0.5503                 1.4581

                    43                     44                     45
                     A                      A                      A
 Frequencies --   816.9128               821.7910               831.5091
 Red. masses --     3.4354                 1.5317                 1.5701
 Frc consts  --     1.3508                 0.6095                 0.6396
 IR Inten    --     1.2348                 2.9836                16.6188

                    46                     47                     48
                     A                      A                      A
 Frequencies --   865.0676               867.9418               871.7942
 Red. masses --     1.3882                 1.5679                 1.6209
 Frc consts  --     0.6121                 0.6959                 0.7258
 IR Inten    --     4.6384                 3.3523                25.2012

                    49                     50                     51
                     A                      A                      A
 Frequencies --   903.3071               914.5391               929.0530
 Red. masses --     1.7430                 5.2434                 1.3736
 Frc consts  --     0.8380                 2.5839                 0.6985
 IR Inten    --     8.0384                20.3780                 0.2897

                    52                     53                     54
                     A                      A                      A
 Frequencies --   929.9851               938.5220               965.1804
 Red. masses --     1.3850                 3.0919                 1.2955
 Frc consts  --     0.7058                 1.6046                 0.7110
 IR Inten    --     1.6917                 9.5911                 0.3303

                    55                     56                     57
                     A                      A                      A
 Frequencies --   967.7983               968.8841               970.6653
 Red. masses --     1.2864                 1.2471                 1.2662
 Frc consts  --     0.7099                 0.6898                 0.7029
 IR Inten    --     0.2225                 0.1631                 0.1215

                    58                     59                     60
                     A                      A                      A
 Frequencies --   973.9360              1006.7565              1021.1103
 Red. masses --     3.9785                 3.4410                 7.3158
 Frc consts  --     2.2235                 2.0549                 4.4942
 IR Inten    --     5.2058                 3.6501                 3.7828

                    61                     62                     63
                     A                      A                      A
 Frequencies --  1048.9544              1056.7745              1073.2137
 Red. masses --     2.1769                 1.8072                 4.5297
 Frc consts  --     1.4112                 1.1891                 3.0739
 IR Inten    --     3.9732                 6.5774                51.6912

                    64                     65                     66
                     A                      A                      A
 Frequencies --  1126.5500              1150.0239              1155.1791
 Red. masses --     2.1398                 1.5181                 1.5113
 Frc consts  --     1.6000                 1.1829                 1.1883
 IR Inten    --     5.7259                 6.9607                18.5817

                    67                     68                     69
                     A                      A                      A
 Frequencies --  1179.3743              1183.4025              1184.8523
 Red. masses --     1.2841                 1.1761                 1.2731
 Frc consts  --     1.0523                 0.9704                 1.0530
 IR Inten    --     1.1282                 8.4093                 0.8528

                    70                     71                     72
                     A                      A                      A
 Frequencies --  1192.1340              1194.4839              1208.1478
 Red. masses --     1.1035                 1.4538                 1.5534
 Frc consts  --     0.9240                 1.2221                 1.3359
 IR Inten    --     0.0501                 4.5894                29.4916

                    73                     74                     75
                     A                      A                      A
 Frequencies --  1231.2614              1249.0377              1260.5348
 Red. masses --     1.7469                 1.9080                 2.6690
 Frc consts  --     1.5603                 1.7538                 2.4986
 IR Inten    --     7.6730               140.3216                81.9182

                    76                     77                     78
                     A                      A                      A
 Frequencies --  1273.1216              1299.3967              1304.1612
 Red. masses --     2.9794                 1.8804                 2.5885
 Frc consts  --     2.8453                 1.8706                 2.5939
 IR Inten    --    20.2531                 5.9881               232.9881

                    79                     80                     81
                     A                      A                      A
 Frequencies --  1343.8259              1349.3902              1373.5148
 Red. masses --     1.8846                 1.8880                 2.6048
 Frc consts  --     2.0052                 2.0255                 2.8953
 IR Inten    --    34.2556                 2.2010                18.4049

                    82                     83                     84
                     A                      A                      A
 Frequencies --  1386.3293              1391.6164              1393.7596
 Red. masses --     3.1628                 4.0868                 4.8893
 Frc consts  --     3.5814                 4.6631                 5.5959
 IR Inten    --    89.7658                 5.8224                 2.1895

                    85                     86                     87
                     A                      A                      A
 Frequencies --  1419.5297              1439.8277              1462.1160
 Red. masses --     5.1508                 4.0442                 4.3337
 Frc consts  --     6.1152                 4.9398                 5.4585
 IR Inten    --     2.9631               158.4297                15.1201

                    88                     89                     90
                     A                      A                      A
 Frequencies --  1491.5278              1498.4801              1502.4794
 Red. masses --     1.9717                 1.5758                 2.3034
 Frc consts  --     2.5844                 2.0847                 3.0636
 IR Inten    --   187.7354                54.7906                26.7380

                    91                     92                     93
                     A                      A                      A
 Frequencies --  1518.9086              1523.6365              1532.5085
 Red. masses --     1.0480                 2.8634                 1.3958
 Frc consts  --     1.4246                 3.9164                 1.9314
 IR Inten    --     6.1138                36.0494                54.5035

                    94                     95                     96
                     A                      A                      A
 Frequencies --  1534.1932              1543.3887              1557.6638
 Red. masses --     1.8331                 2.7305                 3.4207
 Frc consts  --     2.5421                 3.8321                 4.8900
 IR Inten    --     2.2934                10.7790                61.9549

                    97                     98                     99
                     A                      A                      A
 Frequencies --  1625.1196              1631.1528              1631.9538
 Red. masses --     7.0183                 5.7715                 6.6888
 Frc consts  --    10.9208                 9.0475                10.4957
 IR Inten    --     1.7088                 0.3826                 4.4526

                   100                    101                    102
                     A                      A                      A
 Frequencies --  1652.6639              1663.3452              1676.1136
 Red. masses --     6.3734                 5.8031                 6.5538
 Frc consts  --    10.2562                 9.4597                10.8480
 IR Inten    --    30.8544               223.1242                 0.1207

                   103                    104                    105
                     A                      A                      A
 Frequencies --  1687.0015              3027.6147              3087.2026
 Red. masses --     6.1570                 1.0346                 1.1067
 Frc consts  --    10.3241                 5.5875                 6.2147
 IR Inten    --    51.9407                56.7004                40.1720

                   106                    107                    108
                     A                      A                      A
 Frequencies --  3160.9814              3182.5457              3183.5427
 Red. masses --     1.1000                 1.0854                 1.0853
 Frc consts  --     6.4756                 6.4771                 6.4810
 IR Inten    --    30.9845                 0.1651                 0.8919

                   109                    110                    111
                     A                      A                      A
 Frequencies --  3184.7189              3188.8420              3191.2613
 Red. masses --     1.0886                 1.0887                 1.0895
 Frc consts  --     6.5049                 6.5229                 6.5376
 IR Inten    --    12.0161                 6.0732                15.5360

                   112                    113                    114
                     A                      A                      A
 Frequencies --  3192.7331              3201.2744              3206.3167
 Red. masses --     1.0898                 1.0910                 1.0944
 Frc consts  --     6.5450                 6.5875                 6.6287
 IR Inten    --     8.6724                12.5773                33.1405

                   115                    116                    117
                     A                      A                      A
 Frequencies --  3206.9872              3214.5675              3217.7783
 Red. masses --     1.0944                 1.0940                 1.0901
 Frc consts  --     6.6319                 6.6609                 6.6500
 IR Inten    --    54.6508                 7.3114                10.2713

                   118                    119                    120
                     A                      A                      A
 Frequencies --  3218.3362              3218.9646              3219.0807
 Red. masses --     1.0936                 1.0940                 1.0940
 Frc consts  --     6.6736                 6.6788                 6.6793
 IR Inten    --    23.9842                 3.6250                10.9036

 - Thermochemistry -
 -------------------
 Temperature   298.150 Kelvin.  Pressure   1.00000 Atm.
 Atom     1 has atomic number  6 and mass  12.00000

 Molecular mass:   323.13101 amu.
 Principal axes and moments of inertia in atomic units:
                           1         2         3
     Eigenvalues --  3827.30571********************
           X            0.99999   0.00362   0.00406
           Y           -0.00365   0.99996   0.00849
           Z           -0.00402  -0.00851   0.99996
 This molecule is an asymmetric top.
 Rotational symmetry number  1.
 Warning -- assumption of classical behavior for rotation
           may cause significant error
 Rotational temperatures (Kelvin)      0.02263     0.00537     0.00458
 Rotational constants (GHZ):           0.47154     0.11187     0.09547
 Zero-point vibrational energy     885967.4 (Joules/Mol)
                                  211.75130 (Kcal/Mol)
 Warning -- explicit consideration of  30 degrees of freedom as
           vibrations may cause significant error
 Vibrational temperatures:     41.31    45.76    58.48   119.90   156.45
          (Kelvin)            179.86   218.93   226.29   249.60   276.42
                              315.87   341.23   385.02   420.68   425.41
                              487.18   563.52   594.91   620.96   628.46
                              631.43   662.27   690.84   706.78   763.21
                              766.12   769.67   818.33   839.06   839.88
                              902.92   917.48   936.97   993.45  1004.90
                             1065.21  1071.20  1086.85  1097.99  1098.86
                             1108.40  1135.41  1175.35  1182.37  1196.35
                             1244.64  1248.77  1254.32  1299.66  1315.82
                             1336.70  1338.04  1350.32  1388.68  1392.44
                             1394.01  1396.57  1401.27  1448.50  1469.15
                             1509.21  1520.46  1544.11  1620.85  1654.63
                             1662.04  1696.85  1702.65  1704.74  1715.21
                             1718.59  1738.25  1771.51  1797.08  1813.63
                             1831.74  1869.54  1876.39  1933.46  1941.47
                             1976.18  1994.62  2002.22  2005.31  2042.38
                             2071.59  2103.66  2145.97  2155.98  2161.73
                             2185.37  2192.17  2204.94  2207.36  2220.59
                             2241.13  2338.18  2346.86  2348.01  2377.81
                             2393.18  2411.55  2427.22  4356.06  4441.79
                             4547.94  4578.97  4580.40  4582.09  4588.03
                             4591.51  4593.63  4605.91  4613.17  4614.13
                             4625.04  4629.66  4630.46  4631.37  4631.53

 Zero-point correction=                           0.337447 (Hartree/Particle)
 Thermal correction to Energy=                    0.356189
 Thermal correction to Enthalpy=                  0.357133
 Thermal correction to Gibbs Free Energy=         0.289784
 Sum of electronic and zero-point Energies=          -1016.351484
 Sum of electronic and thermal Energies=             -1016.332743
 Sum of electronic and thermal Enthalpies=           -1016.331798
 Sum of electronic and thermal Free Energies=        -1016.399147

                     E (Thermal)             CV                S
                      KCal/Mol        Cal/Mol-Kelvin    Cal/Mol-Kelvin
 Total                  223.512             77.334            141.747
 Electronic               0.000              0.000              0.000
 Translational            0.889              2.981             43.214
 Rotational               0.889              2.981             35.411
 Vibrational            221.734             71.372             63.122
 Vibration     1          0.593              1.984              5.916
 Vibration     2          0.594              1.983              5.713
 Vibration     3          0.594              1.981              5.227
 Vibration     4          0.600              1.961              3.811
 Vibration     5          0.606              1.942              3.291
 Vibration     6          0.610              1.928              3.021
 Vibration     7          0.619              1.900              2.645
 Vibration     8          0.621              1.895              2.582
 Vibration     9          0.627              1.875              2.397
 Vibration    10          0.634              1.851              2.207
 Vibration    11          0.647              1.811              1.963
 Vibration    12          0.656              1.784              1.824
 Vibration    13          0.673              1.733              1.612
 Vibration    14          0.688              1.688              1.460
 Vibration    15          0.690              1.682              1.441
 Vibration    16          0.719              1.598              1.219
 Vibration    17          0.759              1.488              0.994
 Vibration    18          0.777              1.441              0.914
 Vibration    19          0.793              1.401              0.853
 Vibration    20          0.797              1.390              0.837
 Vibration    21          0.799              1.385              0.830
 Vibration    22          0.818              1.338              0.765
 Vibration    23          0.837              1.294              0.710
 Vibration    24          0.847              1.269              0.680
 Vibration    25          0.885              1.183              0.586
 Vibration    26          0.887              1.178              0.582
 Vibration    27          0.890              1.173              0.576
 Vibration    28          0.925              1.099              0.507
 Vibration    29          0.940              1.068              0.480
 Vibration    30          0.941              1.066              0.478

 Optimization completed.
    -- Stationary point found.
 Normal termination of Gaussian 09 at Tue Sep 28 20:48:39 2021.
 Gaussian 09:  AM64L-G09RevA.02 11-Jun-2009

 ----------------------------------------------------------------------
 #p TD(NStates=10, Root=1) b3lyp/6-31G* volume pop=NPA density=current
 Geom=AllCheck Guess=Read
 ----------------------------------------------------------------------

 COc1ccc2c(c1)ccc(c2)n1c2ccccc2c2c1cccc2_conf_0
 ----------------------------------------------
 Redundant internal coordinates taken from checkpoint file:
 C23H17NO_adaf_conf_0.chk
 Charge =  0 Multiplicity = 1

                         Standard orientation:
 ---------------------------------------------------------------------
 Center     Atomic      Atomic             Coordinates (Angstroms)
 Number     Number       Type             X           Y           Z
 ---------------------------------------------------------------------
      1          6           0       -6.988157   -0.633712   -0.679397
      2          8           0       -6.339577    0.168789    0.294966
      3          6           0       -4.976962    0.188233    0.306391
      4          6           0       -4.408121    1.015987    1.314827
      5          6           0       -3.047641    1.127374    1.435210
      6          6           0       -2.171862    0.422397    0.561418
      7          6           0       -2.746974   -0.412312   -0.449216
      8          6           0       -4.161037   -0.513314   -0.559220
      9          6           0       -1.871504   -1.117544   -1.317885
     10          6           0       -0.505259   -1.001235   -1.202578
     11          6           0        0.062127   -0.180432   -0.192760
     12          6           0       -0.762484    0.511094    0.673513
     13          7           0        1.476122   -0.070471   -0.090673
     14          6           0        2.364980   -1.133597    0.097656
     15          6           0        2.094718   -2.493790    0.273269
     16          6           0        3.177376   -3.350468    0.460630
     17          6           0        4.498026   -2.869201    0.479657
     18          6           0        4.759634   -1.511748    0.316944
     19          6           0        3.690420   -0.628595    0.126446
     20          6           0        3.596125    0.804974   -0.054373
     21          6           0        2.217287    1.112786   -0.184191
     22          6           0        1.776222    2.421081   -0.400873
     23          6           0        2.738312    3.426272   -0.470720
     24          6           0        4.107898    3.141320   -0.331860
     25          6           0        4.541667    1.834818   -0.126840
     26          1           0       -8.058576   -0.501836   -0.512505
     27          1           0       -6.728837   -1.694256   -0.562839
     28          1           0       -6.735397   -0.310854   -1.697902
     29          1           0       -5.083641    1.549601    1.975983
     30          1           0       -2.620413    1.761693    2.207905
     31          1           0       -4.574647   -1.150377   -1.333301
     32          1           0       -2.297559   -1.748311   -2.094380
     33          1           0        0.154972   -1.525606   -1.886373
     34          1           0       -0.327164    1.126129    1.456221
     35          1           0        1.076929   -2.870180    0.269373
     36          1           0        2.993363   -4.412616    0.598468
     37          1           0        5.320030   -3.563932    0.627271
     38          1           0        5.780964   -1.140404    0.341489
     39          1           0        0.721074    2.646262   -0.515825
     40          1           0        2.419850    4.451754   -0.638062
     41          1           0        4.832436    3.948748   -0.388643
     42          1           0        5.601627    1.614855   -0.028179
 ---------------------------------------------------------------------

 SCF Done:  E(RB3LYP) =  -1016.68893113     A.U. after    1 cycles

 Excitation energies and oscillator strengths:

 Excited State   1:      Singlet-A      3.5100 eV  353.23 nm  f=0.0582  <S**2>=0.000
      85 -> 86         0.69740
 This state for optimization and/or second-order correction.
 Total Energy, E(TD-HF/TD-KS) =  -1016.55994180
 Copying the excited state density for this state as the 1-particle RhoCI density.

 Excited State   2:      Singlet-A      3.9847 eV  311.15 nm  f=0.0325  <S**2>=0.000
      84 -> 86        -0.13840
      84 -> 89         0.14948
      85 -> 87         0.67055

 Excited State   3:      Singlet-A      4.0134 eV  308.93 nm  f=0.0023  <S**2>=0.000
      84 -> 86         0.69102
      85 -> 87         0.13365

 Excited State   4:      Singlet-A      4.1973 eV  295.39 nm  f=0.1364  <S**2>=0.000
      82 -> 86         0.22407
      83 -> 86         0.14193
      85 -> 88         0.64150

 Excited State   5:      Singlet-A      4.2946 eV  288.70 nm  f=0.0454  <S**2>=0.000
      82 -> 88        -0.13908
      83 -> 86         0.63558
      83 -> 88         0.13092
      85 -> 88        -0.20808

 Excited State   6:      Singlet-A      4.5365 eV  273.31 nm  f=0.0719  <S**2>=0.000
      81 -> 87        -0.10402
      84 -> 87         0.57324
      85 -> 89        -0.37632

 Excited State   7:      Singlet-A      4.6261 eV  268.01 nm  f=0.0561  <S**2>=0.000
      82 -> 86         0.47167
      83 -> 86        -0.21160
      83 -> 88         0.43508
      85 -> 88        -0.16842

 Excited State   8:      Singlet-A      4.7487 eV  261.09 nm  f=0.0003  <S**2>=0.000
      84 -> 88         0.69016
      85 -> 89        -0.11321

 Excited State   9:      Singlet-A      4.8283 eV  256.79 nm  f=0.0006  <S**2>=0.000
      83 -> 87         0.67894
      84 -> 89        -0.16218

 Excited State  10:      Singlet-A      5.0419 eV  245.91 nm  f=0.0278  <S**2>=0.000
      81 -> 86         0.66524
      82 -> 86         0.10481
      85 -> 89         0.16313

 The electronic state is 1-A.
 Alpha  occ. eigenvalues --  -19.18596 -14.37726 -10.25520 -10.24694 -10.23398
 Alpha  occ. eigenvalues --  -10.21950 -10.21937 -10.20605 -10.20235 -10.19898
 Alpha  occ. eigenvalues --  -10.19816 -10.19744 -10.19725 -10.19507 -10.19194
 Alpha  occ. eigenvalues --  -10.18427 -10.18416 -10.18406 -10.18368 -10.18344
 Alpha  occ. eigenvalues --  -10.18328 -10.18308 -10.18291 -10.17759 -10.17729
 Alpha  occ. eigenvalues --   -1.07187  -0.98476  -0.87938  -0.84866  -0.83821
 Alpha  occ. eigenvalues --   -0.81950  -0.78262  -0.77311  -0.75404  -0.74428
 Alpha  occ. eigenvalues --   -0.73135  -0.72089  -0.71022  -0.69534  -0.64082
 Alpha  occ. eigenvalues --   -0.63189  -0.61270  -0.60591  -0.59598  -0.57635
 Alpha  occ. eigenvalues --   -0.56932  -0.53917  -0.53126  -0.51946  -0.50865
 Alpha  occ. eigenvalues --   -0.50214  -0.48075  -0.47489  -0.47141  -0.45614
 Alpha  occ. eigenvalues --   -0.45239  -0.44821  -0.44406  -0.43126  -0.43032
 Alpha  occ. eigenvalues --   -0.42569  -0.41684  -0.41457  -0.40959  -0.40819
 Alpha  occ. eigenvalues --   -0.39659  -0.38518  -0.37490  -0.36294  -0.35919
 Alpha  occ. eigenvalues --   -0.35694  -0.35064  -0.34639  -0.33485  -0.33246
 Alpha  occ. eigenvalues --   -0.32973  -0.32126  -0.30329  -0.28539  -0.27281
 Alpha  occ. eigenvalues --   -0.24652  -0.23662  -0.21802  -0.20767  -0.19123
 Alpha virt. eigenvalues --   -0.04175  -0.02187  -0.01320   0.01177   0.02668
 Alpha virt. eigenvalues --    0.03646   0.04919   0.08935   0.09591   0.09810
 Alpha virt. eigenvalues --    0.10484   0.10991   0.11482   0.12179   0.13535

 Mulliken atomic charges:
              1
     1  C   -0.203503
     2  O   -0.510065
     3  C    0.370863
     4  C   -0.196910
     5  C   -0.235538
     6  C    0.143630
     7  C    0.165741
     8  C   -0.318992
     9  C   -0.261117
    10  C   -0.187044
    11  C    0.223003
    12  C   -0.296039
    13  N   -0.658109
    14  C    0.315134
    15  C   -0.136780
    16  C   -0.143128
    17  C   -0.123454
    18  C   -0.187224
    19  C    0.071880
    20  C    0.073099
    21  C    0.315043
    22  C   -0.136810
    23  C   -0.143175
    24  C   -0.122505
    25  C   -0.186854
    26  H    0.154994
    27  H    0.145733
    28  H    0.145937
    29  H    0.101819
    30  H    0.089186
    31  H    0.099319
    32  H    0.094974
    33  H    0.095878
    34  H    0.100289
    35  H    0.201014
    36  H    0.157103
    37  H    0.156167
    38  H    0.152326
    39  H    0.204492
    40  H    0.158824
    41  H    0.157502
    42  H    0.153296
 Sum of Mulliken atomic charges =  -0.00000

 Dipole moment (field-independent basis, Debye):
    X=             11.3364    Y=             -0.5121    Z=             -1.0006  Tot=             11.3920
 Quadrupole moment (field-independent basis, Debye-Ang):
   XX=           -121.9422   YY=           -121.3588   ZZ=           -147.5725
   XY=              6.7170   XZ=              9.4292   YZ=             -1.4125

 Summary of Natural Population Analysis:

                                       Natural Population
                Natural  -----------------------------------------------
    Atom  No    Charge         Core      Valence    Rydberg      Total
 -----------------------------------------------------------------------
      C    1   -0.31327      1.99944     4.30009    0.01374     6.31327
      O    2   -0.51875      1.99974     6.50726    0.01174     8.51875
      C    3    0.32888      1.99880     3.64960    0.02272     5.67112
      C    4   -0.31778      1.99904     4.30315    0.01560     6.31778
      C    5   -0.27424      1.99906     4.26083    0.01434     6.27424
      C    6   -0.05688      1.99902     4.04290    0.01497     6.05688
      C    7   -0.00761      1.99903     3.99350    0.01508     6.00761
      C    8   -0.37626      1.99898     4.36496    0.01232     6.37626
      C    9   -0.30204      1.99906     4.28715    0.01583     6.30204
      C   10   -0.30620      1.99904     4.29268    0.01448     6.30620
      C   11    0.05698      1.99892     3.92481    0.01929     5.94302
      C   12   -0.31017      1.99899     4.29631    0.01487     6.31017
      N   13   -0.22334      1.99923     5.21128    0.01282     7.22334
      C   14    0.18291      1.99898     3.80068    0.01743     5.81709
      C   15   -0.19036      1.99901     4.17838    0.01297     6.19036
      C   16   -0.23505      1.99914     4.22195    0.01396     6.23505
      C   17   -0.19573      1.99912     4.18292    0.01369     6.19573
      C   18   -0.19052      1.99904     4.17883    0.01264     6.19052
      C   19   -0.06290      1.99900     4.04919    0.01471     6.06290
      C   20   -0.06085      1.99900     4.04717    0.01468     6.06085
      C   21    0.18345      1.99897     3.80026    0.01731     5.81655
      C   22   -0.18901      1.99901     4.17698    0.01302     6.18901
      C   23   -0.23537      1.99914     4.22227    0.01395     6.23537
      C   24   -0.19271      1.99912     4.17993    0.01367     6.19271
      C   25   -0.18991      1.99904     4.17821    0.01266     6.18991
      H   26    0.21906      0.00000     0.78036    0.00057     0.78094
      H   27    0.19945      0.00000     0.79851    0.00204     0.80055
      H   28    0.19953      0.00000     0.79843    0.00204     0.80047
      H   29    0.23028      0.00000     0.76859    0.00113     0.76972
      H   30    0.21610      0.00000     0.78294    0.00095     0.78390
      H   31    0.22128      0.00000     0.77765    0.00107     0.77872
      H   32    0.22128      0.00000     0.77774    0.00097     0.77872
      H   33    0.22126      0.00000     0.77806    0.00069     0.77874
      H   34    0.22115      0.00000     0.77782    0.00103     0.77885
      H   35    0.27608      0.00000     0.72295    0.00097     0.72392
      H   36    0.25190      0.00000     0.74750    0.00060     0.74810
      H   37    0.24813      0.00000     0.75123    0.00064     0.75187
      H   38    0.24595      0.00000     0.75322    0.00083     0.75405
      H   39    0.27747      0.00000     0.72161    0.00091     0.72253
      H   40    0.25282      0.00000     0.74660    0.00058     0.74718
      H   41    0.24860      0.00000     0.75077    0.00062     0.75140
      H   42    0.24637      0.00000     0.75280    0.00083     0.75363
 =======================================================================
   * Total *    0.00000     49.97692   119.63810    0.38498   170.00000

 Normal termination of Gaussian 09 at Wed Sep 29 05:24:19 2021.
