 Gaussian 09, Revision A.02,

 -----------------------------------
 #p opt b3lyp/6-31G* scf=(xqc,tight)
 -----------------------------------

 ----------------
 Br[Mg]C=C_conf_0
 ----------------
 Symbolic Z-matrix:
 Charge =  0 Multiplicity = 1

 SCF Done:  E(RB3LYP) =  -2849.84270049     A.U. after   12 cycles
 SCF Done:  E(RB3LYP) =  -2849.85302089     A.U. after   11 cycles
 SCF Done:  E(RB3LYP) =  -2849.85409349     A.U. after   12 cycles
 SCF Done:  E(RB3LYP) =  -2849.85446201     A.U. after   12 cycles
 SCF Done:  E(RB3LYP) =  -2849.85644137     A.U. after   11 cycles
 SCF Done:  E(RB3LYP) =  -2849.85703328     A.U. after   12 cycles
 SCF Done:  E(RB3LYP) =  -2849.85704526     A.U. after    9 cycles
 SCF Done:  E(RB3LYP) =  -2849.85704608     A.U. after   12 cycles
 SCF Done:  E(RB3LYP) =  -2849.85704674     A.U. after   12 cycles
 SCF Done:  E(RB3LYP) =  -2849.85704707     A.U. after    7 cycles
 SCF Done:  E(RB3LYP) =  -2849.85704711     A.U. after    7 cycles
 Optimization completed.
    -- Stationary point found.
 Normal termination of Gaussian 09 at Mon Oct  4 21:35:43 2021.

 ----------------------------------------------------------------------
 #p freq b3lyp/6-31G* volume NMR pop=NPA density=current Geom=AllCheck
 Guess=Read
 ----------------------------------------------------------------------

 Br[Mg]C=C_conf_0
 ----------------
 Redundant internal coordinates taken from checkpoint file:
 C2H3BrMg_40e8_conf_0.chk
 Charge =  0 Multiplicity = 1

 SCF Done:  E(RB3LYP) =  -2849.85704711     A.U. after    1 cycles

  1  Br   Isotropic =  2941.7941   Anisotropy =   260.2062

  2  Mg   Isotropic =   516.2556   Anisotropy =   281.9571

  3  C    Isotropic =    56.7467   Anisotropy =   184.6729

  4  C    Isotropic =    53.7765   Anisotropy =   156.4524

  5  H    Isotropic =    26.0072   Anisotropy =     3.4300

  6  H    Isotropic =    26.0637   Anisotropy =     5.6519

  7  H    Isotropic =    25.9072   Anisotropy =     5.4282

  Exact polarizability:  90.031   5.333  53.214   0.003  -0.001  40.927
 Approx polarizability: 119.181   9.772  80.292   0.001  -0.002  56.507

                     1                      2                      3
                     A                      A                      A
 Frequencies --    78.8493               118.4018               214.4954
 Red. masses --     5.1858                 3.7320                 6.2365
 Frc consts  --     0.0190                 0.0308                 0.1691
 IR Inten    --     8.5176                16.6750                25.2859

                     4                      5                      6
                     A                      A                      A
 Frequencies --   322.1758               386.5795               607.9887
 Red. masses --     5.6159                 1.5955                 7.4941
 Frc consts  --     0.3434                 0.1405                 1.6321
 IR Inten    --    24.8893                59.8692                91.7742

                     7                      8                      9
                     A                      A                      A
 Frequencies --   981.6455              1009.9312              1071.3141
 Red. masses --     1.3489                 1.1077                 1.0722
 Frc consts  --     0.7658                 0.6657                 0.7251
 IR Inten    --    39.0218                11.8938                 8.0728

                    10                     11                     12
                     A                      A                      A
 Frequencies --  1284.4780              1456.8933              1647.8747
 Red. masses --     1.3433                 1.4368                 2.7479
 Frc consts  --     1.3058                 1.7968                 4.3964
 IR Inten    --    23.6435                 7.1170                 8.3862

                    13                     14                     15
                     A                      A                      A
 Frequencies --  3079.9390              3102.2390              3161.8361
 Red. masses --     1.0768                 1.0667                 1.1137
 Frc consts  --     6.0181                 6.0485                 6.5597
 IR Inten    --    20.6520                47.3116                31.5984

 - Thermochemistry -
 -------------------
 Temperature   298.150 Kelvin.  Pressure   1.00000 Atm.
 Atom     1 has atomic number 35 and mass  78.91834

 Molecular mass:   129.92686 amu.
 Principal axes and moments of inertia in atomic units:
                           1         2         3
     Eigenvalues --    45.242161806.744481851.98661
           X            0.99998   0.00618   0.00001
           Y           -0.00618   0.99998  -0.00008
           Z           -0.00001   0.00008   1.00000
 This molecule is an asymmetric top.
 Rotational symmetry number  1.
 Rotational temperatures (Kelvin)      1.91445     0.04794     0.04677
 Rotational constants (GHZ):          39.89069     0.99889     0.97449
 Zero-point vibrational energy     110802.0 (Joules/Mol)
                                   26.48230 (Kcal/Mol)
 Warning -- explicit consideration of   6 degrees of freedom as
           vibrations may cause significant error
 Vibrational temperatures:    113.45   170.35   308.61   463.54   556.20
          (Kelvin)            874.76  1412.37  1453.06  1541.38  1848.07
                             2096.14  2370.92  4431.34  4463.42  4549.17

 Zero-point correction=                           0.042202 (Hartree/Particle)
 Thermal correction to Energy=                    0.048044
 Thermal correction to Enthalpy=                  0.048988
 Thermal correction to Gibbs Free Energy=         0.011393
 Sum of electronic and zero-point Energies=          -2849.814845
 Sum of electronic and thermal Energies=             -2849.809003
 Sum of electronic and thermal Enthalpies=           -2849.808059
 Sum of electronic and thermal Free Energies=        -2849.845654

                     E (Thermal)             CV                S
                      KCal/Mol        Cal/Mol-Kelvin    Cal/Mol-Kelvin
 Total                   30.148             17.180             79.126
 Electronic               0.000              0.000              0.000
 Translational            0.889              2.981             40.498
 Rotational               0.889              2.981             26.518
 Vibrational             28.371             11.218             12.109
 Vibration     1          0.600              1.963              3.919
 Vibration     2          0.609              1.934              3.126
 Vibration     3          0.644              1.819              2.005
 Vibration     4          0.707              1.631              1.299
 Vibration     5          0.755              1.499              1.013
 Vibration     6          0.967              1.015              0.436

 Optimization completed.
    -- Stationary point found.
 Normal termination of Gaussian 09 at Mon Oct  4 21:39:12 2021.
 Gaussian 09:  AM64L-G09RevA.02 11-Jun-2009

 ----------------------------------------------------------------------
 #p TD(NStates=10, Root=1) b3lyp/6-31G* volume pop=NPA density=current
 Geom=AllCheck Guess=Read
 ----------------------------------------------------------------------

 Br[Mg]C=C_conf_0
 ----------------
 Redundant internal coordinates taken from checkpoint file:
 C2H3BrMg_40e8_conf_0.chk
 Charge =  0 Multiplicity = 1

                         Standard orientation:
 ---------------------------------------------------------------------
 Center     Atomic      Atomic             Coordinates (Angstroms)
 Number     Number       Type             X           Y           Z
 ---------------------------------------------------------------------
      1         35           0       -1.637347    0.061315    0.000070
      2         12           0        0.680140   -0.230282   -0.000383
      3          6           0        2.727372   -0.496016    0.000163
      4          6           0        3.603192    0.523411    0.000091
      5          1           0        3.177954   -1.493949    0.000512
      6          1           0        3.297637    1.571164   -0.000238
      7          1           0        4.686497    0.375776    0.000350
 ---------------------------------------------------------------------

 SCF Done:  E(RB3LYP) =  -2849.85704711     A.U. after    1 cycles

 Excitation energies and oscillator strengths:

 Excited State   1:      Singlet-A      5.0462 eV  245.70 nm  f=0.0132  <S**2>=0.000
      31 -> 32         0.69587
 This state for optimization and/or second-order correction.
 Total Energy, E(TD-HF/TD-KS) =  -2849.67160181
 Copying the excited state density for this state as the 1-particle RhoCI density.

 Excited State   2:      Singlet-A      5.4480 eV  227.58 nm  f=0.0088  <S**2>=0.000
      28 -> 32         0.53234
      30 -> 33         0.44983

 Excited State   3:      Singlet-A      5.4730 eV  226.54 nm  f=0.0399  <S**2>=0.000
      29 -> 32         0.69812

 Excited State   4:      Singlet-A      5.5203 eV  224.60 nm  f=0.1955  <S**2>=0.000
      30 -> 32         0.66138
      30 -> 34         0.13511
      31 -> 33         0.10341
      31 -> 35         0.13018

 Excited State   5:      Singlet-A      5.5517 eV  223.32 nm  f=0.0766  <S**2>=0.000
      28 -> 32        -0.46151
      30 -> 33         0.52673

 Excited State   6:      Singlet-A      5.8653 eV  211.39 nm  f=0.0093  <S**2>=0.000
      30 -> 34         0.63228
      31 -> 33        -0.29174

 Excited State   7:      Singlet-A      5.8925 eV  210.41 nm  f=0.0002  <S**2>=0.000
      31 -> 34         0.70357

 Excited State   8:      Singlet-A      6.0501 eV  204.93 nm  f=0.0000  <S**2>=0.000
      29 -> 33         0.70230

 Excited State   9:      Singlet-A      6.1134 eV  202.81 nm  f=0.0537  <S**2>=0.000
      28 -> 33         0.55002
      29 -> 34        -0.34617
      30 -> 34        -0.12801
      31 -> 33        -0.21787

 Excited State  10:      Singlet-A      6.2154 eV  199.48 nm  f=0.2318  <S**2>=0.000
      28 -> 33         0.29070
      30 -> 32        -0.12682
      30 -> 34         0.23341
      31 -> 33         0.55560
      31 -> 35         0.15161

 The electronic state is 1-A.
 Alpha  occ. eigenvalues -- -482.87848 -61.84094 -56.35821 -56.35690 -56.35687
 Alpha  occ. eigenvalues --  -46.84417 -10.18981 -10.16959  -8.55023  -6.49772
 Alpha  occ. eigenvalues --   -6.49372  -6.49364  -3.13264  -2.61450  -2.61325
 Alpha  occ. eigenvalues --   -2.61319  -2.61000  -2.61000  -1.87889  -1.87840
 Alpha  occ. eigenvalues --   -1.87238  -0.74198  -0.72521  -0.55409  -0.44366
 Alpha  occ. eigenvalues --   -0.38918  -0.32870  -0.28062  -0.28051  -0.26648
 Alpha  occ. eigenvalues --   -0.26595
 Alpha virt. eigenvalues --   -0.04310  -0.02639  -0.01492   0.03603   0.06506
 Alpha virt. eigenvalues --    0.11496   0.12533   0.14915   0.15257   0.18614
 Alpha virt. eigenvalues --    0.22778   0.26076   0.26917   0.28524   0.29741

 Mulliken atomic charges:
              1
     1  Br  -0.217770
     2  Mg   0.005908
     3  C   -0.200436
     4  C   -0.196112
     5  H    0.183655
     6  H    0.222780
     7  H    0.201975
 Sum of Mulliken atomic charges =  -0.00000

 Dipole moment (field-independent basis, Debye):
    X=              9.3109    Y=             -0.6424    Z=              0.0054  Tot=              9.3331
 Quadrupole moment (field-independent basis, Debye-Ang):
   XX=            -23.5381   YY=            -42.4630   ZZ=            -44.5500
   XY=              0.8712   XZ=              0.0050   YZ=             -0.0004

 Summary of Natural Population Analysis:

                                       Natural Population
                Natural  -----------------------------------------------
    Atom  No    Charge         Core      Valence    Rydberg      Total
 -----------------------------------------------------------------------
     Br    1   -0.60615     27.99968     7.59578    0.01068    35.60615
     Mg    2    0.62474      9.99868     1.34565    0.03093    11.37526
      C    3   -0.45980      1.99945     4.42369    0.03666     6.45980
      C    4   -0.15698      1.99939     4.14517    0.01242     6.15698
      H    5    0.19005      0.00000     0.80905    0.00090     0.80995
      H    6    0.20898      0.00000     0.78822    0.00280     0.79102
      H    7    0.19883      0.00000     0.79970    0.00147     0.80117
 =======================================================================
   * Total *   -0.00032     41.99721    19.90726    0.09586    62.00032

 Normal termination of Gaussian 09 at Mon Oct  4 21:50:06 2021.
