 Gaussian 09, Revision A.02,

 -----------------------------------
 #p opt b3lyp/6-31G* scf=(xqc,tight)
 -----------------------------------

 ----------------
 Cl[Mg]C=C_conf_0
 ----------------
 Symbolic Z-matrix:
 Charge =  0 Multiplicity = 1

 SCF Done:  E(RB3LYP) =  -738.328642047     A.U. after   11 cycles
 SCF Done:  E(RB3LYP) =  -738.337652376     A.U. after   12 cycles
 SCF Done:  E(RB3LYP) =  -738.336594926     A.U. after   12 cycles
 SCF Done:  E(RB3LYP) =  -738.338907802     A.U. after   12 cycles
 SCF Done:  E(RB3LYP) =  -738.339433283     A.U. after   10 cycles
 SCF Done:  E(RB3LYP) =  -738.339725706     A.U. after   10 cycles
 SCF Done:  E(RB3LYP) =  -738.339728509     A.U. after    8 cycles
 SCF Done:  E(RB3LYP) =  -738.339728865     A.U. after    7 cycles
 SCF Done:  E(RB3LYP) =  -738.339729124     A.U. after    7 cycles
 SCF Done:  E(RB3LYP) =  -738.339729309     A.U. after    7 cycles
 Optimization completed.
    -- Stationary point found.
 Normal termination of Gaussian 09 at Mon Oct  4 21:33:06 2021.

 ----------------------------------------------------------------------
 #p freq b3lyp/6-31G* volume NMR pop=NPA density=current Geom=AllCheck
 Guess=Read
 ----------------------------------------------------------------------

 Cl[Mg]C=C_conf_0
 ----------------
 Redundant internal coordinates taken from checkpoint file:
 C2H3ClMg_7e51_conf_0.chk
 Charge =  0 Multiplicity = 1

 SCF Done:  E(RB3LYP) =  -738.339729309     A.U. after    1 cycles

  1  Cl   Isotropic =  1041.5421   Anisotropy =   161.2161

  2  Mg   Isotropic =   529.8227   Anisotropy =   258.8247

  3  C    Isotropic =    58.1208   Anisotropy =   184.0492

  4  C    Isotropic =    53.3907   Anisotropy =   157.2289

  5  H    Isotropic =    26.1048   Anisotropy =     3.1398

  6  H    Isotropic =    26.1056   Anisotropy =     5.4057

  7  H    Isotropic =    25.9279   Anisotropy =     5.3637

  Exact polarizability:  76.707 -10.543  50.103  -0.000   0.000  34.929
 Approx polarizability:  96.854 -15.016  72.807   0.000  -0.000  44.554

                     1                      2                      3
                    A'                     A"                     A'
 Frequencies --    73.5753               108.4174               226.7029
 Red. masses --     5.6329                 3.9984                 5.3572
 Frc consts  --     0.0180                 0.0277                 0.1622
 IR Inten    --    14.1048                25.4678                36.3192

                     4                      5                      6
                    A'                     A"                     A'
 Frequencies --   376.0275               384.5248               624.9356
 Red. masses --     6.1888                 1.5621                 8.4825
 Frc consts  --     0.5156                 0.1361                 1.9518
 IR Inten    --    21.4902                64.2388               106.9818

                     7                      8                      9
                    A"                     A'                     A"
 Frequencies --   981.4702              1010.2276              1070.5480
 Red. masses --     1.3484                 1.1087                 1.0714
 Frc consts  --     0.7653                 0.6667                 0.7234
 IR Inten    --    39.9455                13.0157                 7.8664

                    10                     11                     12
                    A'                     A'                     A'
 Frequencies --  1283.8780              1456.3416              1647.4923
 Red. masses --     1.3428                 1.4364                 2.7467
 Frc consts  --     1.3041                 1.7949                 4.3924
 IR Inten    --    22.4533                 7.2993                 8.1516

                    13                     14                     15
                    A'                     A'                     A'
 Frequencies --  3083.9725              3103.9129              3163.1885
 Red. masses --     1.0751                 1.0686                 1.1137
 Frc consts  --     6.0246                 6.0658                 6.5653
 IR Inten    --    19.6082                43.4690                30.6605

 - Thermochemistry -
 -------------------
 Temperature   298.150 Kelvin.  Pressure   1.00000 Atm.
 Atom     1 has atomic number 17 and mass  34.96885

 Molecular mass:    85.97737 amu.
 Principal axes and moments of inertia in atomic units:
                           1         2         3
     Eigenvalues --    45.500341246.181791291.68213
           X            0.98479   0.17377   0.00000
           Y           -0.17377   0.98479   0.00000
           Z            0.00000  -0.00000   1.00000
 This molecule is an asymmetric top.
 Rotational symmetry number  1.
 Rotational temperatures (Kelvin)      1.90359     0.06950     0.06706
 Rotational constants (GHZ):          39.66435     1.44822     1.39720
 Zero-point vibrational energy     111224.1 (Joules/Mol)
                                   26.58319 (Kcal/Mol)
 Warning -- explicit consideration of   5 degrees of freedom as
           vibrations may cause significant error
 Vibrational temperatures:    105.86   155.99   326.17   541.02   553.24
          (Kelvin)            899.14  1412.11  1453.49  1540.28  1847.21
                             2095.35  2370.37  4437.14  4465.83  4551.12

 Zero-point correction=                           0.042363 (Hartree/Particle)
 Thermal correction to Energy=                    0.048149
 Thermal correction to Enthalpy=                  0.049093
 Thermal correction to Gibbs Free Energy=         0.012453
 Sum of electronic and zero-point Energies=           -738.297366
 Sum of electronic and thermal Energies=              -738.291580
 Sum of electronic and thermal Enthalpies=            -738.290636
 Sum of electronic and thermal Free Energies=         -738.327277

                     E (Thermal)             CV                S
                      KCal/Mol        Cal/Mol-Kelvin    Cal/Mol-Kelvin
 Total                   30.214             17.033             77.117
 Electronic               0.000              0.000              0.000
 Translational            0.889              2.981             39.268
 Rotational               0.889              2.981             25.796
 Vibrational             28.437             11.071             12.053
 Vibration     1          0.599              1.966              4.055
 Vibration     2          0.606              1.942              3.297
 Vibration     3          0.650              1.800              1.905
 Vibration     4          0.747              1.521              1.055
 Vibration     5          0.753              1.503              1.021

 Optimization completed.
    -- Stationary point found.
 Normal termination of Gaussian 09 at Mon Oct  4 21:35:27 2021.
 Gaussian 09:  AM64L-G09RevA.02 11-Jun-2009

 ----------------------------------------------------------------------
 #p TD(NStates=10, Root=1) b3lyp/6-31G* volume pop=NPA density=current
 Geom=AllCheck Guess=Read
 ----------------------------------------------------------------------

 Cl[Mg]C=C_conf_0
 ----------------
 Redundant internal coordinates taken from checkpoint file:
 C2H3ClMg_7e51_conf_0.chk
 Charge =  0 Multiplicity = 1

                         Standard orientation:
 ---------------------------------------------------------------------
 Center     Atomic      Atomic             Coordinates (Angstroms)
 Number     Number       Type             X           Y           Z
 ---------------------------------------------------------------------
      1         17           0       -2.213807    0.277561   -0.000000
      2         12           0       -0.000000    0.221641   -0.000000
      3          6           0        2.063431    0.133549   -0.000000
      4          6           0        2.745786   -1.024345    0.000000
      5          1           0        2.680159    1.037818   -0.000000
      6          1           0        2.261145   -2.002194    0.000000
      7          1           0        3.838110   -1.069087    0.000000
 ---------------------------------------------------------------------

 SCF Done:  E(RB3LYP) =  -738.339729309     A.U. after    1 cycles

 Excitation energies and oscillator strengths:

 Excited State   1:      Singlet-A"     5.0359 eV  246.20 nm  f=0.0211  <S**2>=0.000
      22 -> 23         0.69938
 This state for optimization and/or second-order correction.
 Total Energy, E(TD-HF/TD-KS) =  -738.154662749
 Copying the excited state density for this state as the 1-particle RhoCI density.

 Excited State   2:      Singlet-A'     5.5500 eV  223.40 nm  f=0.2051  <S**2>=0.000
      21 -> 23         0.67632
      22 -> 26         0.13343

 Excited State   3:      Singlet-A"     5.5613 eV  222.94 nm  f=0.0145  <S**2>=0.000
      20 -> 23         0.14542
      21 -> 24         0.67926

 Excited State   4:      Singlet-A'     5.8296 eV  212.68 nm  f=0.0220  <S**2>=0.000
      19 -> 23         0.65454
      21 -> 25         0.25665

 Excited State   5:      Singlet-A"     5.8667 eV  211.33 nm  f=0.0704  <S**2>=0.000
      20 -> 23         0.68952
      21 -> 24        -0.14317

 Excited State   6:      Singlet-A"     5.9420 eV  208.66 nm  f=0.0011  <S**2>=0.000
      22 -> 25         0.70321

 Excited State   7:      Singlet-A'     5.9610 eV  207.99 nm  f=0.0294  <S**2>=0.000
      19 -> 23        -0.25685
      21 -> 25         0.57997
      22 -> 24         0.30511

 Excited State   8:      Singlet-A'     6.2649 eV  197.90 nm  f=0.2947  <S**2>=0.000
      21 -> 23        -0.14859
      21 -> 25        -0.29146
      22 -> 24         0.59372
      22 -> 26         0.15942

 Excited State   9:      Singlet-A"     6.5060 eV  190.57 nm  f=0.0000  <S**2>=0.000
      19 -> 24         0.70264

 Excited State  10:      Singlet-A'     6.5683 eV  188.76 nm  f=0.0017  <S**2>=0.000
      19 -> 25        -0.30093
      20 -> 24         0.63011

 The electronic state is 1-A'.
 Alpha  occ. eigenvalues -- -101.49933 -46.84601 -10.19195 -10.17219  -9.41643
 Alpha  occ. eigenvalues --   -7.17566  -7.17294  -7.17289  -3.13420  -1.88062
 Alpha  occ. eigenvalues --   -1.88012  -1.87378  -0.76724  -0.74406  -0.55619
 Alpha  occ. eigenvalues --   -0.44573  -0.39157  -0.34199  -0.29882  -0.29868
 Alpha  occ. eigenvalues --   -0.26993  -0.26835
 Alpha virt. eigenvalues --   -0.04595  -0.02720  -0.01502   0.03495   0.06459
 Alpha virt. eigenvalues --    0.11653   0.13072   0.14993   0.15702   0.18652
 Alpha virt. eigenvalues --    0.22781   0.26783   0.27403   0.29998   0.31031

 Mulliken atomic charges:
              1
     1  Cl  -0.275110
     2  Mg   0.047551
     3  C   -0.203384
     4  C   -0.190725
     5  H    0.188624
     6  H    0.226717
     7  H    0.206327
 Sum of Mulliken atomic charges =   0.00000

 Dipole moment (field-independent basis, Debye):
    X=             10.2420    Y=             -1.2784    Z=              0.0000  Tot=             10.3215
 Quadrupole moment (field-independent basis, Debye-Ang):
   XX=            -32.5902   YY=            -35.7039   ZZ=            -38.4624
   XY=             -2.5099   XZ=              0.0000   YZ=              0.0000

 Summary of Natural Population Analysis:

                                       Natural Population
                Natural  -----------------------------------------------
    Atom  No    Charge         Core      Valence    Rydberg      Total
 -----------------------------------------------------------------------
     Cl    1   -0.70669      9.99990     7.69959    0.00720    17.70669
     Mg    2    0.69905      9.99872     1.27473    0.02750    11.30095
      C    3   -0.44721      1.99947     4.40942    0.03832     6.44721
      C    4   -0.14368      1.99941     4.13221    0.01207     6.14368
      H    5    0.19043      0.00000     0.80881    0.00076     0.80957
      H    6    0.20908      0.00000     0.78831    0.00261     0.79092
      H    7    0.19826      0.00000     0.80022    0.00152     0.80174
 =======================================================================
   * Total *   -0.00077     23.99749    19.91330    0.08997    44.00077

 Normal termination of Gaussian 09 at Mon Oct  4 21:41:18 2021.
