 Gaussian 09, Revision A.02,

 -----------------------------------
 #p opt b3lyp/6-31G* scf=(xqc,tight)
 -----------------------------------

 ---------------
 CC[Mg]Br_conf_0
 ---------------
 Symbolic Z-matrix:
 Charge =  0 Multiplicity = 1

 SCF Done:  E(RB3LYP) =  -2851.05413587     A.U. after   13 cycles
 SCF Done:  E(RB3LYP) =  -2851.06823891     A.U. after   13 cycles
 SCF Done:  E(RB3LYP) =  -2851.08032394     A.U. after   13 cycles
 SCF Done:  E(RB3LYP) =  -2851.08515543     A.U. after   11 cycles
 SCF Done:  E(RB3LYP) =  -2851.08823835     A.U. after   12 cycles
 SCF Done:  E(RB3LYP) =  -2851.08928419     A.U. after   10 cycles
 SCF Done:  E(RB3LYP) =  -2851.09066928     A.U. after   11 cycles
 SCF Done:  E(RB3LYP) =  -2851.09073429     A.U. after   12 cycles
 SCF Done:  E(RB3LYP) =  -2851.09073810     A.U. after   13 cycles
 Optimization completed.
    -- Stationary point found.
 Normal termination of Gaussian 09 at Tue Oct  5 16:47:05 2021.

 ----------------------------------------------------------------------
 #p freq b3lyp/6-31G* volume NMR pop=NPA density=current Geom=AllCheck
 Guess=Read
 ----------------------------------------------------------------------

 CC[Mg]Br_conf_0
 ---------------
 Redundant internal coordinates taken from checkpoint file:
 C2H5BrMg_bcba_conf_0.chk
 Charge =  0 Multiplicity = 1

 SCF Done:  E(RB3LYP) =  -2851.09073810     A.U. after    1 cycles

  1  C    Isotropic =   173.9000   Anisotropy =    23.4875

  2  C    Isotropic =   187.0684   Anisotropy =    19.2571

  3  Mg   Isotropic =   504.6643   Anisotropy =   314.9010

  4  Br   Isotropic =  2890.2056   Anisotropy =   345.3596

  5  H    Isotropic =    30.6043   Anisotropy =    10.3901

  6  H    Isotropic =    30.8745   Anisotropy =     7.9560

  7  H    Isotropic =    30.8746   Anisotropy =     7.9561

  8  H    Isotropic =    31.7921   Anisotropy =     7.9183

  9  H    Isotropic =    31.7921   Anisotropy =     7.9173

  Exact polarizability:  89.585  -0.699  52.590  -0.000  -0.000  50.619
 Approx polarizability: 115.992  -4.192  72.804  -0.000  -0.000  72.204

                     1                      2                      3
                     A                      A                      A
 Frequencies --    81.7234               111.0080               208.3054
 Red. masses --     5.1697                 3.2861                 5.6260
 Frc consts  --     0.0203                 0.0239                 0.1438
 IR Inten    --     7.5250                15.0441                22.3013

                     4                      5                      6
                     A                      A                      A
 Frequencies --   236.7322               314.8654               575.4480
 Red. masses --     1.2279                 5.2718                 7.5286
 Frc consts  --     0.0405                 0.3079                 1.4688
 IR Inten    --     8.0809                27.9170                62.0748

                     7                      8                      9
                     A                      A                      A
 Frequencies --   575.6586               939.6281               968.7204
 Red. masses --     1.2341                 1.0757                 1.2000
 Frc consts  --     0.2409                 0.5596                 0.6635
 IR Inten    --    51.4240                 9.0329                 5.0479

                    10                     11                     12
                     A                      A                      A
 Frequencies --  1007.9845              1205.1662              1275.9060
 Red. masses --     3.4192                 1.4189                 1.2780
 Frc consts  --     2.0468                 1.2142                 1.2258
 IR Inten    --    16.7191                37.6984                 4.9083

                    13                     14                     15
                     A                      A                      A
 Frequencies --  1442.3875              1490.4378              1530.8357
 Red. masses --     1.1903                 1.0852                 1.0480
 Frc consts  --     1.4591                 1.4203                 1.4471
 IR Inten    --    11.3890                 0.0813                 1.2833

                    16                     17                     18
                     A                      A                      A
 Frequencies --  1543.2625              3013.2046              3018.4230
 Red. masses --     1.0409                 1.0530                 1.0441
 Frc consts  --     1.4606                 5.6328                 5.6049
 IR Inten    --     5.7564                34.3788                56.5282

                    19                     20                     21
                     A                      A                      A
 Frequencies --  3049.1972              3070.3032              3091.8115
 Red. masses --     1.0996                 1.0966                 1.1019
 Frc consts  --     6.0235                 6.0908                 6.2063
 IR Inten    --     8.8382                38.7711                50.5264

 - Thermochemistry -
 -------------------
 Temperature   298.150 Kelvin.  Pressure   1.00000 Atm.
 Atom     1 has atomic number  6 and mass  12.00000

 Molecular mass:   131.94251 amu.
 Principal axes and moments of inertia in atomic units:
                           1         2         3
     Eigenvalues --    74.451701927.237211979.50389
           X            0.99997   0.00784  -0.00000
           Y           -0.00784   0.99997   0.00001
           Z            0.00000  -0.00001   1.00000
 This molecule is an asymmetric top.
 Rotational symmetry number  1.
 Rotational temperatures (Kelvin)      1.16336     0.04494     0.04376
 Rotational constants (GHZ):          24.24043     0.93644     0.91171
 Zero-point vibrational energy     171969.2 (Joules/Mol)
                                   41.10163 (Kcal/Mol)
 Warning -- explicit consideration of   7 degrees of freedom as
           vibrations may cause significant error
 Vibrational temperatures:    117.58   159.72   299.70   340.60   453.02
          (Kelvin)            827.94   828.24  1351.91  1393.77  1450.26
                             1733.96  1835.74  2075.27  2144.40  2202.53
                             2220.41  4335.32  4342.83  4387.11  4417.48
                             4448.42

 Zero-point correction=                           0.065500 (Hartree/Particle)
 Thermal correction to Energy=                    0.071791
 Thermal correction to Enthalpy=                  0.072736
 Thermal correction to Gibbs Free Energy=         0.034045
 Sum of electronic and zero-point Energies=          -2851.025238
 Sum of electronic and thermal Energies=             -2851.018947
 Sum of electronic and thermal Enthalpies=           -2851.018003
 Sum of electronic and thermal Free Energies=        -2851.056693

                     E (Thermal)             CV                S
                      KCal/Mol        Cal/Mol-Kelvin    Cal/Mol-Kelvin
 Total                   45.050             19.182             81.431
 Electronic               0.000              0.000              0.000
 Translational            0.889              2.981             40.544
 Rotational               0.889              2.981             27.143
 Vibrational             43.272             13.221             13.744
 Vibration     1          0.600              1.962              3.849
 Vibration     2          0.607              1.940              3.251
 Vibration     3          0.642              1.828              2.058
 Vibration     4          0.656              1.784              1.827
 Vibration     5          0.702              1.645              1.337
 Vibration     6          0.932              1.084              0.494
 Vibration     7          0.932              1.084              0.493

 Optimization completed.
    -- Stationary point found.
 Normal termination of Gaussian 09 at Tue Oct  5 16:48:54 2021.
 Gaussian 09:  AM64L-G09RevA.02 11-Jun-2009

 ----------------------------------------------------------------------
 #p TD(NStates=10, Root=1) b3lyp/6-31G* volume pop=NPA density=current
 Geom=AllCheck Guess=Read
 ----------------------------------------------------------------------

 CC[Mg]Br_conf_0
 ---------------
 Redundant internal coordinates taken from checkpoint file:
 C2H5BrMg_bcba_conf_0.chk
 Charge =  0 Multiplicity = 1

                         Standard orientation:
 ---------------------------------------------------------------------
 Center     Atomic      Atomic             Coordinates (Angstroms)
 Number     Number       Type             X           Y           Z
 ---------------------------------------------------------------------
      1          6           0       -3.550068   -0.624365    0.000009
      2          6           0       -2.639678    0.619339    0.000074
      3         12           0       -0.572408    0.257594   -0.000103
      4         35           0        1.746537   -0.076829    0.000018
      5          1           0       -4.615999   -0.353199    0.000034
      6          1           0       -3.383453   -1.255933    0.881810
      7          1           0       -3.383468   -1.255831   -0.881869
      8          1           0       -2.869280    1.246484    0.873808
      9          1           0       -2.869226    1.246521   -0.873658
 ---------------------------------------------------------------------

 SCF Done:  E(RB3LYP) =  -2851.09073810     A.U. after    1 cycles

 Excitation energies and oscillator strengths:

 Excited State   1:      Singlet-A      5.0797 eV  244.08 nm  f=0.2573  <S**2>=0.000
      32 -> 33         0.68956
      32 -> 34        -0.10400
 This state for optimization and/or second-order correction.
 Total Energy, E(TD-HF/TD-KS) =  -2850.90406163
 Copying the excited state density for this state as the 1-particle RhoCI density.

 Excited State   2:      Singlet-A      5.3147 eV  233.28 nm  f=0.0303  <S**2>=0.000
      30 -> 33        -0.30024
      32 -> 34         0.63102

 Excited State   3:      Singlet-A      5.3494 eV  231.77 nm  f=0.0023  <S**2>=0.000
      31 -> 33        -0.39500
      32 -> 35         0.58463

 Excited State   4:      Singlet-A      5.4653 eV  226.86 nm  f=0.0839  <S**2>=0.000
      30 -> 33         0.63845
      32 -> 34         0.29719

 Excited State   5:      Singlet-A      5.4759 eV  226.42 nm  f=0.0821  <S**2>=0.000
      31 -> 33         0.58478
      32 -> 35         0.39419

 Excited State   6:      Singlet-A      6.1910 eV  200.26 nm  f=0.0002  <S**2>=0.000
      30 -> 35        -0.10227
      31 -> 34         0.69863

 Excited State   7:      Singlet-A      6.2281 eV  199.07 nm  f=0.0007  <S**2>=0.000
      30 -> 34         0.53196
      31 -> 35        -0.46394

 Excited State   8:      Singlet-A      6.2515 eV  198.33 nm  f=0.0000  <S**2>=0.000
      30 -> 35         0.69879
      31 -> 34         0.10244

 Excited State   9:      Singlet-A      6.5343 eV  189.74 nm  f=0.0205  <S**2>=0.000
      29 -> 33         0.44515
      30 -> 34         0.34387
      31 -> 35         0.41786

 Excited State  10:      Singlet-A      7.1489 eV  173.43 nm  f=0.0035  <S**2>=0.000
      28 -> 33         0.70425

 The electronic state is 1-A.
 Alpha  occ. eigenvalues -- -482.87462 -61.83713 -56.35402 -56.35282 -56.35281
 Alpha  occ. eigenvalues --  -46.83524 -10.17879 -10.16388  -8.54618  -6.49347
 Alpha  occ. eigenvalues --   -6.48961  -6.48959  -3.12407  -2.61025  -2.60903
 Alpha  occ. eigenvalues --   -2.60902  -2.60595  -2.60595  -1.87012  -1.87001
 Alpha  occ. eigenvalues --   -1.86361  -0.73579  -0.72100  -0.59639  -0.42925
 Alpha  occ. eigenvalues --   -0.40741  -0.35878  -0.34053  -0.32375  -0.27657
 Alpha  occ. eigenvalues --   -0.27652  -0.24287
 Alpha virt. eigenvalues --   -0.04162  -0.01340  -0.01092   0.05597   0.11672
 Alpha virt. eigenvalues --    0.12762   0.13108   0.16242   0.17703   0.18836
 Alpha virt. eigenvalues --    0.19413   0.21255   0.24435   0.27755   0.28051

 Mulliken atomic charges:
              1
     1  C   -0.463427
     2  C   -0.459404
     3  Mg   0.098092
     4  Br  -0.176458
     5  H    0.214326
     6  H    0.195620
     7  H    0.195670
     8  H    0.197743
     9  H    0.197839
 Sum of Mulliken atomic charges =   0.00000

 Dipole moment (field-independent basis, Debye):
    X=             -5.8808    Y=              1.5990    Z=              0.0080  Tot=              6.0943
 Quadrupole moment (field-independent basis, Debye-Ang):
   XX=            -36.0995   YY=            -45.4455   ZZ=            -46.7193
   XY=             -0.5466   XZ=             -0.0055   YZ=             -0.0005

 Summary of Natural Population Analysis:

                                       Natural Population
                Natural  -----------------------------------------------
    Atom  No    Charge         Core      Valence    Rydberg      Total
 -----------------------------------------------------------------------
      C    1   -0.72092      1.99947     4.71347    0.00797     6.72092
      C    2   -0.81005      1.99940     4.77508    0.03557     6.81005
     Mg    3    0.86546      9.99598     1.08808    0.05049    11.13454
     Br    4   -0.59391     27.99971     7.58229    0.01190    35.59391
      H    5    0.29749      0.00000     0.70171    0.00080     0.70251
      H    6    0.24950      0.00000     0.74751    0.00299     0.75050
      H    7    0.24951      0.00000     0.74749    0.00300     0.75049
      H    8    0.23143      0.00000     0.76613    0.00244     0.76857
      H    9    0.23149      0.00000     0.76607    0.00244     0.76851
 =======================================================================
   * Total *   -0.00000     41.99456    21.88783    0.11761    64.00000

 Normal termination of Gaussian 09 at Tue Oct  5 16:51:48 2021.
