 Gaussian 09, Revision A.02,

 -----------------------------------
 #p opt b3lyp/6-31G* scf=(xqc,tight)
 -----------------------------------

 --------------
 c1ncco1_conf_0
 --------------
 Symbolic Z-matrix:
 Charge =  0 Multiplicity = 1

 SCF Done:  E(RB3LYP) =  -246.068854742     A.U. after   14 cycles
 SCF Done:  E(RB3LYP) =  -246.069661937     A.U. after   15 cycles
 SCF Done:  E(RB3LYP) =  -246.069858523     A.U. after   13 cycles
 SCF Done:  E(RB3LYP) =  -246.069872212     A.U. after   13 cycles
 Optimization completed.
    -- Stationary point found.
 Normal termination of Gaussian 09 at Mon Oct  4 21:31:59 2021.

 ----------------------------------------------------------------------
 #p freq b3lyp/6-31G* volume NMR pop=NPA density=current Geom=AllCheck
 Guess=Read
 ----------------------------------------------------------------------

 c1ncco1_conf_0
 --------------
 Redundant internal coordinates taken from checkpoint file:
 C3H3NO_3c44_conf_0.chk
 Charge =  0 Multiplicity = 1

 SCF Done:  E(RB3LYP) =  -246.069872212     A.U. after    1 cycles

  1  C    Isotropic =    47.7992   Anisotropy =    80.2752

  2  N    Isotropic =    -2.5571   Anisotropy =   373.0684

  3  C    Isotropic =    68.1802   Anisotropy =   104.7264

  4  C    Isotropic =    58.4448   Anisotropy =   100.8849

  5  O    Isotropic =    30.7840   Anisotropy =   285.2243

  6  H    Isotropic =    24.7337   Anisotropy =     3.5843

  7  H    Isotropic =    25.2893   Anisotropy =     2.8957

  8  H    Isotropic =    24.9044   Anisotropy =     2.3246

  Exact polarizability:  44.129  -0.373  38.680  -0.001  -0.002  16.766
 Approx polarizability:  66.812   0.082  71.237  -0.002  -0.004  24.950

                     1                      2                      3
                     A                      A                      A
 Frequencies --   626.9173               666.3838               754.2985
 Red. masses --     3.5289                 3.0822                 1.2707
 Frc consts  --     0.8172                 0.8064                 0.4260
 IR Inten    --     4.0797                23.0797                22.7867

                     4                      5                      6
                     A                      A                      A
 Frequencies --   826.9287               865.4683               915.5883
 Red. masses --     1.4633                 1.3361                 6.8035
 Frc consts  --     0.5895                 0.5896                 3.3603
 IR Inten    --    20.0734                 2.7556                20.1674

                     7                      8                      9
                     A                      A                      A
 Frequencies --   927.7231              1082.5344              1111.3140
 Red. masses --     5.5489                 2.2787                 2.4880
 Frc consts  --     2.8138                 1.5734                 1.8104
 IR Inten    --    15.9751                34.8284                 7.3142

                    10                     11                     12
                     A                      A                      A
 Frequencies --  1133.7095              1179.1271              1285.0503
 Red. masses --     5.2020                 2.0092                 1.1812
 Frc consts  --     3.9393                 1.6459                 1.1492
 IR Inten    --    11.1170                20.9659                 0.1902

                    13                     14                     15
                     A                      A                      A
 Frequencies --  1373.3207              1544.6553              1593.2460
 Red. masses --     2.4229                 4.1563                 5.1423
 Frc consts  --     2.6924                 5.8428                 7.6909
 IR Inten    --     4.6296                25.5827                13.4380

                    16                     17                     18
                     A                      A                      A
 Frequencies --  3282.1149              3300.1812              3322.4205
 Red. masses --     1.0933                 1.0979                 1.1061
 Frc consts  --     6.9392                 7.0448                 7.1937
 IR Inten    --     3.3621                 0.4207                 0.6463

 - Thermochemistry -
 -------------------
 Temperature   298.150 Kelvin.  Pressure   1.00000 Atm.
 Atom     1 has atomic number  6 and mass  12.00000

 Molecular mass:    69.02146 amu.
 Principal axes and moments of inertia in atomic units:
                           1         2         3
     Eigenvalues --   179.05023 187.13762 366.18784
           X           -0.11005   0.99393  -0.00000
           Y            0.99393   0.11005  -0.00001
           Z            0.00001   0.00000   1.00000
 This molecule is an asymmetric top.
 Rotational symmetry number  1.
 Rotational temperatures (Kelvin)      0.48374     0.46283     0.23653
 Rotational constants (GHZ):          10.07952     9.64393     4.92846
 Zero-point vibrational energy     154264.3 (Joules/Mol)
                                   36.87006 (Kcal/Mol)
 Vibrational temperatures:    901.99   958.78  1085.27  1189.76  1245.21
          (Kelvin)           1317.33  1334.78  1557.52  1598.93  1631.15
                             1696.50  1848.90  1975.90  2222.41  2292.32
                             4722.23  4748.22  4780.22

 Zero-point correction=                           0.058756 (Hartree/Particle)
 Thermal correction to Energy=                    0.062304
 Thermal correction to Enthalpy=                  0.063248
 Thermal correction to Gibbs Free Energy=         0.032587
 Sum of electronic and zero-point Energies=           -246.011116
 Sum of electronic and thermal Energies=              -246.007568
 Sum of electronic and thermal Enthalpies=            -246.006624
 Sum of electronic and thermal Free Energies=         -246.037285

                     E (Thermal)             CV                S
                      KCal/Mol        Cal/Mol-Kelvin    Cal/Mol-Kelvin
 Total                   39.096             12.086             64.532
 Electronic               0.000              0.000              0.000
 Translational            0.889              2.981             38.613
 Rotational               0.889              2.981             24.021
 Vibrational             37.319              6.124              1.898

 Optimization completed.
    -- Stationary point found.
 Normal termination of Gaussian 09 at Mon Oct  4 21:37:19 2021.
 Gaussian 09:  AM64L-G09RevA.02 11-Jun-2009

 ----------------------------------------------------------------------
 #p TD(NStates=10, Root=1) b3lyp/6-31G* volume pop=NPA density=current
 Geom=AllCheck Guess=Read
 ----------------------------------------------------------------------

 c1ncco1_conf_0
 --------------
 Redundant internal coordinates taken from checkpoint file:
 C3H3NO_3c44_conf_0.chk
 Charge =  0 Multiplicity = 1

                         Standard orientation:
 ---------------------------------------------------------------------
 Center     Atomic      Atomic             Coordinates (Angstroms)
 Number     Number       Type             X           Y           Z
 ---------------------------------------------------------------------
      1          6           0       -1.099977    0.045307    0.000140
      2          7           0       -0.417265    1.144562   -0.000052
      3          6           0        0.907307    0.717668   -0.000027
      4          6           0        0.940350   -0.637961    0.000112
      5          8           0       -0.354433   -1.088844   -0.000146
      6          1           0       -2.172984   -0.080181    0.000108
      7          1           0        1.729905    1.418385   -0.000090
      8          1           0        1.713317   -1.389463    0.000154
 ---------------------------------------------------------------------

 SCF Done:  E(RB3LYP) =  -246.069872212     A.U. after    1 cycles

 Excitation energies and oscillator strengths:

 Excited State   1:      Singlet-A      6.4273 eV  192.90 nm  f=0.0026  <S**2>=0.000
      17 -> 19         0.70497
 This state for optimization and/or second-order correction.
 Total Energy, E(TD-HF/TD-KS) =  -245.833674289
 Copying the excited state density for this state as the 1-particle RhoCI density.

 Excited State   2:      Singlet-A      6.5525 eV  189.22 nm  f=0.1209  <S**2>=0.000
      18 -> 19         0.68249
      18 -> 20         0.14855

 Excited State   3:      Singlet-A      7.4803 eV  165.75 nm  f=0.0217  <S**2>=0.000
      16 -> 19         0.44989
      18 -> 19        -0.15784
      18 -> 20         0.51687

 Excited State   4:      Singlet-A      7.9243 eV  156.46 nm  f=0.0105  <S**2>=0.000
      17 -> 20         0.70405

 Excited State   5:      Singlet-A      8.9508 eV  138.52 nm  f=0.0001  <S**2>=0.000
      18 -> 21         0.68955
      18 -> 22         0.12877

 Excited State   6:      Singlet-A      8.9587 eV  138.39 nm  f=0.2872  <S**2>=0.000
      16 -> 19         0.49811
      16 -> 20        -0.16656
      17 -> 25         0.12784
      18 -> 20        -0.43221

 Excited State   7:      Singlet-A      9.1280 eV  135.83 nm  f=0.0008  <S**2>=0.000
      18 -> 21        -0.11826
      18 -> 22         0.64578
      18 -> 23         0.22451
      18 -> 24         0.12342

 Excited State   8:      Singlet-A      9.2474 eV  134.08 nm  f=0.0025  <S**2>=0.000
      15 -> 19         0.68868
      18 -> 23        -0.12695

 Excited State   9:      Singlet-A      9.5100 eV  130.37 nm  f=0.0000  <S**2>=0.000
      15 -> 19         0.13227
      18 -> 22        -0.21897
      18 -> 23         0.65110

 Excited State  10:      Singlet-A      9.6388 eV  128.63 nm  f=0.0456  <S**2>=0.000
      16 -> 19         0.11380
      16 -> 20         0.63702
      17 -> 22         0.20852

 The electronic state is 1-A.
 Alpha  occ. eigenvalues --  -19.23245 -14.33493 -10.27490 -10.24849 -10.21814
 Alpha  occ. eigenvalues --   -1.13510  -0.92166  -0.76817  -0.62788  -0.60218
 Alpha  occ. eigenvalues --   -0.54615  -0.47159  -0.46243  -0.42952  -0.40032
 Alpha  occ. eigenvalues --   -0.32192  -0.29139  -0.25181
 Alpha virt. eigenvalues --   -0.00033   0.05502   0.11797   0.13630   0.13991
 Alpha virt. eigenvalues --    0.17641   0.20223   0.28888   0.33906   0.42161
 Alpha virt. eigenvalues --    0.49440   0.51461   0.56105   0.56656   0.59941

 Mulliken atomic charges:
              1
     1  C    0.202348
     2  N   -0.273288
     3  C   -0.023665
     4  C   -0.003412
     5  O   -0.389873
     6  H    0.164561
     7  H    0.163223
     8  H    0.160107
 Sum of Mulliken atomic charges =  -0.00000

 Dipole moment (field-independent basis, Debye):
    X=              0.2518    Y=              1.0395    Z=             -0.0002  Tot=              1.0696
 Quadrupole moment (field-independent basis, Debye-Ang):
   XX=            -23.5935   YY=            -27.0806   ZZ=            -30.7261
   XY=             -0.6819   XZ=             -0.0000   YZ=              0.0002

 Summary of Natural Population Analysis:

                                       Natural Population
                Natural  -----------------------------------------------
    Atom  No    Charge         Core      Valence    Rydberg      Total
 -----------------------------------------------------------------------
      C    1    0.11608      1.99934     3.84638    0.03821     5.88392
      N    2   -0.09316      1.99877     5.08255    0.01184     7.09316
      C    3   -0.19680      1.99903     4.17801    0.01976     6.19680
      C    4   -0.07319      1.99903     4.04717    0.02700     6.07319
      O    5   -0.45136      1.99979     6.43852    0.01304     8.45136
      H    6    0.21752      0.00000     0.78218    0.00030     0.78248
      H    7    0.24680      0.00000     0.75288    0.00032     0.75320
      H    8    0.23401      0.00000     0.76585    0.00015     0.76599
 =======================================================================
   * Total *   -0.00011      9.99595    25.89354    0.11062    36.00011

 Normal termination of Gaussian 09 at Mon Oct  4 21:51:32 2021.
