 Gaussian 09, Revision A.02,

 -----------------------------------
 #p opt b3lyp/6-31G* scf=(xqc,tight)
 -----------------------------------

 --------------
 CCN=C=O_conf_0
 --------------
 Symbolic Z-matrix:
 Charge =  0 Multiplicity = 1

 SCF Done:  E(RB3LYP) =  -247.293047721     A.U. after   14 cycles
 SCF Done:  E(RB3LYP) =  -247.302518077     A.U. after   14 cycles
 SCF Done:  E(RB3LYP) =  -247.302319047     A.U. after   13 cycles
 SCF Done:  E(RB3LYP) =  -247.303676924     A.U. after   13 cycles
 SCF Done:  E(RB3LYP) =  -247.304547190     A.U. after   12 cycles
 SCF Done:  E(RB3LYP) =  -247.305250189     A.U. after   15 cycles
 SCF Done:  E(RB3LYP) =  -247.305357752     A.U. after   12 cycles
 SCF Done:  E(RB3LYP) =  -247.305373155     A.U. after   10 cycles
 SCF Done:  E(RB3LYP) =  -247.305385266     A.U. after   10 cycles
 SCF Done:  E(RB3LYP) =  -247.305416879     A.U. after   14 cycles
 SCF Done:  E(RB3LYP) =  -247.305497215     A.U. after   13 cycles
 SCF Done:  E(RB3LYP) =  -247.305534592     A.U. after   12 cycles
 SCF Done:  E(RB3LYP) =  -247.305553330     A.U. after    9 cycles
 SCF Done:  E(RB3LYP) =  -247.305554009     A.U. after   10 cycles
 SCF Done:  E(RB3LYP) =  -247.305554156     A.U. after    7 cycles
 SCF Done:  E(RB3LYP) =  -247.305554255     A.U. after    7 cycles
 Optimization completed.
    -- Stationary point found.
 Normal termination of Gaussian 09 at Mon Oct  4 03:12:54 2021.

 ----------------------------------------------------------------------
 #p freq b3lyp/6-31G* volume NMR pop=NPA density=current Geom=AllCheck
 Guess=Read
 ----------------------------------------------------------------------

 CCN=C=O_conf_0
 --------------
 Redundant internal coordinates taken from checkpoint file:
 C3H5NO_75da_conf_0.chk
 Charge =  0 Multiplicity = 1

 SCF Done:  E(RB3LYP) =  -247.305554255     A.U. after    1 cycles

  1  C    Isotropic =   170.3787   Anisotropy =    27.7000

  2  C    Isotropic =   151.1124   Anisotropy =    39.8631

  3  N    Isotropic =   220.9209   Anisotropy =   171.1204

  4  C    Isotropic =    77.6714   Anisotropy =   291.2300

  5  O    Isotropic =   200.4378   Anisotropy =   257.7551

  6  H    Isotropic =    31.1287   Anisotropy =     9.3223

  7  H    Isotropic =    30.6937   Anisotropy =     6.8498

  8  H    Isotropic =    30.9122   Anisotropy =     6.4609

  9  H    Isotropic =    29.3999   Anisotropy =     8.3175

 10  H    Isotropic =    28.6178   Anisotropy =     7.6038

  Exact polarizability:  54.736   7.144  33.014   1.251   0.702  28.624
 Approx polarizability:  84.238  21.746  49.474   5.327   3.857  39.684

                     1                      2                      3
                     A                      A                      A
 Frequencies --    36.5789               134.1025               278.0959
 Red. masses --     3.1722                 3.2140                 1.1636
 Frc consts  --     0.0025                 0.0341                 0.0530
 IR Inten    --     1.8614                 7.8417                 2.6812

                     4                      5                      6
                     A                      A                      A
 Frequencies --   416.7426               569.0826               623.5949
 Red. masses --     3.3484                12.5436                 9.2567
 Frc consts  --     0.3426                 2.3935                 2.1209
 IR Inten    --     4.6678                24.4652                26.5337

                     7                      8                      9
                     A                      A                      A
 Frequencies --   809.0716               815.5431               998.6439
 Red. masses --     1.3546                 2.2836                 2.6730
 Frc consts  --     0.5224                 0.8949                 1.5706
 IR Inten    --    10.6114                11.6692                18.7019

                    10                     11                     12
                     A                      A                      A
 Frequencies --  1113.1091              1174.2213              1322.5398
 Red. masses --     1.8361                 1.5133                 1.1088
 Frc consts  --     1.3403                 1.2294                 1.1427
 IR Inten    --    12.4900                13.5833                 8.6140

                    13                     14                     15
                     A                      A                      A
 Frequencies --  1402.0277              1438.3096              1492.5560
 Red. masses --     1.3313                 1.2677                 4.0731
 Frc consts  --     1.5418                 1.5451                 5.3461
 IR Inten    --    42.6991                 7.1764                 8.3263

                    16                     17                     18
                     A                      A                      A
 Frequencies --  1519.3878              1530.3864              1547.3325
 Red. masses --     1.0410                 1.1282                 1.1258
 Frc consts  --     1.4159                 1.5568                 1.5881
 IR Inten    --     6.8693                 0.6778                 2.4871

                    19                     20                     21
                     A                      A                      A
 Frequencies --  2384.4562              3052.2572              3057.0389
 Red. masses --    12.3814                 1.0673                 1.0352
 Frc consts  --    41.4760                 5.8585                 5.6998
 IR Inten    --   945.1347                37.9506                14.6052

                    22                     23                     24
                     A                      A                      A
 Frequencies --  3100.5782              3129.2355              3138.5616
 Red. masses --     1.0985                 1.1021                 1.1042
 Frc consts  --     6.2223                 6.3586                 6.4086
 IR Inten    --     9.2434                36.1471                30.1350

 - Thermochemistry -
 -------------------
 Temperature   298.150 Kelvin.  Pressure   1.00000 Atm.
 Atom     1 has atomic number  6 and mass  12.00000

 Molecular mass:    71.03711 amu.
 Principal axes and moments of inertia in atomic units:
                           1         2         3
     Eigenvalues --   113.88486 646.50990 728.93647
           X            0.99986  -0.01687  -0.00180
           Y            0.01682   0.99951  -0.02646
           Z            0.00225   0.02642   0.99965
 This molecule is an asymmetric top.
 Rotational symmetry number  1.
 Rotational temperatures (Kelvin)      0.76054     0.13397     0.11882
 Rotational constants (GHZ):          15.84707     2.79151     2.47586
 Zero-point vibrational energy     209845.7 (Joules/Mol)
                                   50.15431 (Kcal/Mol)
 Warning -- explicit consideration of   5 degrees of freedom as
           vibrations may cause significant error
 Vibrational temperatures:     52.63   192.94   400.12   599.60   818.78
          (Kelvin)            897.21  1164.07  1173.38  1436.82  1601.51
                             1689.44  1902.84  2017.20  2069.40  2147.45
                             2186.06  2201.88  2226.26  3430.70  4391.51
                             4398.39  4461.03  4502.27  4515.68

 Zero-point correction=                           0.079926 (Hartree/Particle)
 Thermal correction to Energy=                    0.085631
 Thermal correction to Enthalpy=                  0.086576
 Thermal correction to Gibbs Free Energy=         0.050195
 Sum of electronic and zero-point Energies=           -247.225628
 Sum of electronic and thermal Energies=              -247.219923
 Sum of electronic and thermal Enthalpies=            -247.218979
 Sum of electronic and thermal Free Energies=         -247.255359

                     E (Thermal)             CV                S
                      KCal/Mol        Cal/Mol-Kelvin    Cal/Mol-Kelvin
 Total                   53.734             17.839             76.569
 Electronic               0.000              0.000              0.000
 Translational            0.889              2.981             38.699
 Rotational               0.889              2.981             25.487
 Vibrational             51.957             11.877             12.383
 Vibration     1          0.594              1.982              5.436
 Vibration     2          0.613              1.919              2.886
 Vibration     3          0.679              1.714              1.545
 Vibration     4          0.780              1.434              0.903
 Vibration     5          0.925              1.098              0.506

 Optimization completed.
    -- Stationary point found.
 Normal termination of Gaussian 09 at Mon Oct  4 03:30:36 2021.
 Gaussian 09:  AM64L-G09RevA.02 11-Jun-2009

 ----------------------------------------------------------------------
 #p TD(NStates=10, Root=1) b3lyp/6-31G* volume pop=NPA density=current
 Geom=AllCheck Guess=Read
 ----------------------------------------------------------------------

 CCN=C=O_conf_0
 --------------
 Redundant internal coordinates taken from checkpoint file:
 C3H5NO_75da_conf_0.chk
 Charge =  0 Multiplicity = 1

                         Standard orientation:
 ---------------------------------------------------------------------
 Center     Atomic      Atomic             Coordinates (Angstroms)
 Number     Number       Type             X           Y           Z
 ---------------------------------------------------------------------
      1          6           0       -1.824096    0.757026   -0.041162
      2          6           0       -1.195968   -0.623978    0.152823
      3          7           0        0.198674   -0.672978   -0.233775
      4          6           0        1.224841   -0.073139   -0.027726
      5          8           0        2.293799    0.418949    0.081486
      6          1           0       -2.884776    0.728017    0.232200
      7          1           0       -1.744501    1.076709   -1.084934
      8          1           0       -1.328513    1.504876    0.587458
      9          1           0       -1.724626   -1.366462   -0.452682
     10          1           0       -1.287357   -0.943343    1.198877
 ---------------------------------------------------------------------

 SCF Done:  E(RB3LYP) =  -247.305554255     A.U. after    1 cycles

 Excitation energies and oscillator strengths:

 Excited State   1:      Singlet-A      6.4197 eV  193.13 nm  f=0.0002  <S**2>=0.000
      19 -> 20         0.69864
 This state for optimization and/or second-order correction.
 Total Energy, E(TD-HF/TD-KS) =  -247.069633431
 Copying the excited state density for this state as the 1-particle RhoCI density.

 Excited State   2:      Singlet-A      7.2498 eV  171.02 nm  f=0.0075  <S**2>=0.000
      18 -> 20         0.55015
      19 -> 21        -0.43274

 Excited State   3:      Singlet-A      7.9037 eV  156.87 nm  f=0.0004  <S**2>=0.000
      18 -> 21         0.69093

 Excited State   4:      Singlet-A      8.9833 eV  138.02 nm  f=0.0750  <S**2>=0.000
      18 -> 20         0.15421
      19 -> 21         0.29600
      19 -> 22         0.59485
      19 -> 23        -0.11346

 Excited State   5:      Singlet-A      9.3702 eV  132.32 nm  f=0.0077  <S**2>=0.000
      17 -> 20         0.10628
      18 -> 20         0.15161
      18 -> 22         0.59870
      19 -> 21         0.14120
      19 -> 22        -0.18451
      19 -> 23         0.15426

 Excited State   6:      Singlet-A      9.5919 eV  129.26 nm  f=0.0236  <S**2>=0.000
      17 -> 20         0.11050
      18 -> 22        -0.18404
      19 -> 23         0.62279
      19 -> 25        -0.17703

 Excited State   7:      Singlet-A      9.7419 eV  127.27 nm  f=0.1043  <S**2>=0.000
      17 -> 20         0.47297
      18 -> 20         0.17016
      18 -> 22        -0.13276
      18 -> 23         0.31479
      18 -> 25        -0.11423
      19 -> 21         0.16501
      19 -> 22        -0.19357
      19 -> 23        -0.19158

 Excited State   8:      Singlet-A      9.9481 eV  124.63 nm  f=0.0161  <S**2>=0.000
      15 -> 20        -0.15313
      16 -> 20         0.11753
      17 -> 20        -0.41313
      18 -> 23         0.46885
      18 -> 25        -0.17595

 Excited State   9:      Singlet-A     10.1673 eV  121.94 nm  f=0.1295  <S**2>=0.000
      15 -> 20        -0.23889
      16 -> 20         0.46672
      18 -> 20         0.11955
      18 -> 22        -0.17613
      18 -> 23        -0.27888
      19 -> 21         0.15897
      19 -> 24        -0.12555
      19 -> 25        -0.14114

 Excited State  10:      Singlet-A     10.2216 eV  121.30 nm  f=0.0379  <S**2>=0.000
      19 -> 24         0.67512
      19 -> 25        -0.13721

 The electronic state is 1-A.
 Alpha  occ. eigenvalues --  -19.18578 -14.35614 -10.31769 -10.24961 -10.19598
 Alpha  occ. eigenvalues --   -1.08778  -0.94796  -0.78187  -0.66846  -0.52901
 Alpha  occ. eigenvalues --   -0.48764  -0.48691  -0.45657  -0.43273  -0.41423
 Alpha  occ. eigenvalues --   -0.39186  -0.37748  -0.28883  -0.27502
 Alpha virt. eigenvalues --    0.02523   0.06193   0.09858   0.12659   0.13604
 Alpha virt. eigenvalues --    0.14754   0.15960   0.17819   0.23562   0.25307
 Alpha virt. eigenvalues --    0.41663   0.47619   0.48890   0.51150   0.53178

 Mulliken atomic charges:
              1
     1  C   -0.464239
     2  C   -0.130249
     3  N   -0.274708
     4  C    0.370124
     5  O   -0.333081
     6  H    0.162975
     7  H    0.164583
     8  H    0.165251
     9  H    0.170303
    10  H    0.169041
 Sum of Mulliken atomic charges =  -0.00000

 Dipole moment (field-independent basis, Debye):
    X=             -3.0656    Y=             -0.3358    Z=              0.3702  Tot=              3.1061
 Quadrupole moment (field-independent basis, Debye-Ang):
   XX=            -31.9257   YY=            -29.9620   ZZ=            -28.7296
   XY=             -0.7095   XZ=             -0.3059   YZ=             -1.5740

 Summary of Natural Population Analysis:

                                       Natural Population
                Natural  -----------------------------------------------
    Atom  No    Charge         Core      Valence    Rydberg      Total
 -----------------------------------------------------------------------
      C    1   -0.69583      1.99943     4.68642    0.00999     6.69583
      C    2   -0.29538      1.99928     4.28099    0.01511     6.29538
      N    3   -0.30385      1.99928     5.27183    0.03274     7.30385
      C    4    0.45961      1.99938     3.48531    0.05571     5.54039
      O    5   -0.37682      1.99982     6.36007    0.01693     8.37682
      H    6    0.24544      0.00000     0.75380    0.00076     0.75456
      H    7    0.23638      0.00000     0.76101    0.00261     0.76362
      H    8    0.23578      0.00000     0.75957    0.00466     0.76422
      H    9    0.24269      0.00000     0.75468    0.00263     0.75731
      H   10    0.25200      0.00000     0.74065    0.00735     0.74800
 =======================================================================
   * Total *    0.00000      9.99719    27.85432    0.14849    38.00000

 Normal termination of Gaussian 09 at Mon Oct  4 04:13:00 2021.
