 Gaussian 09, Revision A.02,

 -----------------------------------
 #p opt b3lyp/6-31G* scf=(xqc,tight)
 -----------------------------------

 ----------------
 [Li]C1CC1_conf_0
 ----------------
 Symbolic Z-matrix:
 Charge =  0 Multiplicity = 1

 SCF Done:  E(RB3LYP) =  -124.745045353     A.U. after   13 cycles
 SCF Done:  E(RB3LYP) =  -124.759116122     A.U. after   10 cycles
 SCF Done:  E(RB3LYP) =  -124.772535464     A.U. after   11 cycles
 SCF Done:  E(RB3LYP) =  -124.776277982     A.U. after   10 cycles
 SCF Done:  E(RB3LYP) =  -124.776691372     A.U. after   10 cycles
 SCF Done:  E(RB3LYP) =  -124.776902563     A.U. after   10 cycles
 SCF Done:  E(RB3LYP) =  -124.777402932     A.U. after   11 cycles
 SCF Done:  E(RB3LYP) =  -124.777662920     A.U. after   10 cycles
 SCF Done:  E(RB3LYP) =  -124.777986460     A.U. after    9 cycles
 SCF Done:  E(RB3LYP) =  -124.778115094     A.U. after   13 cycles
 SCF Done:  E(RB3LYP) =  -124.778179170     A.U. after   13 cycles
 SCF Done:  E(RB3LYP) =  -124.778182838     A.U. after    8 cycles
 SCF Done:  E(RB3LYP) =  -124.778184740     A.U. after    8 cycles
 SCF Done:  E(RB3LYP) =  -124.778185459     A.U. after    8 cycles
 SCF Done:  E(RB3LYP) =  -124.778186296     A.U. after    8 cycles
 SCF Done:  E(RB3LYP) =  -124.778186592     A.U. after    8 cycles
 Optimization completed.
    -- Stationary point found.
 Normal termination of Gaussian 09 at Sun Oct  3 01:30:28 2021.

 ----------------------------------------------------------------------
 #p freq b3lyp/6-31G* volume NMR pop=NPA density=current Geom=AllCheck
 Guess=Read
 ----------------------------------------------------------------------

 [Li]C1CC1_conf_0
 ----------------
 Redundant internal coordinates taken from checkpoint file:
 C3H5Li_713d_conf_0.chk
 Charge =  0 Multiplicity = 1

 SCF Done:  E(RB3LYP) =  -124.778186592     A.U. after    1 cycles

  1  Li   Isotropic =    91.3837   Anisotropy =    21.4344

  2  C    Isotropic =   194.3388   Anisotropy =    56.4011

  3  C    Isotropic =   185.2264   Anisotropy =    60.8814

  4  C    Isotropic =   185.2396   Anisotropy =    60.9052

  5  H    Isotropic =    33.6993   Anisotropy =    14.5112

  6  H    Isotropic =    31.7079   Anisotropy =    13.1278

  7  H    Isotropic =    31.9358   Anisotropy =    13.6810

  8  H    Isotropic =    31.7093   Anisotropy =    13.1313

  9  H    Isotropic =    31.9369   Anisotropy =    13.6808

  Exact polarizability:  69.232  -0.006  44.804  -1.605   0.011  41.944
 Approx polarizability:  76.046  -0.010  57.687  -0.393   0.002  55.617

                     1                      2                      3
                     A                      A                      A
 Frequencies --   138.7899               200.3554               609.4637
 Red. masses --     3.8178                 3.7546                 5.2152
 Frc consts  --     0.0433                 0.0888                 1.1413
 IR Inten    --   103.7191                91.6136                32.9837

                     4                      5                      6
                     A                      A                      A
 Frequencies --   791.4580               795.0288               816.5475
 Red. masses --     1.0561                 3.1206                 1.2713
 Frc consts  --     0.3898                 1.1621                 0.4994
 IR Inten    --    21.8254                 1.8025                14.7804

                     7                      8                      9
                     A                      A                      A
 Frequencies --   896.2974               976.4736              1054.2312
 Red. masses --     3.7958                 1.0853                 1.2617
 Frc consts  --     1.7966                 0.6097                 0.8262
 IR Inten    --    18.8278                14.0074                 7.3389

                    10                     11                     12
                     A                      A                      A
 Frequencies --  1066.3514              1152.7033              1213.9699
 Red. masses --     1.3666                 1.0359                 1.4448
 Frc consts  --     0.9156                 0.8110                 1.2545
 IR Inten    --     5.7085                 0.0000                 0.2672

                    13                     14                     15
                     A                      A                      A
 Frequencies --  1217.0421              1240.8625              1510.4961
 Red. masses --     3.7058                 1.3223                 1.0822
 Frc consts  --     3.2340                 1.1996                 1.4548
 IR Inten    --     2.0366                41.5905                 1.2307

                    16                     17                     18
                     A                      A                      A
 Frequencies --  1534.6800              3025.1631              3082.6502
 Red. masses --     1.2060                 1.0826                 1.0501
 Frc consts  --     1.6735                 5.8372                 5.8795
 IR Inten    --    10.0804                38.9921                63.2371

                    19                     20                     21
                     A                      A                      A
 Frequencies --  3088.6659              3141.0871              3159.1724
 Red. masses --     1.0590                 1.1155                 1.1143
 Frc consts  --     5.9523                 6.4846                 6.5523
 IR Inten    --    70.6687                 0.7430                75.4410

 - Thermochemistry -
 -------------------
 Temperature   298.150 Kelvin.  Pressure   1.00000 Atm.
 Atom     1 has atomic number  3 and mass   7.01600

 Molecular mass:    48.05513 amu.
 Principal axes and moments of inertia in atomic units:
                           1         2         3
     Eigenvalues --   102.96044 235.43108 274.76346
           X            0.99947   0.00004   0.03262
           Y           -0.00004   1.00000   0.00003
           Z           -0.03262  -0.00003   0.99947
 This molecule is an asymmetric top.
 Rotational symmetry number  1.
 Rotational temperatures (Kelvin)      0.84123     0.36789     0.31523
 Rotational constants (GHZ):          17.52849     7.66569     6.56834
 Zero-point vibrational energy     183695.5 (Joules/Mol)
                                   43.90428 (Kcal/Mol)
 Warning -- explicit consideration of   3 degrees of freedom as
           vibrations may cause significant error
 Vibrational temperatures:    199.69   288.27   876.88  1138.73  1143.87
          (Kelvin)           1174.83  1289.57  1404.93  1516.80  1534.24
                             1658.48  1746.63  1751.05  1785.32  2173.26
                             2208.06  4352.53  4435.24  4443.90  4519.32
                             4545.34

 Zero-point correction=                           0.069966 (Hartree/Particle)
 Thermal correction to Energy=                    0.074639
 Thermal correction to Enthalpy=                  0.075584
 Thermal correction to Gibbs Free Energy=         0.043499
 Sum of electronic and zero-point Energies=           -124.708221
 Sum of electronic and thermal Energies=              -124.703547
 Sum of electronic and thermal Enthalpies=            -124.702603
 Sum of electronic and thermal Free Energies=         -124.734687

                     E (Thermal)             CV                S
                      KCal/Mol        Cal/Mol-Kelvin    Cal/Mol-Kelvin
 Total                   46.837             15.162             67.527
 Electronic               0.000              0.000              0.000
 Translational            0.889              2.981             37.534
 Rotational               0.889              2.981             23.414
 Vibrational             45.059              9.201              6.579
 Vibration     1          0.614              1.915              2.820
 Vibration     2          0.638              1.839              2.130
 Vibration     3          0.968              1.012              0.434

 Optimization completed.
    -- Stationary point found.
 Normal termination of Gaussian 09 at Sun Oct  3 01:44:38 2021.
 Gaussian 09:  AM64L-G09RevA.02 11-Jun-2009

 ----------------------------------------------------------------------
 #p TD(NStates=10, Root=1) b3lyp/6-31G* volume pop=NPA density=current
 Geom=AllCheck Guess=Read
 ----------------------------------------------------------------------

 [Li]C1CC1_conf_0
 ----------------
 Redundant internal coordinates taken from checkpoint file:
 C3H5Li_713d_conf_0.chk
 Charge =  0 Multiplicity = 1

                         Standard orientation:
 ---------------------------------------------------------------------
 Center     Atomic      Atomic             Coordinates (Angstroms)
 Number     Number       Type             X           Y           Z
 ---------------------------------------------------------------------
      1          3           0        2.371339   -0.000113   -0.431608
      2          6           0        0.596310   -0.000401    0.402572
      3          6           0       -0.628936   -0.750319   -0.131787
      4          6           0       -0.628452    0.750653   -0.131625
      5          1           0        0.586132   -0.000256    1.499708
      6          1           0       -1.299825   -1.249250    0.568572
      7          1           0       -0.567915   -1.271223   -1.089006
      8          1           0       -1.298841    1.249575    0.569204
      9          1           0       -0.567097    1.271897   -1.088610
 ---------------------------------------------------------------------

 SCF Done:  E(RB3LYP) =  -124.778186592     A.U. after    1 cycles

 Excitation energies and oscillator strengths:

 Excited State   1:      Singlet-A      2.5321 eV  489.65 nm  f=0.0818  <S**2>=0.000
      13 -> 14         0.70577
 This state for optimization and/or second-order correction.
 Total Energy, E(TD-HF/TD-KS) =  -124.685133167
 Copying the excited state density for this state as the 1-particle RhoCI density.

 Excited State   2:      Singlet-A      3.7780 eV  328.18 nm  f=0.0555  <S**2>=0.000
      13 -> 15         0.70495

 Excited State   3:      Singlet-A      3.8224 eV  324.36 nm  f=0.0595  <S**2>=0.000
      12 -> 14         0.19235
      13 -> 16         0.67937

 Excited State   4:      Singlet-A      4.0281 eV  307.80 nm  f=0.0002  <S**2>=0.000
      12 -> 14         0.67932
      13 -> 16        -0.19258

 Excited State   5:      Singlet-A      4.6796 eV  264.94 nm  f=0.0044  <S**2>=0.000
      11 -> 14         0.70519

 Excited State   6:      Singlet-A      5.2357 eV  236.81 nm  f=0.0005  <S**2>=0.000
      13 -> 17         0.70428

 Excited State   7:      Singlet-A      5.4357 eV  228.09 nm  f=0.0019  <S**2>=0.000
      12 -> 15         0.70552

 Excited State   8:      Singlet-A      5.6021 eV  221.32 nm  f=0.0639  <S**2>=0.000
      12 -> 16         0.69719

 Excited State   9:      Singlet-A      6.1149 eV  202.76 nm  f=0.0289  <S**2>=0.000
      11 -> 15         0.69738

 Excited State  10:      Singlet-A      6.1417 eV  201.87 nm  f=0.0051  <S**2>=0.000
      11 -> 16         0.70544

 The electronic state is 1-A.
 Alpha  occ. eigenvalues --  -10.13647 -10.13621 -10.10094  -1.98489  -0.77625
 Alpha  occ. eigenvalues --   -0.54350  -0.51140  -0.42412  -0.37953  -0.31175
 Alpha  occ. eigenvalues --   -0.24601  -0.22457  -0.16697
 Alpha virt. eigenvalues --   -0.04645   0.00757   0.00983   0.06069   0.11609
 Alpha virt. eigenvalues --    0.12378   0.12704   0.16273   0.19660   0.20369
 Alpha virt. eigenvalues --    0.21796   0.26050   0.26737   0.29529   0.31020

 Mulliken atomic charges:
              1
     1  Li  -0.031718
     2  C   -0.333193
     3  C   -0.301057
     4  C   -0.301046
     5  H    0.193703
     6  H    0.184005
     7  H    0.202636
     8  H    0.184018
     9  H    0.202654
 Sum of Mulliken atomic charges =  -0.00000

 Dipole moment (field-independent basis, Debye):
    X=             -6.4294    Y=             -0.0021    Z=              2.6590  Tot=              6.9576
 Quadrupole moment (field-independent basis, Debye-Ang):
   XX=            -51.2185   YY=            -25.9465   ZZ=            -27.5957
   XY=             -0.0070   XZ=              9.1916   YZ=              0.0018

 Summary of Natural Population Analysis:

                                       Natural Population
                Natural  -----------------------------------------------
    Atom  No    Charge         Core      Valence    Rydberg      Total
 -----------------------------------------------------------------------
     Li    1    0.09384      1.99593     0.90421    0.00603     2.90616
      C    2   -0.41233      1.99904     4.38736    0.02594     6.41233
      C    3   -0.46643      1.99934     4.45535    0.01174     6.46643
      C    4   -0.46636      1.99934     4.45528    0.01174     6.46636
      H    5    0.21955      0.00000     0.78045    0.00000     0.78045
      H    6    0.24811      0.00000     0.75120    0.00070     0.75189
      H    7    0.25779      0.00000     0.74221    0.00000     0.74221
      H    8    0.24810      0.00000     0.75121    0.00070     0.75190
      H    9    0.25779      0.00000     0.74221    0.00000     0.74221
 =======================================================================
   * Total *   -0.01994      7.99364    17.96946    0.05684    26.01994

 Normal termination of Gaussian 09 at Sun Oct  3 02:21:35 2021.
