 Gaussian 09, Revision A.02,

 -----------------------------------
 #p opt b3lyp/6-31G* scf=(xqc,tight)
 -----------------------------------

 ----------------
 CCC[Mg]Br_conf_0
 ----------------
 Symbolic Z-matrix:
 Charge =  0 Multiplicity = 1

 SCF Done:  E(RB3LYP) =  -2890.36911655     A.U. after   14 cycles
 SCF Done:  E(RB3LYP) =  -2890.38284625     A.U. after   11 cycles
 SCF Done:  E(RB3LYP) =  -2890.39548068     A.U. after   12 cycles
 SCF Done:  E(RB3LYP) =  -2890.40057570     A.U. after   12 cycles
 SCF Done:  E(RB3LYP) =  -2890.40341311     A.U. after   13 cycles
 SCF Done:  E(RB3LYP) =  -2890.40435929     A.U. after   10 cycles
 SCF Done:  E(RB3LYP) =  -2890.40563780     A.U. after   13 cycles
 SCF Done:  E(RB3LYP) =  -2890.40569548     A.U. after    9 cycles
 SCF Done:  E(RB3LYP) =  -2890.40569751     A.U. after    8 cycles
 SCF Done:  E(RB3LYP) =  -2890.40569750     A.U. after    7 cycles
 Optimization completed.
    -- Stationary point found.
 Normal termination of Gaussian 09 at Tue Oct  5 16:46:43 2021.

 ----------------------------------------------------------------------
 #p freq b3lyp/6-31G* volume NMR pop=NPA density=current Geom=AllCheck
 Guess=Read
 ----------------------------------------------------------------------

 CCC[Mg]Br_conf_0
 ----------------
 Redundant internal coordinates taken from checkpoint file:
 C3H7BrMg_6cf0_conf_0.chk
 Charge =  0 Multiplicity = 1

 SCF Done:  E(RB3LYP) =  -2890.40569750     A.U. after    1 cycles

  1  C    Isotropic =   167.1316   Anisotropy =    33.4329

  2  C    Isotropic =   164.0111   Anisotropy =    18.6672

  3  C    Isotropic =   178.6300   Anisotropy =    33.3805

  4  Mg   Isotropic =   503.9756   Anisotropy =   315.9325

  5  Br   Isotropic =  2893.1673   Anisotropy =   341.4502

  6  H    Isotropic =    30.9741   Anisotropy =     9.9877

  7  H    Isotropic =    31.2459   Anisotropy =     7.0825

  8  H    Isotropic =    31.2459   Anisotropy =     7.0825

  9  H    Isotropic =    30.3786   Anisotropy =     6.9732

 10  H    Isotropic =    30.3786   Anisotropy =     6.9732

 11  H    Isotropic =    31.8215   Anisotropy =     6.4958

 12  H    Isotropic =    31.8215   Anisotropy =     6.4958

  Exact polarizability: 107.877  -0.231  61.733  -0.000  -0.000  59.560
 Approx polarizability: 131.956  -3.791  87.797  -0.000  -0.000  86.802

                     1                      2                      3
                     A                      A                      A
 Frequencies --    61.1803                63.3732               154.5284
 Red. masses --     5.7324                 2.7594                 4.1914
 Frc consts  --     0.0126                 0.0065                 0.0590
 IR Inten    --     4.3814                 3.0555                19.5432

                     4                      5                      6
                     A                      A                      A
 Frequencies --   187.1481               233.8581               245.1383
 Red. masses --     7.2163                 4.1247                 1.0751
 Frc consts  --     0.1489                 0.1329                 0.0381
 IR Inten    --    23.0530                 9.2803                 0.1007

                     7                      8                      9
                     A                      A                      A
 Frequencies --   409.2687               584.8742               608.3130
 Red. masses --     4.3632                 1.2271                 4.5373
 Frc consts  --     0.4306                 0.2473                 0.9892
 IR Inten    --    42.3877                45.1164                41.6165

                    10                     11                     12
                     A                      A                      A
 Frequencies --   780.2157               891.6355               996.8106
 Red. masses --     1.1301                 2.2501                 1.0939
 Frc consts  --     0.4053                 1.0540                 0.6404
 IR Inten    --     1.7335                 1.0553                14.4590

                    13                     14                     15
                     A                      A                      A
 Frequencies --  1030.4760              1064.0497              1170.8417
 Red. masses --     2.2407                 1.9420                 1.5130
 Frc consts  --     1.4019                 1.2955                 1.2220
 IR Inten    --     2.9077                23.7807                27.5999

                    16                     17                     18
                     A                      A                      A
 Frequencies --  1255.6403              1347.7776              1371.3513
 Red. masses --     1.4629                 1.0931                 1.3467
 Frc consts  --     1.3589                 1.1698                 1.4922
 IR Inten    --     3.9040                 0.1240                12.1927

                    19                     20                     21
                     A                      A                      A
 Frequencies --  1432.1989              1487.1494              1516.7309
 Red. masses --     1.2327                 1.0887                 1.0566
 Frc consts  --     1.4897                 1.4186                 1.4321
 IR Inten    --     1.2248                 0.4550                 0.6618

                    22                     23                     24
                     A                      A                      A
 Frequencies --  1522.9714              1533.8756              3001.2253
 Red. masses --     1.0420                 1.0778                 1.0566
 Frc consts  --     1.4240                 1.4941                 5.6073
 IR Inten    --     6.8148                 2.2628                11.0078

                    25                     26                     27
                     A                      A                      A
 Frequencies --  3015.7868              3028.8839              3034.6672
 Red. masses --     1.0602                 1.1001                 1.0349
 Frc consts  --     5.6810                 5.9464                 5.6155
 IR Inten    --    48.7233                 0.2081                42.0985

                    28                     29                     30
                     A                      A                      A
 Frequencies --  3051.1661              3100.1172              3105.8680
 Red. masses --     1.1023                 1.1020                 1.1030
 Frc consts  --     6.0464                 6.2398                 6.2690
 IR Inten    --    42.2705                47.6428                52.8398

 - Thermochemistry -
 -------------------
 Temperature   298.150 Kelvin.  Pressure   1.00000 Atm.
 Atom     1 has atomic number  6 and mass  12.00000

 Molecular mass:   145.95816 amu.
 Principal axes and moments of inertia in atomic units:
                           1         2         3
     Eigenvalues --    86.971493256.325313309.95742
           X            0.99999   0.00394  -0.00000
           Y           -0.00394   0.99999   0.00000
           Z            0.00000  -0.00000   1.00000
 This molecule is an asymmetric top.
 Rotational symmetry number  1.
 Rotational temperatures (Kelvin)      0.99589     0.02660     0.02617
 Rotational constants (GHZ):          20.75095     0.55423     0.54525
 Zero-point vibrational energy     246951.8 (Joules/Mol)
                                   59.02290 (Kcal/Mol)
 Warning -- explicit consideration of   9 degrees of freedom as
           vibrations may cause significant error
 Vibrational temperatures:     88.02    91.18   222.33   269.26   336.47
          (Kelvin)            352.70   588.85   841.50   875.23  1122.55
                             1282.86  1434.19  1482.62  1530.93  1684.58
                             1806.58  1939.15  1973.07  2060.61  2139.67
                             2182.23  2191.21  2206.90  4318.09  4339.04
                             4357.88  4366.20  4389.94  4460.37  4468.65

 Zero-point correction=                           0.094059 (Hartree/Particle)
 Thermal correction to Energy=                    0.101668
 Thermal correction to Enthalpy=                  0.102612
 Thermal correction to Gibbs Free Energy=         0.060292
 Sum of electronic and zero-point Energies=          -2890.311639
 Sum of electronic and thermal Energies=             -2890.304030
 Sum of electronic and thermal Enthalpies=           -2890.303085
 Sum of electronic and thermal Free Energies=        -2890.345405

                     E (Thermal)             CV                S
                      KCal/Mol        Cal/Mol-Kelvin    Cal/Mol-Kelvin
 Total                   63.798             24.002             89.070
 Electronic               0.000              0.000              0.000
 Translational            0.889              2.981             40.845
 Rotational               0.889              2.981             28.329
 Vibrational             62.020             18.041             19.895
 Vibration     1          0.597              1.973              4.419
 Vibration     2          0.597              1.972              4.349
 Vibration     3          0.620              1.898              2.616
 Vibration     4          0.632              1.857              2.256
 Vibration     5          0.654              1.789              1.849
 Vibration     6          0.660              1.771              1.765
 Vibration     7          0.774              1.450              0.929
 Vibration     8          0.942              1.064              0.476
 Vibration     9          0.967              1.014              0.436

 Optimization completed.
    -- Stationary point found.
 Normal termination of Gaussian 09 at Tue Oct  5 16:48:33 2021.
 Gaussian 09:  AM64L-G09RevA.02 11-Jun-2009

 ----------------------------------------------------------------------
 #p TD(NStates=10, Root=1) b3lyp/6-31G* volume pop=NPA density=current
 Geom=AllCheck Guess=Read
 ----------------------------------------------------------------------

 CCC[Mg]Br_conf_0
 ----------------
 Redundant internal coordinates taken from checkpoint file:
 C3H7BrMg_6cf0_conf_0.chk
 Charge =  0 Multiplicity = 1

                         Standard orientation:
 ---------------------------------------------------------------------
 Center     Atomic      Atomic             Coordinates (Angstroms)
 Number     Number       Type             X           Y           Z
 ---------------------------------------------------------------------
      1          6           0       -4.470301   -0.162957    0.000006
      2          6           0       -2.982446   -0.542473   -0.000005
      3          6           0       -2.043108    0.680772    0.000004
      4         12           0        0.014502    0.277888   -0.000012
      5         35           0        2.327004   -0.093767    0.000003
      6          1           0       -5.116572   -1.049972   -0.000000
      7          1           0       -4.720735    0.435481   -0.884670
      8          1           0       -4.720727    0.435463    0.884695
      9          1           0       -2.780049   -1.175247   -0.876454
     10          1           0       -2.780042   -1.175265    0.876430
     11          1           0       -2.262953    1.312341    0.874687
     12          1           0       -2.262960    1.312358   -0.874665
 ---------------------------------------------------------------------

 SCF Done:  E(RB3LYP) =  -2890.40569750     A.U. after    1 cycles

 Excitation energies and oscillator strengths:

 Excited State   1:      Singlet-A      5.0848 eV  243.83 nm  f=0.2993  <S**2>=0.000
      36 -> 37         0.69149
 This state for optimization and/or second-order correction.
 Total Energy, E(TD-HF/TD-KS) =  -2890.21883396
 Copying the excited state density for this state as the 1-particle RhoCI density.

 Excited State   2:      Singlet-A      5.3336 eV  232.46 nm  f=0.0299  <S**2>=0.000
      34 -> 37        -0.32538
      36 -> 38         0.62026

 Excited State   3:      Singlet-A      5.3618 eV  231.24 nm  f=0.0014  <S**2>=0.000
      35 -> 37        -0.40671
      36 -> 39         0.57647

 Excited State   4:      Singlet-A      5.4765 eV  226.39 nm  f=0.0881  <S**2>=0.000
      34 -> 37         0.62599
      36 -> 38         0.32199

 Excited State   5:      Singlet-A      5.4856 eV  226.02 nm  f=0.0806  <S**2>=0.000
      35 -> 37         0.57671
      36 -> 39         0.40577

 Excited State   6:      Singlet-A      6.1971 eV  200.07 nm  f=0.0003  <S**2>=0.000
      34 -> 39        -0.11168
      35 -> 38         0.69721

 Excited State   7:      Singlet-A      6.2321 eV  198.94 nm  f=0.0007  <S**2>=0.000
      34 -> 38         0.52927
      35 -> 39        -0.46711

 Excited State   8:      Singlet-A      6.2528 eV  198.29 nm  f=0.0000  <S**2>=0.000
      34 -> 39         0.69732
      35 -> 38         0.11186

 Excited State   9:      Singlet-A      6.5382 eV  189.63 nm  f=0.0224  <S**2>=0.000
      33 -> 37         0.44608
      34 -> 38         0.34728
      35 -> 39         0.41489

 Excited State  10:      Singlet-A      6.8810 eV  180.18 nm  f=0.0007  <S**2>=0.000
      32 -> 37         0.70076

 The electronic state is 1-A.
 Alpha  occ. eigenvalues -- -482.87487 -61.83735 -56.35424 -56.35302 -56.35301
 Alpha  occ. eigenvalues --  -46.83574 -10.18540 -10.17056 -10.16195  -8.54635
 Alpha  occ. eigenvalues --   -6.49363  -6.48976  -6.48975  -3.12448  -2.61041
 Alpha  occ. eigenvalues --   -2.60919  -2.60918  -2.60611  -2.60610  -1.87052
 Alpha  occ. eigenvalues --   -1.87042  -1.86406  -0.76936  -0.72121  -0.66008
 Alpha  occ. eigenvalues --   -0.57679  -0.45246  -0.41215  -0.37851  -0.37509
 Alpha  occ. eigenvalues --   -0.33338  -0.32709  -0.32360  -0.27671  -0.27667
 Alpha  occ. eigenvalues --   -0.24327
 Alpha virt. eigenvalues --   -0.04145  -0.01325  -0.01105   0.05670   0.11635
 Alpha virt. eigenvalues --    0.12323   0.12352   0.13717   0.16743   0.17228
 Alpha virt. eigenvalues --    0.18804   0.18930   0.19932   0.21036   0.23411

 Mulliken atomic charges:
              1
     1  C   -0.436808
     2  C   -0.264917
     3  C   -0.453697
     4  Mg   0.079258
     5  Br  -0.177885
     6  H    0.173443
     7  H    0.167547
     8  H    0.167546
     9  H    0.180951
    10  H    0.180948
    11  H    0.191804
    12  H    0.191810
 Sum of Mulliken atomic charges =  -0.00000

 Dipole moment (field-independent basis, Debye):
    X=             -6.4323    Y=              1.6672    Z=              0.0006  Tot=              6.6449
 Quadrupole moment (field-independent basis, Debye-Ang):
   XX=            -46.6487   YY=            -51.8709   ZZ=            -53.0590
   XY=              0.4039   XZ=             -0.0000   YZ=             -0.0000

 Summary of Natural Population Analysis:

                                       Natural Population
                Natural  -----------------------------------------------
    Atom  No    Charge         Core      Valence    Rydberg      Total
 -----------------------------------------------------------------------
      C    1   -0.64675      1.99937     4.63913    0.00826     6.64675
      C    2   -0.49949      1.99938     4.48988    0.01023     6.49949
      C    3   -0.79930      1.99940     4.76450    0.03540     6.79930
     Mg    4    0.85692      9.99588     1.09845    0.04874    11.14308
     Br    5   -0.59477     27.99971     7.58317    0.01188    35.59477
      H    6    0.25086      0.00000     0.74748    0.00166     0.74914
      H    7    0.23906      0.00000     0.75974    0.00119     0.76094
      H    8    0.23906      0.00000     0.75974    0.00119     0.76094
      H    9    0.24928      0.00000     0.74712    0.00361     0.75072
      H   10    0.24927      0.00000     0.74712    0.00361     0.75073
      H   11    0.22793      0.00000     0.76969    0.00238     0.77207
      H   12    0.22793      0.00000     0.76968    0.00238     0.77207
 =======================================================================
   * Total *   -0.00000     43.99375    27.87571    0.13054    72.00000

 Normal termination of Gaussian 09 at Tue Oct  5 16:51:26 2021.
