 Gaussian 09, Revision A.02,

 -----------------------------------
 #p opt b3lyp/6-31G* scf=(xqc,tight)
 -----------------------------------

 ------------------
 Br[Mg]C(C)C_conf_0
 ------------------
 Symbolic Z-matrix:
 Charge =  0 Multiplicity = 1

 SCF Done:  E(RB3LYP) =  -2890.36592534     A.U. after   13 cycles
 SCF Done:  E(RB3LYP) =  -2890.37796136     A.U. after   10 cycles
 SCF Done:  E(RB3LYP) =  -2890.39035128     A.U. after   12 cycles
 SCF Done:  E(RB3LYP) =  -2890.39583029     A.U. after   11 cycles
 SCF Done:  E(RB3LYP) =  -2890.39929027     A.U. after   12 cycles
 SCF Done:  E(RB3LYP) =  -2890.40041301     A.U. after    9 cycles
 SCF Done:  E(RB3LYP) =  -2890.40135901     A.U. after   10 cycles
 SCF Done:  E(RB3LYP) =  -2890.40140645     A.U. after    8 cycles
 SCF Done:  E(RB3LYP) =  -2890.40141379     A.U. after    8 cycles
 SCF Done:  E(RB3LYP) =  -2890.40141404     A.U. after    6 cycles
 Optimization completed.
    -- Stationary point found.
 Normal termination of Gaussian 09 at Tue Oct  5 16:46:41 2021.

 ----------------------------------------------------------------------
 #p freq b3lyp/6-31G* volume NMR pop=NPA density=current Geom=AllCheck
 Guess=Read
 ----------------------------------------------------------------------

 Br[Mg]C(C)C_conf_0
 ------------------
 Redundant internal coordinates taken from checkpoint file:
 C3H7BrMg_c25c_conf_0.chk
 Charge =  0 Multiplicity = 1

 SCF Done:  E(RB3LYP) =  -2890.40141404     A.U. after    1 cycles

  1  Br   Isotropic =  2901.3408   Anisotropy =   329.9048

  2  Mg   Isotropic =   512.7774   Anisotropy =   302.0102

  3  C    Isotropic =   168.2637   Anisotropy =    12.5437

  4  C    Isotropic =   164.2468   Anisotropy =    34.6879

  5  C    Isotropic =   164.2481   Anisotropy =    34.6853

  6  H    Isotropic =    31.0804   Anisotropy =     5.9070

  7  H    Isotropic =    30.7785   Anisotropy =     7.1182

  8  H    Isotropic =    30.5942   Anisotropy =     8.1254

  9  H    Isotropic =    30.8020   Anisotropy =     8.9567

 10  H    Isotropic =    30.7785   Anisotropy =     7.1187

 11  H    Isotropic =    30.8022   Anisotropy =     8.9566

 12  H    Isotropic =    30.5942   Anisotropy =     8.1263

  Exact polarizability: 104.547   0.003  65.719   0.178   0.000  59.528
 Approx polarizability: 137.374   0.003  88.925  -1.930   0.000  87.017

                     1                      2                      3
                     A                      A                      A
 Frequencies --    72.5313                92.7440               192.7907
 Red. masses --     4.5227                 5.1581                 5.1741
 Frc consts  --     0.0140                 0.0261                 0.1133
 IR Inten    --     5.1534                 9.7469                 9.0962

                     4                      5                      6
                     A                      A                      A
 Frequencies --   208.7685               256.6754               258.4194
 Red. masses --     5.3892                 1.1558                 1.0306
 Frc consts  --     0.1384                 0.0449                 0.0406
 IR Inten    --    29.7174                 3.8790                 0.0257

                     7                      8                      9
                     A                      A                      A
 Frequencies --   347.4685               374.4647               557.0621
 Red. masses --     2.8542                 2.4223                 6.5299
 Frc consts  --     0.2030                 0.2001                 1.1939
 IR Inten    --    30.0745                13.2831                51.6080

                    10                     11                     12
                     A                      A                      A
 Frequencies --   879.5447               930.6651               976.7284
 Red. masses --     2.8340                 1.1488                 1.0838
 Frc consts  --     1.2917                 0.5863                 0.6092
 IR Inten    --     6.4556                 2.0307                16.1214

                    13                     14                     15
                     A                      A                      A
 Frequencies --   991.6612              1089.4556              1178.8115
 Red. masses --     1.4186                 2.6340                 1.8923
 Frc consts  --     0.8219                 1.8420                 1.5493
 IR Inten    --     0.6058                 7.0425                19.5252

                    16                     17                     18
                     A                      A                      A
 Frequencies --  1222.8904              1352.4560              1430.9240
 Red. masses --     1.4719                 1.2588                 1.2006
 Frc consts  --     1.2969                 1.3566                 1.4484
 IR Inten    --    24.6791                 1.1924                 0.0959

                    19                     20                     21
                     A                      A                      A
 Frequencies --  1448.7219              1514.6999              1530.4167
 Red. masses --     1.2069                 1.0452                 1.0449
 Frc consts  --     1.4924                 1.4129                 1.4419
 IR Inten    --    11.9111                 0.1645                 4.4785

                    22                     23                     24
                     A                      A                      A
 Frequencies --  1534.8091              1543.0231              2986.0877
 Red. masses --     1.0472                 1.0430                 1.0727
 Frc consts  --     1.4534                 1.4631                 5.6356
 IR Inten    --     5.8891                 5.6595                33.0311

                    25                     26                     27
                     A                      A                      A
 Frequencies --  2990.4201              2994.1434              3052.8241
 Red. masses --     1.0471                 1.0538                 1.0890
 Frc consts  --     5.5172                 5.5660                 5.9799
 IR Inten    --    33.0843               104.6314                15.9734

                    28                     29                     30
                     A                      A                      A
 Frequencies --  3053.8707              3081.7297              3083.1715
 Red. masses --     1.0875                 1.1017                 1.1007
 Frc consts  --     5.9754                 6.1645                 6.1645
 IR Inten    --    49.0185                24.9883                55.1711

 - Thermochemistry -
 -------------------
 Temperature   298.150 Kelvin.  Pressure   1.00000 Atm.
 Atom     1 has atomic number 35 and mass  78.91834

 Molecular mass:   145.95816 amu.
 Principal axes and moments of inertia in atomic units:
                           1         2         3
     Eigenvalues --   228.530862498.880082665.01654
           X            0.99999   0.00000   0.00426
           Y           -0.00000   1.00000  -0.00000
           Z           -0.00426   0.00000   0.99999
 This molecule is an asymmetric top.
 Rotational symmetry number  1.
 Rotational temperatures (Kelvin)      0.37900     0.03466     0.03250
 Rotational constants (GHZ):           7.89714     0.72222     0.67720
 Zero-point vibrational energy     246598.1 (Joules/Mol)
                                   58.93836 (Kcal/Mol)
 Warning -- explicit consideration of   9 degrees of freedom as
           vibrations may cause significant error
 Vibrational temperatures:    104.36   133.44   277.38   300.37   369.30
          (Kelvin)            371.81   499.93   538.77   801.49  1265.47
                             1339.02  1405.29  1426.78  1567.48  1696.04
                             1759.46  1945.88  2058.78  2084.39  2179.31
                             2201.93  2208.25  2220.06  4296.31  4302.54
                             4307.90  4392.33  4393.83  4433.92  4435.99

 Zero-point correction=                           0.093924 (Hartree/Particle)
 Thermal correction to Energy=                    0.101533
 Thermal correction to Enthalpy=                  0.102477
 Thermal correction to Gibbs Free Energy=         0.060457
 Sum of electronic and zero-point Energies=          -2890.307490
 Sum of electronic and thermal Energies=             -2890.299881
 Sum of electronic and thermal Enthalpies=           -2890.298937
 Sum of electronic and thermal Free Energies=        -2890.340957

                     E (Thermal)             CV                S
                      KCal/Mol        Cal/Mol-Kelvin    Cal/Mol-Kelvin
 Total                   63.713             24.345             88.438
 Electronic               0.000              0.000              0.000
 Translational            0.889              2.981             40.845
 Rotational               0.889              2.981             28.811
 Vibrational             61.935             18.384             18.782
 Vibration     1          0.599              1.967              4.083
 Vibration     2          0.602              1.954              3.601
 Vibration     3          0.635              1.850              2.201
 Vibration     4          0.642              1.827              2.054
 Vibration     5          0.666              1.752              1.684
 Vibration     6          0.667              1.749              1.672
 Vibration     7          0.725              1.580              1.178
 Vibration     8          0.746              1.524              1.061
 Vibration     9          0.913              1.124              0.530

 Optimization completed.
    -- Stationary point found.
 Normal termination of Gaussian 09 at Tue Oct  5 16:48:35 2021.
 Gaussian 09:  AM64L-G09RevA.02 11-Jun-2009

 ----------------------------------------------------------------------
 #p TD(NStates=10, Root=1) b3lyp/6-31G* volume pop=NPA density=current
 Geom=AllCheck Guess=Read
 ----------------------------------------------------------------------

 Br[Mg]C(C)C_conf_0
 ------------------
 Redundant internal coordinates taken from checkpoint file:
 C3H7BrMg_c25c_conf_0.chk
 Charge =  0 Multiplicity = 1

                         Standard orientation:
 ---------------------------------------------------------------------
 Center     Atomic      Atomic             Coordinates (Angstroms)
 Number     Number       Type             X           Y           Z
 ---------------------------------------------------------------------
      1         35           0       -2.113326    0.000004    0.038473
      2         12           0        0.222908   -0.000266   -0.142251
      3          6           0        2.324032   -0.000035   -0.385890
      4          6           0        2.986101    1.269492    0.180092
      5          6           0        2.986747   -1.269163    0.180188
      6          1           0        2.482817   -0.000032   -1.476282
      7          1           0        2.843970    1.360979    1.265687
      8          1           0        2.593259    2.186881   -0.277340
      9          1           0        4.075269    1.264075    0.006673
     10          1           0        2.844668   -1.360635    1.265790
     11          1           0        4.075910   -1.263204    0.006757
     12          1           0        2.594357   -2.186782   -0.277165
 ---------------------------------------------------------------------

 SCF Done:  E(RB3LYP) =  -2890.40141404     A.U. after    1 cycles

 Excitation energies and oscillator strengths:

 Excited State   1:      Singlet-A      4.7102 eV  263.22 nm  f=0.2541  <S**2>=0.000
      36 -> 37         0.69577
 This state for optimization and/or second-order correction.
 Total Energy, E(TD-HF/TD-KS) =  -2890.22831693
 Copying the excited state density for this state as the 1-particle RhoCI density.

 Excited State   2:      Singlet-A      5.0113 eV  247.41 nm  f=0.0398  <S**2>=0.000
      35 -> 37         0.10260
      36 -> 38         0.69336

 Excited State   3:      Singlet-A      5.0645 eV  244.81 nm  f=0.0344  <S**2>=0.000
      34 -> 37         0.11874
      36 -> 39         0.69530

 Excited State   4:      Singlet-A      5.4140 eV  229.00 nm  f=0.0541  <S**2>=0.000
      35 -> 37         0.69808
      36 -> 38        -0.10147

 Excited State   5:      Singlet-A      5.4150 eV  228.96 nm  f=0.0574  <S**2>=0.000
      34 -> 37         0.69577
      36 -> 39        -0.11804

 Excited State   6:      Singlet-A      6.1840 eV  200.49 nm  f=0.0005  <S**2>=0.000
      34 -> 38         0.67906
      35 -> 39        -0.19331

 Excited State   7:      Singlet-A      6.2093 eV  199.68 nm  f=0.0003  <S**2>=0.000
      34 -> 39        -0.47922
      35 -> 38         0.51853

 Excited State   8:      Singlet-A      6.2180 eV  199.40 nm  f=0.0000  <S**2>=0.000
      34 -> 38         0.19349
      35 -> 39         0.67914

 Excited State   9:      Singlet-A      6.4899 eV  191.04 nm  f=0.0091  <S**2>=0.000
      33 -> 37         0.45215
      34 -> 39        -0.39925
      35 -> 38        -0.35742

 Excited State  10:      Singlet-A      6.9133 eV  179.34 nm  f=0.0172  <S**2>=0.000
      32 -> 37         0.68534
      33 -> 37         0.12881

 The electronic state is 1-A.
 Alpha  occ. eigenvalues -- -482.87512 -61.83757 -56.35425 -56.35305 -56.35304
 Alpha  occ. eigenvalues --  -46.83593 -10.17820 -10.17819 -10.17129  -8.54637
 Alpha  occ. eigenvalues --   -6.49356  -6.48972  -6.48971  -3.12437  -2.61034
 Alpha  occ. eigenvalues --   -2.60912  -2.60912  -2.60606  -2.60606  -1.87042
 Alpha  occ. eigenvalues --   -1.87034  -1.86393  -0.76553  -0.72105  -0.67929
 Alpha  occ. eigenvalues --   -0.56286  -0.44019  -0.42619  -0.39712  -0.37966
 Alpha  occ. eigenvalues --   -0.33490  -0.33270  -0.32291  -0.27661  -0.27659
 Alpha  occ. eigenvalues --   -0.23101
 Alpha virt. eigenvalues --   -0.04284  -0.01367  -0.01243   0.05920   0.11039
 Alpha virt. eigenvalues --    0.12673   0.13440   0.15105   0.16091   0.16393
 Alpha virt. eigenvalues --    0.18728   0.18996   0.20815   0.20972   0.23677

 Mulliken atomic charges:
              1
     1  Br  -0.183646
     2  Mg   0.080954
     3  C   -0.272948
     4  C   -0.466728
     5  C   -0.466692
     6  H    0.186099
     7  H    0.188738
     8  H    0.179477
     9  H    0.193254
    10  H    0.188735
    11  H    0.193250
    12  H    0.179507
 Sum of Mulliken atomic charges =  -0.00000

 Dipole moment (field-independent basis, Debye):
    X=              6.6219    Y=              0.0042    Z=             -1.4400  Tot=              6.7767
 Quadrupole moment (field-independent basis, Debye-Ang):
   XX=            -45.7969   YY=            -51.6439   ZZ=            -52.9693
   XY=              0.0009   XZ=             -0.3889   YZ=              0.0008

 Summary of Natural Population Analysis:

                                       Natural Population
                Natural  -----------------------------------------------
    Atom  No    Charge         Core      Valence    Rydberg      Total
 -----------------------------------------------------------------------
     Br    1   -0.61107     27.99973     7.59909    0.01225    35.61107
     Mg    2    0.87326      9.99590     1.08607    0.04477    11.12674
      C    3   -0.58860      1.99930     4.55489    0.03441     6.58860
      C    4   -0.72358      1.99945     4.71479    0.00934     6.72358
      C    5   -0.72357      1.99945     4.71478    0.00935     6.72357
      H    6    0.23845      0.00000     0.75885    0.00270     0.76155
      H    7    0.24720      0.00000     0.75017    0.00263     0.75280
      H    8    0.24290      0.00000     0.75514    0.00196     0.75710
      H    9    0.27745      0.00000     0.72109    0.00147     0.72255
      H   10    0.24720      0.00000     0.75016    0.00263     0.75280
      H   11    0.27745      0.00000     0.72108    0.00147     0.72255
      H   12    0.24292      0.00000     0.75512    0.00196     0.75708
 =======================================================================
   * Total *    0.00000     43.99383    27.88123    0.12494    72.00000

 Normal termination of Gaussian 09 at Tue Oct  5 16:51:26 2021.
