 Gaussian 09, Revision A.02,

 -----------------------------------
 #p opt b3lyp/6-31G* scf=(xqc,tight)
 -----------------------------------

 ----------------
 COP(OC)OC_conf_0
 ----------------
 Symbolic Z-matrix:
 Charge =  0 Multiplicity = 1

 SCF Done:  E(RB3LYP) =  -686.769887893     A.U. after   14 cycles
 SCF Done:  E(RB3LYP) =  -686.773095542     A.U. after   12 cycles
 SCF Done:  E(RB3LYP) =  -686.773680676     A.U. after   12 cycles
 SCF Done:  E(RB3LYP) =  -686.773929725     A.U. after   12 cycles
 SCF Done:  E(RB3LYP) =  -686.774238773     A.U. after   15 cycles
 SCF Done:  E(RB3LYP) =  -686.774319615     A.U. after   15 cycles
 SCF Done:  E(RB3LYP) =  -686.774340249     A.U. after   12 cycles
 SCF Done:  E(RB3LYP) =  -686.774352435     A.U. after   12 cycles
 SCF Done:  E(RB3LYP) =  -686.774358304     A.U. after   11 cycles
 SCF Done:  E(RB3LYP) =  -686.774347498     A.U. after   14 cycles
 SCF Done:  E(RB3LYP) =  -686.774350995     A.U. after   12 cycles
 SCF Done:  E(RB3LYP) =  -686.774345949     A.U. after    9 cycles
 SCF Done:  E(RB3LYP) =  -686.774358319     A.U. after   10 cycles
 SCF Done:  E(RB3LYP) =  -686.774357173     A.U. after    8 cycles
 SCF Done:  E(RB3LYP) =  -686.774342907     A.U. after   15 cycles
 SCF Done:  E(RB3LYP) =  -686.774167116     A.U. after   15 cycles
 SCF Done:  E(RB3LYP) =  -686.773451064     A.U. after   15 cycles
 SCF Done:  E(RB3LYP) =  -686.774362353     A.U. after   15 cycles
 Optimization completed.
    -- Stationary point found.
 Normal termination of Gaussian 09 at Fri Oct  1 21:26:52 2021.

 ----------------------------------------------------------------------
 #p freq b3lyp/6-31G* volume NMR pop=NPA density=current Geom=AllCheck
 Guess=Read
 ----------------------------------------------------------------------

 COP(OC)OC_conf_0
 ----------------
 Redundant internal coordinates taken from checkpoint file:
 C3H9O3P_4a5d_conf_0.chk
 Charge =  0 Multiplicity = 1

 SCF Done:  E(RB3LYP) =  -686.774362353     A.U. after    1 cycles

  1  C    Isotropic =   141.6801   Anisotropy =    66.2201

  2  O    Isotropic =   229.1419   Anisotropy =   141.1881

  3  P    Isotropic =   194.6245   Anisotropy =   202.6669

  4  O    Isotropic =   229.1441   Anisotropy =   141.3165

  5  C    Isotropic =   141.6574   Anisotropy =    66.2403

  6  O    Isotropic =   229.0483   Anisotropy =   140.9675

  7  C    Isotropic =   141.6552   Anisotropy =    66.2495

  8  H    Isotropic =    28.7229   Anisotropy =     8.5362

  9  H    Isotropic =    28.7814   Anisotropy =     8.6128

 10  H    Isotropic =    28.7149   Anisotropy =     7.7714

 11  H    Isotropic =    28.7204   Anisotropy =     8.5373

 12  H    Isotropic =    28.7766   Anisotropy =     8.6224

 13  H    Isotropic =    28.7098   Anisotropy =     7.7688

 14  H    Isotropic =    28.7220   Anisotropy =     8.5296

 15  H    Isotropic =    28.7816   Anisotropy =     8.6081

 16  H    Isotropic =    28.7155   Anisotropy =     7.7707

  Exact polarizability:  72.319   0.001  72.275  -0.005  -0.000  48.918
 Approx polarizability:  91.747  -0.007  91.707  -0.011   0.006  70.542

                     1                      2                      3
                     A                      A                      A
 Frequencies --    52.6688                57.5361                88.5197
 Red. masses --     2.9942                 3.0123                 3.1538
 Frc consts  --     0.0049                 0.0059                 0.0146
 IR Inten    --     4.2318                 4.2744                 8.0998

                     4                      5                      6
                     A                      A                      A
 Frequencies --   113.0679               121.2308               122.5690
 Red. masses --     1.0527                 1.0488                 1.0440
 Frc consts  --     0.0079                 0.0091                 0.0092
 IR Inten    --     0.2488                 0.2322                 0.1838

                     7                      8                      9
                     A                      A                      A
 Frequencies --   221.4430               221.8919               231.5276
 Red. masses --     4.3864                 4.3634                 3.5282
 Frc consts  --     0.1267                 0.1266                 0.1114
 IR Inten    --     2.0618                 2.0647                 0.1285

                    10                     11                     12
                     A                      A                      A
 Frequencies --   385.2458               386.0222               423.7318
 Red. masses --     5.6868                 5.6918                 7.6748
 Frc consts  --     0.4973                 0.4997                 0.8119
 IR Inten    --     7.2804                 7.3260                 7.1818

                    13                     14                     15
                     A                      A                      A
 Frequencies --   755.6041               756.1324               778.3696
 Red. masses --     8.9383                 8.9292                 8.4235
 Frc consts  --     3.0067                 3.0079                 3.0069
 IR Inten    --   168.2561               167.6379                96.7851

                    16                     17                     18
                     A                      A                      A
 Frequencies --  1067.6504              1068.5731              1108.9253
 Red. masses --     8.3435                 8.4283                 6.8002
 Frc consts  --     5.6034                 5.6702                 4.9270
 IR Inten    --   349.1288               350.1659                 1.1856

                    19                     20                     21
                     A                      A                      A
 Frequencies --  1185.6319              1186.3599              1187.2298
 Red. masses --     1.2639                 1.2639                 1.2629
 Frc consts  --     1.0468                 1.0481                 1.0488
 IR Inten    --     0.1226                 0.1582                 0.1435

                    22                     23                     24
                     A                      A                      A
 Frequencies --  1212.1930              1212.5533              1215.4527
 Red. masses --     1.3680                 1.3655                 1.4228
 Frc consts  --     1.1843                 1.1829                 1.2384
 IR Inten    --    30.6153                29.7911                 3.8239

                    25                     26                     27
                     A                      A                      A
 Frequencies --  1500.3458              1501.2465              1502.4057
 Red. masses --     1.1372                 1.1368                 1.1362
 Frc consts  --     1.5083                 1.5095                 1.5111
 IR Inten    --     6.0649                 5.7568                 1.6107

                    28                     29                     30
                     A                      A                      A
 Frequencies --  1520.9804              1521.5168              1521.6224
 Red. masses --     1.0487                 1.0490                 1.0486
 Frc consts  --     1.4295                 1.4308                 1.4305
 IR Inten    --     5.0574                 5.2769                 4.7638

                    31                     32                     33
                     A                      A                      A
 Frequencies --  1536.1245              1536.7461              1537.2580
 Red. masses --     1.0480                 1.0478                 1.0480
 Frc consts  --     1.4570                 1.4580                 1.4592
 IR Inten    --     6.3433                 6.0075                 6.8854

                    34                     35                     36
                     A                      A                      A
 Frequencies --  3026.9246              3027.0440              3028.9583
 Red. masses --     1.0372                 1.0372                 1.0379
 Frc consts  --     5.5989                 5.5995                 5.6103
 IR Inten    --    73.6998                73.6439                30.7758

                    37                     38                     39
                     A                      A                      A
 Frequencies --  3097.1549              3097.3514              3097.4822
 Red. masses --     1.1000                 1.0999                 1.1000
 Frc consts  --     6.2171                 6.2173                 6.2181
 IR Inten    --    36.5999                37.8122                41.0286

                    40                     41                     42
                     A                      A                      A
 Frequencies --  3141.8971              3142.0783              3142.1528
 Red. masses --     1.1033                 1.1034                 1.1034
 Frc consts  --     6.4172                 6.4182                 6.4188
 IR Inten    --    25.2489                27.4281                33.5116

 - Thermochemistry -
 -------------------
 Temperature   298.150 Kelvin.  Pressure   1.00000 Atm.
 Atom     1 has atomic number  6 and mass  12.00000

 Molecular mass:   124.02893 amu.
 Principal axes and moments of inertia in atomic units:
                           1         2         3
     Eigenvalues --   826.38168 827.865331529.61446
           X            0.99999   0.00428   0.00003
           Y           -0.00428   0.99999  -0.00002
           Z           -0.00003   0.00002   1.00000
 This molecule is an asymmetric top.
 Rotational symmetry number  1.
 Warning -- assumption of classical behavior for rotation
           may cause significant error
 Rotational temperatures (Kelvin)      0.10481     0.10462     0.05662
 Rotational constants (GHZ):           2.18391     2.17999     1.17987
 Zero-point vibrational energy     338779.0 (Joules/Mol)
                                   80.97011 (Kcal/Mol)
 Warning -- explicit consideration of  12 degrees of freedom as
           vibrations may cause significant error
 Vibrational temperatures:     75.78    82.78   127.36   162.68   174.42
          (Kelvin)            176.35   318.61   319.25   333.12   554.28
                              555.40   609.65  1087.14  1087.90  1119.90
                             1536.11  1537.44  1595.49  1705.86  1706.91
                             1708.16  1744.07  1744.59  1748.76  2158.66
                             2159.96  2161.62  2188.35  2189.12  2189.27
                             2210.14  2211.03  2211.77  4355.06  4355.24
                             4357.99  4456.11  4456.39  4456.58  4520.48
                             4520.74  4520.85

 Zero-point correction=                           0.129034 (Hartree/Particle)
 Thermal correction to Energy=                    0.139362
 Thermal correction to Enthalpy=                  0.140307
 Thermal correction to Gibbs Free Energy=         0.092300
 Sum of electronic and zero-point Energies=           -686.645328
 Sum of electronic and thermal Energies=              -686.635000
 Sum of electronic and thermal Enthalpies=            -686.634056
 Sum of electronic and thermal Free Energies=         -686.682063

                     E (Thermal)             CV                S
                      KCal/Mol        Cal/Mol-Kelvin    Cal/Mol-Kelvin
 Total                   87.451             32.390            101.039
 Electronic               0.000              0.000              0.000
 Translational            0.889              2.981             40.360
 Rotational               0.889              2.981             28.439
 Vibrational             85.674             26.428             32.241
 Vibration     1          0.596              1.977              4.715
 Vibration     2          0.596              1.974              4.540
 Vibration     3          0.601              1.957              3.693
 Vibration     4          0.607              1.939              3.216
 Vibration     5          0.609              1.931              3.081
 Vibration     6          0.610              1.930              3.059
 Vibration     7          0.648              1.808              1.947
 Vibration     8          0.648              1.808              1.944
 Vibration     9          0.653              1.793              1.867
 Vibration    10          0.754              1.502              1.019
 Vibration    11          0.755              1.500              1.015
 Vibration    12          0.786              1.419              0.879

 Normal termination of Gaussian 09 at Fri Oct  1 21:59:26 2021.
 Gaussian 09:  AM64L-G09RevA.02 11-Jun-2009

 ----------------------------------------------------------------------
 #p TD(NStates=10, Root=1) b3lyp/6-31G* volume pop=NPA density=current
 Geom=AllCheck Guess=Read
 ----------------------------------------------------------------------

 COP(OC)OC_conf_0
 ----------------
 Redundant internal coordinates taken from checkpoint file:
 C3H9O3P_4a5d_conf_0.chk
 Charge =  0 Multiplicity = 1

                         Standard orientation:
 ---------------------------------------------------------------------
 Center     Atomic      Atomic             Coordinates (Angstroms)
 Number     Number       Type             X           Y           Z
 ---------------------------------------------------------------------
      1          6           0       -2.243418   -1.331439    0.053049
      2          8           0       -0.895051   -1.127293   -0.372626
      3         15           0        0.000196   -0.000909    0.439759
      4          8           0        1.422780   -0.211792   -0.373907
      5          6           0        2.277364   -1.273743    0.053469
      6          8           0       -0.529467    1.337493   -0.371897
      7          6           0       -0.032909    2.607743    0.052925
      8          1           0       -2.561370   -2.302337   -0.334702
      9          1           0       -2.897981   -0.550190   -0.349553
     10          1           0       -2.330163   -1.339996    1.148547
     11          1           0        3.277131   -1.059563   -0.332205
     12          1           0        1.932783   -2.232614   -0.349960
     13          1           0        2.325967   -1.344185    1.149087
     14          1           0       -0.715563    3.367808   -0.334865
     15          1           0        0.970598    2.784567   -0.350321
     16          1           0        0.003351    2.687526    1.148365
 ---------------------------------------------------------------------

 SCF Done:  E(RB3LYP) =  -686.774362353     A.U. after    1 cycles

 Excitation energies and oscillator strengths:

 Excited State   1:      Singlet-A      6.5876 eV  188.21 nm  f=0.1153  <S**2>=0.000
      33 -> 34         0.69005
 This state for optimization and/or second-order correction.
 Total Energy, E(TD-HF/TD-KS) =  -686.532271898
 Copying the excited state density for this state as the 1-particle RhoCI density.

 Excited State   2:      Singlet-A      6.5896 eV  188.15 nm  f=0.1153  <S**2>=0.000
      33 -> 35         0.69003

 Excited State   3:      Singlet-A      7.6599 eV  161.86 nm  f=0.0000  <S**2>=0.000
      31 -> 34        -0.38703
      31 -> 35         0.30018
      32 -> 34         0.31707
      32 -> 35         0.39063

 Excited State   4:      Singlet-A      7.7514 eV  159.95 nm  f=0.0036  <S**2>=0.000
      30 -> 34        -0.29073
      31 -> 34         0.39661
      31 -> 35         0.17484
      32 -> 34        -0.19871
      32 -> 35         0.42008

 Excited State   5:      Singlet-A      7.7534 eV  159.91 nm  f=0.0037  <S**2>=0.000
      30 -> 35        -0.29254
      31 -> 34         0.21485
      31 -> 35        -0.38650
      32 -> 34         0.42616
      32 -> 35         0.15927

 Excited State   6:      Singlet-A      7.7826 eV  159.31 nm  f=0.0017  <S**2>=0.000
      31 -> 34         0.30834
      31 -> 35         0.40872
      32 -> 34         0.34293
      32 -> 35        -0.30592
      33 -> 36        -0.10796

 Excited State   7:      Singlet-A      8.0568 eV  153.89 nm  f=0.0290  <S**2>=0.000
      33 -> 36         0.69071

 Excited State   8:      Singlet-A      8.2230 eV  150.78 nm  f=0.0990  <S**2>=0.000
      30 -> 34         0.56975
      30 -> 35         0.23677
      31 -> 34         0.19152
      32 -> 35         0.19216

 Excited State   9:      Singlet-A      8.2243 eV  150.75 nm  f=0.0992  <S**2>=0.000
      30 -> 34        -0.23746
      30 -> 35         0.56893
      31 -> 35        -0.19505
      32 -> 34         0.19055

 Excited State  10:      Singlet-A      8.6941 eV  142.61 nm  f=0.0240  <S**2>=0.000
      33 -> 37         0.69267

 The electronic state is 1-A.
 Alpha  occ. eigenvalues --  -77.16741 -19.15385 -19.15377 -19.15376 -10.23371
 Alpha  occ. eigenvalues --  -10.23364 -10.23364  -6.62127  -4.78471  -4.78471
 Alpha  occ. eigenvalues --   -4.77866  -1.05359  -1.00587  -1.00579  -0.72187
 Alpha  occ. eigenvalues --   -0.68097  -0.68093  -0.57450  -0.49614  -0.49609
 Alpha  occ. eigenvalues --   -0.46650  -0.45121  -0.45120  -0.43270  -0.43053
 Alpha  occ. eigenvalues --   -0.43052  -0.37869  -0.33055  -0.33051  -0.29936
 Alpha  occ. eigenvalues --   -0.29030  -0.29018  -0.23209
 Alpha virt. eigenvalues --    0.03816   0.03823   0.10405   0.11833   0.13042
 Alpha virt. eigenvalues --    0.13044   0.16083   0.16089   0.16168   0.17446
 Alpha virt. eigenvalues --    0.17455   0.17765   0.19276   0.19284   0.23561

 Mulliken atomic charges:
              1
     1  C   -0.183553
     2  O   -0.430479
     3  P    0.501134
     4  O   -0.426723
     5  C   -0.189611
     6  O   -0.431564
     7  C   -0.225737
     8  H    0.142496
     9  H    0.164326
    10  H    0.161196
    11  H    0.150064
    12  H    0.160936
    13  H    0.121849
    14  H    0.165648
    15  H    0.164193
    16  H    0.155825
 Sum of Mulliken atomic charges =  -0.00000

 Dipole moment (field-independent basis, Debye):
    X=             -0.3175    Y=              0.1331    Z=              0.8647  Tot=              0.9307
 Quadrupole moment (field-independent basis, Debye-Ang):
   XX=            -45.2081   YY=            -43.1383   ZZ=            -52.1217
   XY=              0.9919   XZ=              0.1853   YZ=              0.0469

 Summary of Natural Population Analysis:

                                       Natural Population
                Natural  -----------------------------------------------
    Atom  No    Charge         Core      Valence    Rydberg      Total
 -----------------------------------------------------------------------
      C    1   -0.32574      1.99943     4.30898    0.01733     6.32574
      O    2   -0.68801      1.99984     6.67608    0.01209     8.68801
      P    3    1.32348      9.99870     3.53163    0.14619    13.67652
      O    4   -0.78109      1.99985     6.75694    0.02430     8.78109
      C    5   -0.34267      1.99945     4.32639    0.01683     6.34267
      O    6   -0.73868      1.99984     6.72153    0.01732     8.73868
      C    7   -0.33419      1.99945     4.31811    0.01663     6.33419
      H    8    0.20113      0.00000     0.79163    0.00724     0.79887
      H    9    0.21465      0.00000     0.78130    0.00405     0.78535
      H   10    0.21793      0.00000     0.77680    0.00527     0.78207
      H   11    0.21324      0.00000     0.78331    0.00345     0.78676
      H   12    0.21346      0.00000     0.78461    0.00193     0.78654
      H   13    0.18988      0.00000     0.79807    0.01205     0.81012
      H   14    0.22026      0.00000     0.77781    0.00194     0.77974
      H   15    0.21064      0.00000     0.78625    0.00311     0.78936
      H   16    0.20570      0.00000     0.79104    0.00326     0.79430
 =======================================================================
   * Total *   -0.00000     21.99656    43.71048    0.29295    66.00000

 Normal termination of Gaussian 09 at Sat Oct  2 00:06:53 2021.
