 Gaussian 09, Revision A.02,

 -----------------------------------
 #p opt b3lyp/6-31G* scf=(xqc,tight)
 -----------------------------------

 -------------
 CP(C)C_conf_0
 -------------
 Symbolic Z-matrix:
 Charge =  0 Multiplicity = 1

 SCF Done:  E(RB3LYP) =  -461.097059091     A.U. after   12 cycles
 SCF Done:  E(RB3LYP) =  -461.098321270     A.U. after   12 cycles
 SCF Done:  E(RB3LYP) =  -461.098386527     A.U. after   12 cycles
 SCF Done:  E(RB3LYP) =  -461.098390642     A.U. after   10 cycles
 SCF Done:  E(RB3LYP) =  -461.098391195     A.U. after   12 cycles
 SCF Done:  E(RB3LYP) =  -461.098401888     A.U. after   12 cycles
 SCF Done:  E(RB3LYP) =  -461.098426166     A.U. after   12 cycles
 SCF Done:  E(RB3LYP) =  -461.098408383     A.U. after   10 cycles
 SCF Done:  E(RB3LYP) =  -461.098394572     A.U. after    9 cycles
 SCF Done:  E(RB3LYP) =  -461.098403815     A.U. after   12 cycles
 SCF Done:  E(RB3LYP) =  -461.098391545     A.U. after   12 cycles
 SCF Done:  E(RB3LYP) =  -461.098404477     A.U. after    9 cycles
 SCF Done:  E(RB3LYP) =  -461.098419478     A.U. after   10 cycles
 SCF Done:  E(RB3LYP) =  -461.098390905     A.U. after    9 cycles
 Optimization completed.
    -- Stationary point found.
 Normal termination of Gaussian 09 at Fri Oct  1 19:09:55 2021.

 ----------------------------------------------------------------------
 #p freq b3lyp/6-31G* volume NMR pop=NPA density=current Geom=AllCheck
 Guess=Read
 ----------------------------------------------------------------------

 CP(C)C_conf_0
 -------------
 Redundant internal coordinates taken from checkpoint file:
 C3H9P_44e1_conf_0.chk
 Charge =  0 Multiplicity = 1

 SCF Done:  E(RB3LYP) =  -461.098390905     A.U. after    1 cycles

  1  C    Isotropic =   172.0696   Anisotropy =    26.8438

  2  P    Isotropic =   427.1979   Anisotropy =    13.3771

  3  C    Isotropic =   172.0692   Anisotropy =    26.8575

  4  C    Isotropic =   172.1112   Anisotropy =    26.8183

  5  H    Isotropic =    31.1872   Anisotropy =     9.7852

  6  H    Isotropic =    31.3926   Anisotropy =     7.8611

  7  H    Isotropic =    31.1866   Anisotropy =     9.7956

  8  H    Isotropic =    31.1872   Anisotropy =     9.7900

  9  H    Isotropic =    31.1848   Anisotropy =     9.7886

 10  H    Isotropic =    31.3914   Anisotropy =     7.8601

 11  H    Isotropic =    31.1887   Anisotropy =     9.7969

 12  H    Isotropic =    31.3903   Anisotropy =     7.8718

 13  H    Isotropic =    31.1831   Anisotropy =     9.7914

  Exact polarizability:  57.891   0.005  57.878   0.003   0.003  47.803
 Approx polarizability:  79.464   0.005  79.449   0.004   0.003  68.610

                     1                      2                      3
                     A                      A                      A
 Frequencies --   176.5732               196.4408               202.1335
 Red. masses --     1.0221                 1.0607                 1.0702
 Frc consts  --     0.0188                 0.0241                 0.0258
 IR Inten    --     0.0006                 0.0371                 0.0343

                     4                      5                      6
                     A                      A                      A
 Frequencies --   242.8059               243.9573               284.9883
 Red. masses --     2.2240                 2.2319                 2.5256
 Frc consts  --     0.0772                 0.0783                 0.1209
 IR Inten    --     0.0673                 0.0708                 0.1371

                     7                      8                      9
                     A                      A                      A
 Frequencies --   638.0538               695.1551               696.7836
 Red. masses --     4.2408                 4.7110                 4.7069
 Frc consts  --     1.0172                 1.3413                 1.3464
 IR Inten    --     0.2338                11.0664                11.1465

                    10                     11                     12
                     A                      A                      A
 Frequencies --   804.6141               852.5611               854.7164
 Red. masses --     1.1599                 1.1815                 1.1814
 Frc consts  --     0.4424                 0.5060                 0.5085
 IR Inten    --     0.0002                 0.3977                 0.4082

                    13                     14                     15
                     A                      A                      A
 Frequencies --   975.0039               975.5249               995.4487
 Red. masses --     1.3777                 1.3756                 1.4524
 Frc consts  --     0.7716                 0.7713                 0.8480
 IR Inten    --    24.4988                24.4151                44.5988

                    16                     17                     18
                     A                      A                      A
 Frequencies --  1347.2787              1347.8359              1372.7077
 Red. masses --     1.2020                 1.2015                 1.1927
 Frc consts  --     1.2855                 1.2860                 1.3242
 IR Inten    --     2.3049                 2.2694                 1.8998

                    19                     20                     21
                     A                      A                      A
 Frequencies --  1490.2625              1495.6570              1496.0402
 Red. masses --     1.0553                 1.0526                 1.0524
 Frc consts  --     1.3809                 1.3874                 1.3878
 IR Inten    --     0.0433                 5.3546                 5.2747

                    22                     23                     24
                     A                      A                      A
 Frequencies --  1504.7574              1505.5245              1515.4473
 Red. masses --     1.0505                 1.0504                 1.0457
 Frc consts  --     1.4014                 1.4027                 1.4150
 IR Inten    --     9.2422                 9.1686                 7.1554

                    25                     26                     27
                     A                      A                      A
 Frequencies --  3036.5322              3037.7393              3037.9572
 Red. masses --     1.0354                 1.0351                 1.0351
 Frc consts  --     5.6248                 5.6278                 5.6285
 IR Inten    --    22.9516                23.1988                17.7653

                    28                     29                     30
                     A                      A                      A
 Frequencies --  3115.3238              3116.0495              3116.7864
 Red. masses --     1.1018                 1.1021                 1.1004
 Frc consts  --     6.3003                 6.3052                 6.2984
 IR Inten    --     7.3613                 4.3577                40.4344

                    31                     32                     33
                     A                      A                      A
 Frequencies --  3129.6381              3130.2955              3130.4211
 Red. masses --     1.1021                 1.1021                 1.1021
 Frc consts  --     6.3599                 6.3626                 6.3631
 IR Inten    --     0.3755                18.9122                19.0971

 - Thermochemistry -
 -------------------
 Temperature   298.150 Kelvin.  Pressure   1.00000 Atm.
 Atom     1 has atomic number  6 and mass  12.00000

 Molecular mass:    76.04419 amu.
 Principal axes and moments of inertia in atomic units:
                           1         2         3
     Eigenvalues --   317.96581 318.23564 496.06021
           X            1.00000   0.00058  -0.00002
           Y           -0.00058   1.00000  -0.00002
           Z            0.00002   0.00002   1.00000
 This molecule is an asymmetric top.
 Rotational symmetry number  1.
 Rotational temperatures (Kelvin)      0.27240     0.27217     0.17460
 Rotational constants (GHZ):           5.67590     5.67108     3.63815
 Zero-point vibrational energy     297637.0 (Joules/Mol)
                                   71.13694 (Kcal/Mol)
 Warning -- explicit consideration of   6 degrees of freedom as
           vibrations may cause significant error
 Vibrational temperatures:    254.05   282.63   290.82   349.34   351.00
          (Kelvin)            410.03   918.02  1000.17  1002.51  1157.66
                             1226.64  1229.74  1402.81  1403.56  1432.23
                             1938.43  1939.23  1975.02  2144.15  2151.91
                             2152.47  2165.01  2166.11  2180.39  4368.89
                             4370.62  4370.94  4482.25  4483.29  4484.35
                             4502.85  4503.79  4503.97

 Zero-point correction=                           0.113364 (Hartree/Particle)
 Thermal correction to Energy=                    0.120099
 Thermal correction to Enthalpy=                  0.121043
 Thermal correction to Gibbs Free Energy=         0.083976
 Sum of electronic and zero-point Energies=           -460.985027
 Sum of electronic and thermal Energies=              -460.978292
 Sum of electronic and thermal Enthalpies=            -460.977348
 Sum of electronic and thermal Free Energies=         -461.014415

                     E (Thermal)             CV                S
                      KCal/Mol        Cal/Mol-Kelvin    Cal/Mol-Kelvin
 Total                   75.363             23.176             78.013
 Electronic               0.000              0.000              0.000
 Translational            0.889              2.981             38.902
 Rotational               0.889              2.981             25.421
 Vibrational             73.586             17.214             13.691
 Vibration     1          0.628              1.871              2.364
 Vibration     2          0.636              1.845              2.166
 Vibration     3          0.639              1.837              2.114
 Vibration     4          0.659              1.775              1.782
 Vibration     5          0.659              1.773              1.774
 Vibration     6          0.683              1.702              1.504

 Normal termination of Gaussian 09 at Fri Oct  1 19:23:10 2021.
 Gaussian 09:  AM64L-G09RevA.02 11-Jun-2009

 ----------------------------------------------------------------------
 #p TD(NStates=10, Root=1) b3lyp/6-31G* volume pop=NPA density=current
 Geom=AllCheck Guess=Read
 ----------------------------------------------------------------------

 CP(C)C_conf_0
 -------------
 Redundant internal coordinates taken from checkpoint file:
 C3H9P_44e1_conf_0.chk
 Charge =  0 Multiplicity = 1

                         Standard orientation:
 ---------------------------------------------------------------------
 Center     Atomic      Atomic             Coordinates (Angstroms)
 Number     Number       Type             X           Y           Z
 ---------------------------------------------------------------------
      1          6           0        0.603700    1.528614    0.280447
      2         15           0       -0.000427   -0.000331   -0.605708
      3          6           0        1.022938   -1.286492    0.280674
      4          6           0       -1.626029   -0.241798    0.280991
      5          1           0        1.637432    1.739597   -0.014305
      6          1           0        0.564074    1.428324    1.372514
      7          1           0       -0.006380    2.389305   -0.014567
      8          1           0        2.072958   -1.188102   -0.015554
      9          1           0        0.689094   -2.287720   -0.012710
     10          1           0        0.956905   -1.200549    1.372631
     11          1           0       -2.324543    0.549130   -0.013058
     12          1           0       -1.519096   -0.227399    1.373045
     13          1           0       -2.067689   -1.199563   -0.015040
 ---------------------------------------------------------------------

 SCF Done:  E(RB3LYP) =  -461.098390905     A.U. after    1 cycles

 Excitation energies and oscillator strengths:

 Excited State   1:      Singlet-A      7.0098 eV  176.87 nm  f=0.1237  <S**2>=0.000
      21 -> 22         0.69523
 This state for optimization and/or second-order correction.
 Total Energy, E(TD-HF/TD-KS) =  -460.840786691
 Copying the excited state density for this state as the 1-particle RhoCI density.

 Excited State   2:      Singlet-A      7.0121 eV  176.82 nm  f=0.1238  <S**2>=0.000
      21 -> 23         0.69521

 Excited State   3:      Singlet-A      7.3840 eV  167.91 nm  f=0.0030  <S**2>=0.000
      21 -> 24         0.70541

 Excited State   4:      Singlet-A      8.4571 eV  146.60 nm  f=0.0512  <S**2>=0.000
      21 -> 25         0.69516

 Excited State   5:      Singlet-A      8.6896 eV  142.68 nm  f=0.0036  <S**2>=0.000
      21 -> 26         0.70068

 Excited State   6:      Singlet-A      8.6911 eV  142.66 nm  f=0.0036  <S**2>=0.000
      21 -> 27         0.70068

 Excited State   7:      Singlet-A      9.1188 eV  135.96 nm  f=0.0000  <S**2>=0.000
      19 -> 22        -0.47955
      19 -> 23         0.13376
      20 -> 22         0.13523
      20 -> 23         0.47993

 Excited State   8:      Singlet-A      9.3889 eV  132.05 nm  f=0.0302  <S**2>=0.000
      19 -> 22        -0.17178
      19 -> 23        -0.30527
      20 -> 22         0.30958
      20 -> 23        -0.17427
      21 -> 28         0.49207

 Excited State   9:      Singlet-A      9.3902 eV  132.04 nm  f=0.0307  <S**2>=0.000
      19 -> 22        -0.30961
      19 -> 23         0.17240
      20 -> 22        -0.17565
      20 -> 23        -0.30781
      21 -> 29         0.48959

 Excited State  10:      Singlet-A      9.4840 eV  130.73 nm  f=0.0954  <S**2>=0.000
      19 -> 23        -0.23342
      20 -> 22        -0.23085
      21 -> 30         0.61686

 The electronic state is 1-A.
 Alpha  occ. eigenvalues --  -77.07169 -10.17833 -10.17831 -10.17830  -6.53915
 Alpha  occ. eigenvalues --   -4.70174  -4.70174  -4.69651  -0.75112  -0.68370
 Alpha  occ. eigenvalues --   -0.68363  -0.52442  -0.43027  -0.41933  -0.41929
 Alpha  occ. eigenvalues --   -0.39449  -0.39441  -0.38250  -0.31969  -0.31961
 Alpha  occ. eigenvalues --   -0.21985
 Alpha virt. eigenvalues --    0.06442   0.06450   0.08681   0.12527   0.13952
 Alpha virt. eigenvalues --    0.13958   0.16572   0.16581   0.17140   0.19324
 Alpha virt. eigenvalues --    0.19340   0.20225   0.35307   0.38111   0.38114

 Mulliken atomic charges:
              1
     1  C   -0.529168
     2  P    0.169813
     3  C   -0.544967
     4  C   -0.573552
     5  H    0.139795
     6  H    0.135722
     7  H    0.152665
     8  H    0.151623
     9  H    0.171932
    10  H    0.156038
    11  H    0.185376
    12  H    0.191845
    13  H    0.192879
 Sum of Mulliken atomic charges =  -0.00000

 Dipole moment (field-independent basis, Debye):
    X=             -0.6015    Y=             -0.3370    Z=              1.3456  Tot=              1.5120
 Quadrupole moment (field-independent basis, Debye-Ang):
   XX=            -33.5729   YY=            -37.3317   ZZ=            -36.5389
   XY=             -0.1363   XZ=             -1.1316   YZ=             -0.6458

 Summary of Natural Population Analysis:

                                       Natural Population
                Natural  -----------------------------------------------
    Atom  No    Charge         Core      Valence    Rydberg      Total
 -----------------------------------------------------------------------
      C    1   -1.10168      1.99946     5.07790    0.02432     7.10168
      P    2    0.91114      9.99764     3.92655    0.16467    14.08886
      C    3   -1.05719      1.99945     5.03823    0.01951     7.05719
      C    4   -0.98064      1.99943     4.97061    0.01060     6.98064
      H    5    0.23495      0.00000     0.75990    0.00515     0.76505
      H    6    0.22808      0.00000     0.76519    0.00673     0.77192
      H    7    0.24669      0.00000     0.74855    0.00476     0.75331
      H    8    0.23772      0.00000     0.75829    0.00400     0.76228
      H    9    0.25640      0.00000     0.74040    0.00320     0.74360
      H   10    0.24195      0.00000     0.75292    0.00514     0.75805
      H   11    0.25442      0.00000     0.74435    0.00123     0.74558
      H   12    0.26670      0.00000     0.73147    0.00182     0.73330
      H   13    0.26146      0.00000     0.73776    0.00078     0.73854
 =======================================================================
   * Total *   -0.00000     15.99598    25.75211    0.25191    42.00000

 Normal termination of Gaussian 09 at Fri Oct  1 20:11:05 2021.
