 Gaussian 09, Revision A.02,

 -----------------------------------
 #p opt b3lyp/6-31G* scf=(xqc,tight)
 -----------------------------------

 -------------------------
 Br[Mg]C[Si](C)(C)C_conf_0
 -------------------------
 Symbolic Z-matrix:
 Charge =  0 Multiplicity = 1

 SCF Done:  E(RB3LYP) =  -3220.42463979     A.U. after   14 cycles
 SCF Done:  E(RB3LYP) =  -3220.44092872     A.U. after   12 cycles
 SCF Done:  E(RB3LYP) =  -3220.45584470     A.U. after   14 cycles
 SCF Done:  E(RB3LYP) =  -3220.46101054     A.U. after   13 cycles
 SCF Done:  E(RB3LYP) =  -3220.46419359     A.U. after   13 cycles
 SCF Done:  E(RB3LYP) =  -3220.46473060     A.U. after    9 cycles
 SCF Done:  E(RB3LYP) =  -3220.46497991     A.U. after    9 cycles
 SCF Done:  E(RB3LYP) =  -3220.46504037     A.U. after    9 cycles
 SCF Done:  E(RB3LYP) =  -3220.46507116     A.U. after    8 cycles
 SCF Done:  E(RB3LYP) =  -3220.46508500     A.U. after    8 cycles
 SCF Done:  E(RB3LYP) =  -3220.46508946     A.U. after    8 cycles
 SCF Done:  E(RB3LYP) =  -3220.46509043     A.U. after    7 cycles
 SCF Done:  E(RB3LYP) =  -3220.46509131     A.U. after    7 cycles
 SCF Done:  E(RB3LYP) =  -3220.46509175     A.U. after    7 cycles
 SCF Done:  E(RB3LYP) =  -3220.46509187     A.U. after    6 cycles
 Optimization completed.
    -- Stationary point found.
 Normal termination of Gaussian 09 at Tue Oct  5 16:51:02 2021.

 ----------------------------------------------------------------------
 #p freq b3lyp/6-31G* volume NMR pop=NPA density=current Geom=AllCheck
 Guess=Read
 ----------------------------------------------------------------------

 Br[Mg]C[Si](C)(C)C_conf_0
 -------------------------
 Redundant internal coordinates taken from checkpoint file:
 C4H11BrMgSi_ae74_conf_0.chk
 Charge =  0 Multiplicity = 1

 SCF Done:  E(RB3LYP) =  -3220.46509187     A.U. after    1 cycles

  1  Br   Isotropic =  2890.7323   Anisotropy =   349.7485

  2  Mg   Isotropic =   503.4928   Anisotropy =   320.9941

  3  C    Isotropic =   197.4769   Anisotropy =    15.6248

  4  Si   Isotropic =   411.6186   Anisotropy =    24.2861

  5  C    Isotropic =   187.3394   Anisotropy =    10.8102

  6  C    Isotropic =   186.3783   Anisotropy =    13.4625

  7  C    Isotropic =   186.3756   Anisotropy =    13.4651

  8  H    Isotropic =    32.9802   Anisotropy =    10.0307

  9  H    Isotropic =    32.9802   Anisotropy =    10.0306

 10  H    Isotropic =    32.1463   Anisotropy =     8.9339

 11  H    Isotropic =    32.1464   Anisotropy =     8.9337

 12  H    Isotropic =    32.0938   Anisotropy =     9.9248

 13  H    Isotropic =    32.0414   Anisotropy =     8.4251

 14  H    Isotropic =    31.9875   Anisotropy =    10.0895

 15  H    Isotropic =    32.4695   Anisotropy =     8.2196

 16  H    Isotropic =    32.0412   Anisotropy =     8.4244

 17  H    Isotropic =    32.4697   Anisotropy =     8.2196

 18  H    Isotropic =    31.9874   Anisotropy =    10.0896

  Exact polarizability: 138.545   2.284  91.487   0.003   0.001  89.704
 Approx polarizability: 175.545   7.446 130.478   0.007   0.002 127.105

                     1                      2                      3
                     A                      A                      A
 Frequencies --    28.3924                35.0725               118.0108
 Red. masses --     3.2657                 5.3991                 4.7208
 Frc consts  --     0.0016                 0.0039                 0.0387
 IR Inten    --     0.2913                 1.3396                13.8732

                     4                      5                      6
                     A                      A                      A
 Frequencies --   124.0474               145.2757               153.4652
 Red. masses --     7.0915                 1.0808                 1.4756
 Frc consts  --     0.0643                 0.0134                 0.0205
 IR Inten    --    17.0797                 1.2578                 0.3922

                     7                      8                      9
                     A                      A                      A
 Frequencies --   159.3262               164.5118               186.1907
 Red. masses --     1.7690                 1.0888                 2.0000
 Frc consts  --     0.0265                 0.0174                 0.0409
 IR Inten    --     3.2942                 1.0155                 0.4581

                    10                     11                     12
                     A                      A                      A
 Frequencies --   211.5212               228.7182               250.7987
 Red. masses --     2.5596                 2.0941                 2.7434
 Frc consts  --     0.0675                 0.0645                 0.1017
 IR Inten    --     1.0616                 3.2615                 9.0840

                    13                     14                     15
                     A                      A                      A
 Frequencies --   352.6042               546.8195               559.7202
 Red. masses --     5.4296                 1.4563                 4.8579
 Frc consts  --     0.3977                 0.2566                 0.8967
 IR Inten    --    31.0867                37.1176                25.4814

                    16                     17                     18
                     A                      A                      A
 Frequencies --   610.9447               681.7404               684.7684
 Red. masses --     4.3897                 2.6121                 2.6769
 Frc consts  --     0.9654                 0.7153                 0.7396
 IR Inten    --    26.1770                12.8592                12.7827

                    19                     20                     21
                     A                      A                      A
 Frequencies --   693.7063               722.2762               767.1824
 Red. masses --     1.1694                 2.2772                 1.3143
 Frc consts  --     0.3316                 0.6999                 0.4558
 IR Inten    --     0.0632                53.2943                54.0316

                    22                     23                     24
                     A                      A                      A
 Frequencies --   772.4901               861.3021               870.9832
 Red. masses --     1.5086                 1.3504                 1.5356
 Frc consts  --     0.5304                 0.5902                 0.6864
 IR Inten    --    28.6211                52.8313                60.1445

                    25                     26                     27
                     A                      A                      A
 Frequencies --   896.1011               948.5986               951.2045
 Red. masses --     1.6514                 1.5960                 1.2515
 Frc consts  --     0.7813                 0.8461                 0.6672
 IR Inten    --   173.4069               126.9912                20.8486

                    28                     29                     30
                     A                      A                      A
 Frequencies --  1323.7876              1327.6576              1336.7444
 Red. masses --     1.2446                 1.2440                 1.2210
 Frc consts  --     1.2851                 1.2919                 1.2855
 IR Inten    --    26.3688                30.5513                10.1221

                    31                     32                     33
                     A                      A                      A
 Frequencies --  1426.1250              1487.6827              1489.2565
 Red. masses --     1.0930                 1.0526                 1.0533
 Frc consts  --     1.3097                 1.3726                 1.3764
 IR Inten    --     2.5015                 0.2783                 0.2040

                    34                     35                     36
                     A                      A                      A
 Frequencies --  1490.6043              1500.9496              1504.0478
 Red. masses --     1.0550                 1.0497                 1.0488
 Frc consts  --     1.3811                 1.3934                 1.3979
 IR Inten    --     0.0019                 2.9756                 7.0588

                    37                     38                     39
                     A                      A                      A
 Frequencies --  1506.8174              3017.0591              3027.8153
 Red. masses --     1.0472                 1.0573                 1.0379
 Frc consts  --     1.4009                 5.6707                 5.6063
 IR Inten    --     2.5775                14.4388                 7.5206

                    40                     41                     42
                     A                      A                      A
 Frequencies --  3029.3198              3036.7445              3065.9670
 Red. masses --     1.0376                 1.0352                 1.0999
 Frc consts  --     5.6099                 5.6247                 6.0917
 IR Inten    --    15.4673                 8.4043                 9.0108

                    43                     44                     45
                     A                      A                      A
 Frequencies --  3092.3677              3093.9312              3107.5009
 Red. masses --     1.0979                 1.0978                 1.1008
 Frc consts  --     6.1857                 6.1915                 6.2628
 IR Inten    --     8.7443                43.3549                 2.1532

                    46                     47                     48
                     A                      A                      A
 Frequencies --  3109.6021              3111.7382              3111.9052
 Red. masses --     1.1004                 1.0997                 1.1004
 Frc consts  --     6.2690                 6.2736                 6.2786
 IR Inten    --     0.9501                45.6942                22.9415

 - Thermochemistry -
 -------------------
 Temperature   298.150 Kelvin.  Pressure   1.00000 Atm.
 Atom     1 has atomic number 35 and mass  78.91834

 Molecular mass:   189.96638 amu.
 Principal axes and moments of inertia in atomic units:
                           1         2         3
     Eigenvalues --   616.018105150.908275176.02719
           X            0.99999  -0.00391  -0.00000
           Y            0.00391   0.99999  -0.00013
           Z            0.00000   0.00013   1.00000
 This molecule is an asymmetric top.
 Rotational symmetry number  1.
 Warning -- assumption of classical behavior for rotation
           may cause significant error
 Rotational temperatures (Kelvin)      0.14060     0.01682     0.01673
 Rotational constants (GHZ):           2.92969     0.35037     0.34867
 Zero-point vibrational energy     364402.8 (Joules/Mol)
                                   87.09437 (Kcal/Mol)
 Warning -- explicit consideration of  16 degrees of freedom as
           vibrations may cause significant error
 Vibrational temperatures:     40.85    50.46   169.79   178.48   209.02
          (Kelvin)            220.80   229.23   236.70   267.89   304.33
                              329.07   360.84   507.32   786.75   805.31
                              879.01   980.87   985.23   998.09  1039.19
                             1103.80  1111.44  1239.22  1253.15  1289.29
                             1364.82  1368.57  1904.63  1910.20  1923.27
                             2051.87  2140.44  2142.71  2144.64  2159.53
                             2163.99  2167.97  4340.87  4356.35  4358.51
                             4369.19  4411.24  4449.22  4451.47  4471.00
                             4474.02  4477.09  4477.33

 Zero-point correction=                           0.138794 (Hartree/Particle)
 Thermal correction to Energy=                    0.151281
 Thermal correction to Enthalpy=                  0.152225
 Thermal correction to Gibbs Free Energy=         0.098067
 Sum of electronic and zero-point Energies=          -3220.326298
 Sum of electronic and thermal Energies=             -3220.313811
 Sum of electronic and thermal Enthalpies=           -3220.312866
 Sum of electronic and thermal Free Energies=        -3220.367024

                     E (Thermal)             CV                S
                      KCal/Mol        Cal/Mol-Kelvin    Cal/Mol-Kelvin
 Total                   94.930             41.644            113.985
 Electronic               0.000              0.000              0.000
 Translational            0.889              2.981             41.631
 Rotational               0.889              2.981             31.174
 Vibrational             93.153             35.683             41.180
 Vibration     1          0.593              1.984              5.939
 Vibration     2          0.594              1.982              5.520
 Vibration     3          0.608              1.934              3.133
 Vibration     4          0.610              1.929              3.036
 Vibration     5          0.617              1.908              2.733
 Vibration     6          0.619              1.899              2.629
 Vibration     7          0.621              1.892              2.558
 Vibration     8          0.623              1.886              2.497
 Vibration     9          0.632              1.859              2.265
 Vibration    10          0.643              1.823              2.031
 Vibration    11          0.651              1.797              1.889
 Vibration    12          0.663              1.761              1.725
 Vibration    13          0.729              1.570              1.155
 Vibration    14          0.902              1.147              0.551
 Vibration    15          0.915              1.118              0.524
 Vibration    16          0.970              1.009              0.431

 Optimization completed.
    -- Stationary point found.
 Normal termination of Gaussian 09 at Tue Oct  5 16:54:37 2021.
 Gaussian 09:  AM64L-G09RevA.02 11-Jun-2009

 ----------------------------------------------------------------------
 #p TD(NStates=10, Root=1) b3lyp/6-31G* volume pop=NPA density=current
 Geom=AllCheck Guess=Read
 ----------------------------------------------------------------------

 Br[Mg]C[Si](C)(C)C_conf_0
 -------------------------
 Redundant internal coordinates taken from checkpoint file:
 C4H11BrMgSi_ae74_conf_0.chk
 Charge =  0 Multiplicity = 1

                         Standard orientation:
 ---------------------------------------------------------------------
 Center     Atomic      Atomic             Coordinates (Angstroms)
 Number     Number       Type             X           Y           Z
 ---------------------------------------------------------------------
      1         35           0        3.119158    0.109350    0.000036
      2         12           0        0.883787   -0.579959   -0.000219
      3          6           0       -1.061688   -1.303290   -0.000903
      4         14           0       -2.389504    0.023653   -0.000007
      5          6           0       -4.137802   -0.716627   -0.001165
      6          6           0       -2.194706    1.112499    1.546146
      7          6           0       -2.193917    1.115450   -1.543976
      8          1           0       -1.172379   -1.953592    0.880048
      9          1           0       -1.172186   -1.952252   -0.882868
     10          1           0       -4.303288   -1.345449    0.882172
     11          1           0       -4.302840   -1.343708   -0.885824
     12          1           0       -4.907645    0.065340   -0.000595
     13          1           0       -2.230295    0.514001    2.465230
     14          1           0       -2.995520    1.859101    1.612342
     15          1           0       -1.243577    1.662815    1.549109
     16          1           0       -2.229134    0.518734   -2.464233
     17          1           0       -1.242738    1.665687   -1.545433
     18          1           0       -2.994630    1.862256   -1.609102
 ---------------------------------------------------------------------

 SCF Done:  E(RB3LYP) =  -3220.46509187     A.U. after    1 cycles

 Excitation energies and oscillator strengths:

 Excited State   1:      Singlet-A      5.2146 eV  237.76 nm  f=0.3362  <S**2>=0.000
      48 -> 49         0.69445
 This state for optimization and/or second-order correction.
 Total Energy, E(TD-HF/TD-KS) =  -3220.27345731
 Copying the excited state density for this state as the 1-particle RhoCI density.

 Excited State   2:      Singlet-A      5.4690 eV  226.70 nm  f=0.0202  <S**2>=0.000
      47 -> 49         0.68148
      48 -> 50        -0.17747

 Excited State   3:      Singlet-A      5.4697 eV  226.68 nm  f=0.0218  <S**2>=0.000
      46 -> 49         0.68002
      48 -> 51        -0.18790

 Excited State   4:      Singlet-A      5.6874 eV  218.00 nm  f=0.0549  <S**2>=0.000
      46 -> 49         0.18810
      48 -> 51         0.67735

 Excited State   5:      Singlet-A      5.7143 eV  216.97 nm  f=0.1069  <S**2>=0.000
      47 -> 49         0.17577
      48 -> 50         0.67919

 Excited State   6:      Singlet-A      5.9956 eV  206.79 nm  f=0.0168  <S**2>=0.000
      43 -> 49        -0.12220
      45 -> 49         0.69192

 Excited State   7:      Singlet-A      6.1116 eV  202.87 nm  f=0.0026  <S**2>=0.000
      44 -> 49         0.70164

 Excited State   8:      Singlet-A      6.3297 eV  195.88 nm  f=0.0000  <S**2>=0.000
      46 -> 50        -0.37805
      47 -> 51         0.59588

 Excited State   9:      Singlet-A      6.3489 eV  195.29 nm  f=0.0001  <S**2>=0.000
      46 -> 51         0.50316
      47 -> 50        -0.49492

 Excited State  10:      Singlet-A      6.3506 eV  195.23 nm  f=0.0001  <S**2>=0.000
      46 -> 50         0.59593
      47 -> 51         0.37816

 The electronic state is 1-A.
 Alpha  occ. eigenvalues -- -482.87679 -66.11710 -61.83916 -56.35593 -56.35473
 Alpha  occ. eigenvalues --  -56.35469 -46.84000 -10.16245 -10.16245 -10.15696
 Alpha  occ. eigenvalues --  -10.15136  -8.54797  -6.49522  -6.49132  -6.49130
 Alpha  occ. eigenvalues --   -5.26066  -3.61965  -3.61943  -3.61925  -3.12807
 Alpha  occ. eigenvalues --   -2.61200  -2.61077  -2.61074  -2.60765  -2.60764
 Alpha  occ. eigenvalues --   -1.87409  -1.87400  -1.86788  -0.72276  -0.71310
 Alpha  occ. eigenvalues --   -0.67688  -0.67295  -0.65093  -0.45367  -0.41217
 Alpha  occ. eigenvalues --   -0.41000  -0.40722  -0.39705  -0.38662  -0.37978
 Alpha  occ. eigenvalues --   -0.37803  -0.32866  -0.31238  -0.29422  -0.29210
 Alpha  occ. eigenvalues --   -0.27798  -0.27794  -0.24992
 Alpha virt. eigenvalues --   -0.04117  -0.00899  -0.00886   0.05264   0.08611
 Alpha virt. eigenvalues --    0.09678   0.10172   0.11448   0.12347   0.12989
 Alpha virt. eigenvalues --    0.14292   0.14472   0.15150   0.17292   0.17410

 Mulliken atomic charges:
              1
     1  Br  -0.176705
     2  Mg   0.026463
     3  C   -0.668181
     4  Si   0.784895
     5  C   -0.638596
     6  C   -0.669076
     7  C   -0.669108
     8  H    0.202613
     9  H    0.202560
    10  H    0.188666
    11  H    0.188657
    12  H    0.194705
    13  H    0.166770
    14  H    0.164579
    15  H    0.185198
    16  H    0.166765
    17  H    0.185190
    18  H    0.164605
 Sum of Mulliken atomic charges =  -0.00000

 Dipole moment (field-independent basis, Debye):
    X=             -7.7255    Y=             -1.4518    Z=             -0.0055  Tot=              7.8608
 Quadrupole moment (field-independent basis, Debye-Ang):
   XX=            -73.7616   YY=            -70.3699   ZZ=            -72.4628
   XY=              0.7382   XZ=             -0.0021   YZ=              0.0035

 Summary of Natural Population Analysis:

                                       Natural Population
                Natural  -----------------------------------------------
    Atom  No    Charge         Core      Valence    Rydberg      Total
 -----------------------------------------------------------------------
     Br    1   -0.59102     27.99972     7.57931    0.01199    35.59102
     Mg    2    0.84376      9.99552     1.11746    0.04326    11.15624
      C    3   -1.30245      1.99953     5.27883    0.02409     7.30245
     Si    4    1.74564      9.99773     2.21997    0.03666    12.25436
      C    5   -1.10491      1.99942     5.09658    0.00892     7.10491
      C    6   -1.20344      1.99950     5.19486    0.00909     7.20344
      C    7   -1.20344      1.99950     5.19485    0.00909     7.20344
      H    8    0.24645      0.00000     0.75160    0.00194     0.75355
      H    9    0.24641      0.00000     0.75164    0.00195     0.75359
      H   10    0.26172      0.00000     0.73737    0.00090     0.73828
      H   11    0.26172      0.00000     0.73738    0.00090     0.73828
      H   12    0.26896      0.00000     0.72966    0.00138     0.73104
      H   13    0.25301      0.00000     0.74544    0.00156     0.74699
      H   14    0.25311      0.00000     0.74564    0.00125     0.74689
      H   15    0.25918      0.00000     0.73863    0.00219     0.74082
      H   16    0.25300      0.00000     0.74544    0.00156     0.74700
      H   17    0.25916      0.00000     0.73864    0.00219     0.74084
      H   18    0.25312      0.00000     0.74563    0.00125     0.74688
 =======================================================================
   * Total *   -0.00000     55.99090    39.84892    0.16018    96.00000

 Normal termination of Gaussian 09 at Tue Oct  5 16:59:36 2021.
