 Gaussian 09, Revision A.02,

 -----------------------------------
 #p opt b3lyp/6-31G* scf=(xqc,tight)
 -----------------------------------

 -------------------------
 Cl[Mg]C[Si](C)(C)C_conf_0
 -------------------------
 Symbolic Z-matrix:
 Charge =  0 Multiplicity = 1

 SCF Done:  E(RB3LYP) =  -1108.90817096     A.U. after   14 cycles
 SCF Done:  E(RB3LYP) =  -1108.92413235     A.U. after   11 cycles
 SCF Done:  E(RB3LYP) =  -1108.93697959     A.U. after   13 cycles
 SCF Done:  E(RB3LYP) =  -1108.94123098     A.U. after   13 cycles
 SCF Done:  E(RB3LYP) =  -1108.94500829     A.U. after   13 cycles
 SCF Done:  E(RB3LYP) =  -1108.94555084     A.U. after    9 cycles
 SCF Done:  E(RB3LYP) =  -1108.94606620     A.U. after   10 cycles
 SCF Done:  E(RB3LYP) =  -1108.94617896     A.U. after    9 cycles
 SCF Done:  E(RB3LYP) =  -1108.94622052     A.U. after    9 cycles
 SCF Done:  E(RB3LYP) =  -1108.94532652     A.U. after   13 cycles
 SCF Done:  E(RB3LYP) =  -1108.94622075     A.U. after   13 cycles
 SCF Done:  E(RB3LYP) =  -1108.94622628     A.U. after    8 cycles
 SCF Done:  E(RB3LYP) =  -1108.94623218     A.U. after    8 cycles
 SCF Done:  E(RB3LYP) =  -1108.94623411     A.U. after    8 cycles
 SCF Done:  E(RB3LYP) =  -1108.94623478     A.U. after    7 cycles
 SCF Done:  E(RB3LYP) =  -1108.94623552     A.U. after   13 cycles
 SCF Done:  E(RB3LYP) =  -1108.94623596     A.U. after    7 cycles
 SCF Done:  E(RB3LYP) =  -1108.94623605     A.U. after    7 cycles
 Optimization completed.
    -- Stationary point found.
 Normal termination of Gaussian 09 at Mon Oct  4 21:59:36 2021.

 ----------------------------------------------------------------------
 #p freq b3lyp/6-31G* volume NMR pop=NPA density=current Geom=AllCheck
 Guess=Read
 ----------------------------------------------------------------------

 Cl[Mg]C[Si](C)(C)C_conf_0
 -------------------------
 Redundant internal coordinates taken from checkpoint file:
 C4H11ClMgSi_4df6_conf_0.chk
 Charge =  0 Multiplicity = 1

 SCF Done:  E(RB3LYP) =  -1108.94623605     A.U. after    1 cycles

  1  Cl   Isotropic =  1019.3292   Anisotropy =   198.1007

  2  Mg   Isotropic =   518.0670   Anisotropy =   296.7494

  3  C    Isotropic =   198.6569   Anisotropy =    16.6274

  4  Si   Isotropic =   411.1872   Anisotropy =    24.0922

  5  C    Isotropic =   187.3104   Anisotropy =    10.7352

  6  C    Isotropic =   186.6131   Anisotropy =    13.4826

  7  C    Isotropic =   186.6171   Anisotropy =    13.4762

  8  H    Isotropic =    33.0759   Anisotropy =    10.2744

  9  H    Isotropic =    33.0756   Anisotropy =    10.2762

 10  H    Isotropic =    32.1711   Anisotropy =     8.9199

 11  H    Isotropic =    32.1709   Anisotropy =     8.9203

 12  H    Isotropic =    32.1110   Anisotropy =     9.8595

 13  H    Isotropic =    32.0978   Anisotropy =     8.5424

 14  H    Isotropic =    32.0242   Anisotropy =     9.9969

 15  H    Isotropic =    32.5136   Anisotropy =     8.2982

 16  H    Isotropic =    32.0977   Anisotropy =     8.5440

 17  H    Isotropic =    32.5133   Anisotropy =     8.2987

 18  H    Isotropic =    32.0243   Anisotropy =     9.9965

  Exact polarizability: 127.518   1.989  86.129   0.000   0.001  84.067
 Approx polarizability: 157.905   6.658 118.650   0.003   0.001 115.172

                     1                      2                      3
                     A                      A                      A
 Frequencies --    28.5963                43.1297               105.4431
 Red. masses --     3.5035                 5.8167                 5.9784
 Frc consts  --     0.0017                 0.0064                 0.0392
 IR Inten    --     1.1211                 2.7500                21.7935

                     4                      5                      6
                     A                      A                      A
 Frequencies --   125.6107               144.5820               155.8303
 Red. masses --     7.0495                 1.0422                 1.0413
 Frc consts  --     0.0655                 0.0128                 0.0149
 IR Inten    --    22.1637                 0.6001                 0.0015

                     7                      8                      9
                     A                      A                      A
 Frequencies --   163.4177               169.7919               184.6802
 Red. masses --     1.0669                 3.1386                 1.9784
 Frc consts  --     0.0168                 0.0533                 0.0398
 IR Inten    --     0.6011                 6.9945                 0.2601

                    10                     11                     12
                     A                      A                      A
 Frequencies --   215.6120               227.6042               259.3848
 Red. masses --     2.5638                 2.1207                 2.9332
 Frc consts  --     0.0702                 0.0647                 0.1163
 IR Inten    --     1.4911                 2.8056                 6.7157

                    13                     14                     15
                     A                      A                      A
 Frequencies --   393.9839               546.8522               566.0407
 Red. masses --     5.6957                 1.4653                 4.6188
 Frc consts  --     0.5209                 0.2582                 0.8719
 IR Inten    --    36.3981                41.3313                24.2788

                    16                     17                     18
                     A                      A                      A
 Frequencies --   618.7684               681.7517               685.3434
 Red. masses --     5.0381                 2.6105                 2.6562
 Frc consts  --     1.1365                 0.7149                 0.7351
 IR Inten    --    41.2821                13.2285                12.5989

                    19                     20                     21
                     A                      A                      A
 Frequencies --   693.5386               720.0658               766.6693
 Red. masses --     1.1698                 2.3215                 1.3162
 Frc consts  --     0.3315                 0.7092                 0.4558
 IR Inten    --     0.0576                56.0168                57.7322

                    22                     23                     24
                     A                      A                      A
 Frequencies --   772.2722               861.3173               871.2305
 Red. masses --     1.5064                 1.3467                 1.5363
 Frc consts  --     0.5293                 0.5886                 0.6871
 IR Inten    --    30.4956                54.4547                60.5604

                    25                     26                     27
                     A                      A                      A
 Frequencies --   895.9333               949.9268               950.2244
 Red. masses --     1.6515                 1.5799                 1.2567
 Frc consts  --     0.7810                 0.8399                 0.6685
 IR Inten    --   175.2334               119.5291                20.0507

                    28                     29                     30
                     A                      A                      A
 Frequencies --  1323.8783              1328.0062              1337.1110
 Red. masses --     1.2445                 1.2441                 1.2210
 Frc consts  --     1.2851                 1.2927                 1.2862
 IR Inten    --    26.3111                30.7518                 9.9257

                    31                     32                     33
                     A                      A                      A
 Frequencies --  1423.3924              1487.8288              1489.2422
 Red. masses --     1.0928                 1.0527                 1.0533
 Frc consts  --     1.3045                 1.3729                 1.3763
 IR Inten    --     2.3747                 0.2293                 0.1836

                    34                     35                     36
                     A                      A                      A
 Frequencies --  1490.5835              1500.8743              1503.8913
 Red. masses --     1.0549                 1.0497                 1.0489
 Frc consts  --     1.3809                 1.3931                 1.3977
 IR Inten    --     0.0050                 3.1126                 6.8975

                    37                     38                     39
                     A                      A                      A
 Frequencies --  1506.9933              3019.3980              3028.8557
 Red. masses --     1.0470                 1.0572                 1.0376
 Frc consts  --     1.4010                 5.6788                 5.6086
 IR Inten    --     2.7638                14.3059                 7.7929

                    40                     41                     42
                     A                      A                      A
 Frequencies --  3030.3163              3037.0015              3068.6632
 Red. masses --     1.0373                 1.0352                 1.1000
 Frc consts  --     5.6123                 5.6257                 6.1030
 IR Inten    --    14.1711                 7.9531                 8.6033

                    43                     44                     45
                     A                      A                      A
 Frequencies --  3093.6314              3095.2362              3107.6767
 Red. masses --     1.0982                 1.0981                 1.1008
 Frc consts  --     6.1926                 6.1984                 6.2634
 IR Inten    --     7.9070                42.1043                 1.9638

                    46                     47                     48
                     A                      A                      A
 Frequencies --  3109.7137              3111.8644              3112.1762
 Red. masses --     1.1004                 1.0997                 1.1004
 Frc consts  --     6.2696                 6.2742                 6.2797
 IR Inten    --     1.3185                44.3256                23.1174

 - Thermochemistry -
 -------------------
 Temperature   298.150 Kelvin.  Pressure   1.00000 Atm.
 Atom     1 has atomic number 17 and mass  34.96885

 Molecular mass:   146.01690 amu.
 Principal axes and moments of inertia in atomic units:
                           1         2         3
     Eigenvalues --   618.795823392.168473420.20624
           X            1.00000  -0.00194  -0.00000
           Y            0.00194   1.00000  -0.00015
           Z            0.00000   0.00015   1.00000
 This molecule is an asymmetric top.
 Rotational symmetry number  1.
 Warning -- assumption of classical behavior for rotation
           may cause significant error
 Rotational temperatures (Kelvin)      0.13997     0.02553     0.02532
 Rotational constants (GHZ):           2.91654     0.53203     0.52767
 Zero-point vibrational energy     364884.6 (Joules/Mol)
                                   87.20950 (Kcal/Mol)
 Warning -- explicit consideration of  16 degrees of freedom as
           vibrations may cause significant error
 Vibrational temperatures:     41.14    62.05   151.71   180.73   208.02
          (Kelvin)            224.20   235.12   244.29   265.71   310.22
                              327.47   373.20   566.85   786.80   814.41
                              890.27   980.89   986.06   997.85  1036.01
                             1103.06  1111.13  1239.24  1253.50  1289.05
                             1366.73  1367.16  1904.76  1910.70  1923.80
                             2047.94  2140.65  2142.68  2144.61  2159.42
                             2163.76  2168.22  4344.23  4357.84  4359.94
                             4369.56  4415.12  4451.04  4453.35  4471.25
                             4474.18  4477.27  4477.72

 Zero-point correction=                           0.138977 (Hartree/Particle)
 Thermal correction to Energy=                    0.151385
 Thermal correction to Enthalpy=                  0.152329
 Thermal correction to Gibbs Free Energy=         0.099228
 Sum of electronic and zero-point Energies=          -1108.807259
 Sum of electronic and thermal Energies=             -1108.794851
 Sum of electronic and thermal Enthalpies=           -1108.793907
 Sum of electronic and thermal Free Energies=        -1108.847008

                     E (Thermal)             CV                S
                      KCal/Mol        Cal/Mol-Kelvin    Cal/Mol-Kelvin
 Total                   94.995             41.508            111.759
 Electronic               0.000              0.000              0.000
 Translational            0.889              2.981             40.846
 Rotational               0.889              2.981             30.352
 Vibrational             93.218             35.547             40.561
 Vibration     1          0.593              1.984              5.924
 Vibration     2          0.595              1.980              5.110
 Vibration     3          0.605              1.945              3.351
 Vibration     4          0.611              1.927              3.012
 Vibration     5          0.616              1.909              2.742
 Vibration     6          0.620              1.896              2.600
 Vibration     7          0.623              1.887              2.510
 Vibration     8          0.625              1.880              2.438
 Vibration     9          0.631              1.861              2.281
 Vibration    10          0.645              1.817              1.996
 Vibration    11          0.651              1.799              1.898
 Vibration    12          0.668              1.747              1.666
 Vibration    13          0.761              1.483              0.985
 Vibration    14          0.902              1.147              0.551
 Vibration    15          0.922              1.105              0.512
 Vibration    16          0.979              0.992              0.418

 Normal termination of Gaussian 09 at Mon Oct  4 22:12:46 2021.
 Gaussian 09:  AM64L-G09RevA.02 11-Jun-2009

 ----------------------------------------------------------------------
 #p TD(NStates=10, Root=1) b3lyp/6-31G* volume pop=NPA density=current
 Geom=AllCheck Guess=Read
 ----------------------------------------------------------------------

 Cl[Mg]C[Si](C)(C)C_conf_0
 -------------------------
 Redundant internal coordinates taken from checkpoint file:
 C4H11ClMgSi_4df6_conf_0.chk
 Charge =  0 Multiplicity = 1

                         Standard orientation:
 ---------------------------------------------------------------------
 Center     Atomic      Atomic             Coordinates (Angstroms)
 Number     Number       Type             X           Y           Z
 ---------------------------------------------------------------------
      1         17           0        3.721004    0.225548    0.000101
      2         12           0        1.647037   -0.563909   -0.000275
      3          6           0       -0.297436   -1.296374   -0.000682
      4         14           0       -1.637102    0.022419   -0.000032
      5          6           0       -3.374351   -0.743336    0.000050
      6          6           0       -1.457319    1.114015    1.545281
      7          6           0       -1.457884    1.115225   -1.544520
      8          1           0       -0.411341   -1.945442    0.880473
      9          1           0       -0.411506   -1.944760   -0.882310
     10          1           0       -3.530575   -1.373780    0.883904
     11          1           0       -3.530962   -1.373165   -0.884176
     12          1           0       -4.155204    0.027615    0.000484
     13          1           0       -1.494247    0.517004    2.465212
     14          1           0       -2.264278    1.854532    1.605220
     15          1           0       -0.510729    1.671780    1.552522
     16          1           0       -1.495114    0.519002   -2.464946
     17          1           0       -0.511303    1.673002   -1.551609
     18          1           0       -2.264882    1.855773   -1.603532
 ---------------------------------------------------------------------

 SCF Done:  E(RB3LYP) =  -1108.94623605     A.U. after    1 cycles

 Excitation energies and oscillator strengths:

 Excited State   1:      Singlet-A      5.2228 eV  237.39 nm  f=0.3557  <S**2>=0.000
      39 -> 40         0.69762
 This state for optimization and/or second-order correction.
 Total Energy, E(TD-HF/TD-KS) =  -1108.75430258
 Copying the excited state density for this state as the 1-particle RhoCI density.

 Excited State   2:      Singlet-A      5.7358 eV  216.16 nm  f=0.0089  <S**2>=0.000
      36 -> 40        -0.30648
      37 -> 40        -0.16167
      39 -> 41         0.61235

 Excited State   3:      Singlet-A      5.7566 eV  215.38 nm  f=0.0096  <S**2>=0.000
      35 -> 40        -0.37113
      38 -> 40        -0.24530
      39 -> 42         0.54506

 Excited State   4:      Singlet-A      5.8780 eV  210.93 nm  f=0.0689  <S**2>=0.000
      35 -> 40         0.38198
      38 -> 40         0.39475
      39 -> 42         0.43519

 Excited State   5:      Singlet-A      5.8802 eV  210.85 nm  f=0.0785  <S**2>=0.000
      36 -> 40         0.54838
      37 -> 40         0.27697
      39 -> 41         0.34506

 Excited State   6:      Singlet-A      5.9695 eV  207.69 nm  f=0.0534  <S**2>=0.000
      34 -> 40        -0.11150
      35 -> 40        -0.45961
      38 -> 40         0.51398

 Excited State   7:      Singlet-A      6.0786 eV  203.97 nm  f=0.0033  <S**2>=0.000
      36 -> 40        -0.31960
      37 -> 40         0.62514

 Excited State   8:      Singlet-A      6.6159 eV  187.40 nm  f=0.0167  <S**2>=0.000
      34 -> 40         0.67132
      38 -> 40         0.10881
      38 -> 42         0.11992

 Excited State   9:      Singlet-A      6.7891 eV  182.62 nm  f=0.0000  <S**2>=0.000
      35 -> 41         0.60666
      36 -> 42        -0.15863
      38 -> 41         0.31691

 Excited State  10:      Singlet-A      6.8036 eV  182.23 nm  f=0.0008  <S**2>=0.000
      35 -> 42        -0.44088
      36 -> 41         0.45720
      37 -> 41         0.21695
      38 -> 42        -0.21805

 The electronic state is 1-A.
 Alpha  occ. eigenvalues -- -101.49643 -66.11837 -46.84151 -10.16314 -10.16314
 Alpha  occ. eigenvalues --  -10.15790 -10.15377  -9.41348  -7.17266  -7.17001
 Alpha  occ. eigenvalues --   -7.17000  -5.26193  -3.62088  -3.62070  -3.62053
 Alpha  occ. eigenvalues --   -3.12926  -1.87544  -1.87535  -1.86888  -0.76418
 Alpha  occ. eigenvalues --   -0.71407  -0.67760  -0.67383  -0.65262  -0.45456
 Alpha  occ. eigenvalues --   -0.41287  -0.41125  -0.40795  -0.39785  -0.38751
 Alpha  occ. eigenvalues --   -0.38066  -0.37916  -0.34036  -0.31503  -0.29615
 Alpha  occ. eigenvalues --   -0.29596  -0.29504  -0.29277  -0.25296
 Alpha virt. eigenvalues --   -0.04408  -0.00874  -0.00868   0.05197   0.08654
 Alpha virt. eigenvalues --    0.09619   0.10224   0.11429   0.12655   0.12911
 Alpha virt. eigenvalues --    0.14214   0.14536   0.15182   0.17430   0.17492

 Mulliken atomic charges:
              1
     1  Cl  -0.228599
     2  Mg   0.068876
     3  C   -0.664780
     4  Si   0.768054
     5  C   -0.638611
     6  C   -0.670782
     7  C   -0.670775
     8  H    0.206469
     9  H    0.206442
    10  H    0.191690
    11  H    0.191685
    12  H    0.196257
    13  H    0.170648
    14  H    0.168122
    15  H    0.183266
    16  H    0.170642
    17  H    0.183261
    18  H    0.168135
 Sum of Mulliken atomic charges =  -0.00000

 Dipole moment (field-independent basis, Debye):
    X=             -8.8157    Y=             -0.8130    Z=             -0.0024  Tot=              8.8531
 Quadrupole moment (field-independent basis, Debye-Ang):
   XX=            -83.0524   YY=            -65.5825   ZZ=            -66.1461
   XY=              0.3828   XZ=             -0.0043   YZ=              0.0015

 Summary of Natural Population Analysis:

                                       Natural Population
                Natural  -----------------------------------------------
    Atom  No    Charge         Core      Valence    Rydberg      Total
 -----------------------------------------------------------------------
     Cl    1   -0.68591      9.99987     7.67811    0.00793    17.68591
     Mg    2    0.92091      9.99547     1.04659    0.03703    11.07909
      C    3   -1.30036      1.99952     5.27624    0.02460     7.30036
     Si    4    1.73788      9.99777     2.22770    0.03665    12.26212
      C    5   -1.09826      1.99941     5.08997    0.00888     7.09826
      C    6   -1.20323      1.99950     5.19465    0.00909     7.20323
      C    7   -1.20324      1.99950     5.19466    0.00909     7.20324
      H    8    0.24927      0.00000     0.74895    0.00178     0.75073
      H    9    0.24926      0.00000     0.74896    0.00178     0.75074
      H   10    0.26325      0.00000     0.73591    0.00084     0.73675
      H   11    0.26324      0.00000     0.73591    0.00084     0.73676
      H   12    0.26939      0.00000     0.72927    0.00135     0.73061
      H   13    0.25529      0.00000     0.74328    0.00143     0.74471
      H   14    0.25514      0.00000     0.74370    0.00116     0.74486
      H   15    0.25847      0.00000     0.73981    0.00172     0.74153
      H   16    0.25529      0.00000     0.74328    0.00143     0.74471
      H   17    0.25847      0.00000     0.73981    0.00172     0.74153
      H   18    0.25515      0.00000     0.74370    0.00116     0.74485
 =======================================================================
   * Total *    0.00000     37.99104    39.86049    0.14847    78.00000

 Normal termination of Gaussian 09 at Mon Oct  4 23:12:45 2021.
